# Force coefficients
# liftDir    : (0.000000e+00 1.000000e+00 0.000000e+00)
# dragDir    : (1.000000e+00 0.000000e+00 0.000000e+00)
# pitchAxis  : (0.000000e+00 0.000000e+00 1.000000e+00)
# magUInf    : 4.500000e+01
# lRef       : 1.000000e+00
# Aref       : 4.500000e-02
# CofR       : (0.000000e+00 0.000000e+00 0.000000e+00)
# Time       	Cm           	Cd           	Cl           	Cl(f)        	Cl(r)        
100          	4.967756e-04	2.132705e-05	1.140039e-03	1.066795e-03	7.324415e-05
200          	4.938219e-04	1.844205e-05	1.140344e-03	1.063994e-03	7.635028e-05
300          	4.926051e-04	1.765390e-05	1.139795e-03	1.062503e-03	7.729264e-05
400          	4.955627e-04	1.750289e-05	1.145870e-03	1.068498e-03	7.737230e-05
500          	4.980212e-04	1.745995e-05	1.152383e-03	1.074213e-03	7.817012e-05
600          	5.015205e-04	1.732956e-05	1.159784e-03	1.081412e-03	7.837139e-05
