# Force coefficients
# liftDir    : (2.419000e-01 9.703000e-01 0.000000e+00)
# dragDir    : (9.703000e-01 2.419000e-01 0.000000e+00)
# pitchAxis  : (0.000000e+00 1.000000e+00 0.000000e+00)
# magUInf    : 1.500000e+01
# lRef       : 5.000000e-01
# Aref       : 4.000000e-01
# CofR       : (0.000000e+00 0.000000e+00 0.000000e+00)
# Time       	Cm           	Cd           	Cl           	Cl(f)        	Cl(r)        
100          	-4.806787e-03	2.955480e-02	1.352590e-01	6.282271e-02	7.243629e-02
200          	-9.636733e-03	2.757351e-02	1.441021e-01	6.241433e-02	8.168779e-02
300          	-1.117342e-02	2.621160e-02	1.439813e-01	6.081722e-02	8.316406e-02
400          	-1.152651e-02	2.542976e-02	1.420726e-01	5.950982e-02	8.256283e-02
500          	-1.153474e-02	2.485914e-02	1.398124e-01	5.837147e-02	8.144094e-02
600          	-1.147335e-02	2.442308e-02	1.378499e-01	5.745159e-02	8.039828e-02
700          	-1.143933e-02	2.417027e-02	1.367176e-01	5.691945e-02	7.979811e-02
800          	-1.145276e-02	2.411707e-02	1.365509e-01	5.682268e-02	7.972820e-02
900          	-1.151082e-02	2.416790e-02	1.369566e-01	5.696748e-02	7.998912e-02
1000         	-1.158975e-02	2.423225e-02	1.374891e-01	5.715479e-02	8.033429e-02
1100         	-1.166496e-02	2.428130e-02	1.379473e-01	5.730869e-02	8.063862e-02
1200         	-1.172494e-02	2.431446e-02	1.382888e-01	5.741945e-02	8.086933e-02
1300         	-1.176836e-02	2.433508e-02	1.385225e-01	5.749287e-02	8.102960e-02
1400         	-1.179817e-02	2.434597e-02	1.386697e-01	5.753670e-02	8.113304e-02
1500         	-1.181733e-02	2.435079e-02	1.387557e-01	5.756053e-02	8.119518e-02
1600         	-1.182926e-02	2.435219e-02	1.388028e-01	5.757213e-02	8.123064e-02
1700         	-1.183615e-02	2.435218e-02	1.388267e-01	5.757720e-02	8.124950e-02
1800         	-1.184014e-02	2.435163e-02	1.388384e-01	5.757904e-02	8.125933e-02
1900         	-1.184275e-02	2.435135e-02	1.388463e-01	5.758040e-02	8.126590e-02
2000         	-1.184450e-02	2.435112e-02	1.388515e-01	5.758125e-02	8.127024e-02
2100         	-1.184573e-02	2.435091e-02	1.388549e-01	5.758173e-02	8.127319e-02
2200         	-1.184657e-02	2.435088e-02	1.388577e-01	5.758229e-02	8.127544e-02
2300         	-1.184717e-02	2.435084e-02	1.388596e-01	5.758264e-02	8.127699e-02
2400         	-1.184767e-02	2.435074e-02	1.388610e-01	5.758281e-02	8.127816e-02
2500         	-1.184802e-02	2.435065e-02	1.388619e-01	5.758290e-02	8.127895e-02
2600         	-1.184827e-02	2.435060e-02	1.388625e-01	5.758298e-02	8.127952e-02
2700         	-1.184845e-02	2.435054e-02	1.388629e-01	5.758300e-02	8.127990e-02
2800         	-1.184858e-02	2.435053e-02	1.388633e-01	5.758308e-02	8.128024e-02
2900         	-1.184866e-02	2.435051e-02	1.388635e-01	5.758308e-02	8.128039e-02
3000         	-1.184867e-02	2.435060e-02	1.388639e-01	5.758328e-02	8.128062e-02
3100         	-1.184870e-02	2.435057e-02	1.388639e-01	5.758323e-02	8.128063e-02
3200         	-1.184873e-02	2.435056e-02	1.388639e-01	5.758324e-02	8.128070e-02
3300         	-1.184875e-02	2.435058e-02	1.388641e-01	5.758329e-02	8.128078e-02
3400         	-1.184876e-02	2.435056e-02	1.388641e-01	5.758327e-02	8.128080e-02
3500         	-1.184877e-02	2.435057e-02	1.388641e-01	5.758329e-02	8.128082e-02
3600         	-1.184878e-02	2.435057e-02	1.388641e-01	5.758329e-02	8.128084e-02
3700         	-1.184878e-02	2.435057e-02	1.388642e-01	5.758330e-02	8.128086e-02
3800         	-1.184879e-02	2.435055e-02	1.388641e-01	5.758327e-02	8.128084e-02
3900         	-1.184877e-02	2.435057e-02	1.388641e-01	5.758329e-02	8.128082e-02
4000         	-1.184878e-02	2.435056e-02	1.388641e-01	5.758327e-02	8.128083e-02
4100         	-1.184878e-02	2.435055e-02	1.388641e-01	5.758326e-02	8.128081e-02
4200         	-1.184877e-02	2.435057e-02	1.388641e-01	5.758330e-02	8.128084e-02
4300         	-1.184878e-02	2.435055e-02	1.388641e-01	5.758326e-02	8.128082e-02
4400         	-1.184877e-02	2.435055e-02	1.388640e-01	5.758325e-02	8.128078e-02
4500         	-1.184877e-02	2.435055e-02	1.388640e-01	5.758324e-02	8.128078e-02
4600         	-1.184876e-02	2.435055e-02	1.388640e-01	5.758324e-02	8.128077e-02
4700         	-1.184876e-02	2.435055e-02	1.388640e-01	5.758324e-02	8.128076e-02
4800         	-1.184876e-02	2.435054e-02	1.388640e-01	5.758323e-02	8.128075e-02
4900         	-1.184876e-02	2.435055e-02	1.388640e-01	5.758324e-02	8.128076e-02
5000         	-1.184878e-02	2.435053e-02	1.388640e-01	5.758322e-02	8.128078e-02
5100         	-1.184876e-02	2.435053e-02	1.388639e-01	5.758320e-02	8.128073e-02
5200         	-1.184876e-02	2.435055e-02	1.388640e-01	5.758324e-02	8.128075e-02
5300         	-1.184876e-02	2.435055e-02	1.388640e-01	5.758324e-02	8.128076e-02
5400         	-1.184876e-02	2.435055e-02	1.388640e-01	5.758323e-02	8.128075e-02
5500         	-1.184876e-02	2.435054e-02	1.388640e-01	5.758323e-02	8.128074e-02
5600         	-1.184876e-02	2.435055e-02	1.388640e-01	5.758324e-02	8.128075e-02
5700         	-1.184876e-02	2.435055e-02	1.388640e-01	5.758323e-02	8.128075e-02
5800         	-1.184876e-02	2.435055e-02	1.388640e-01	5.758324e-02	8.128075e-02
5900         	-1.184876e-02	2.435055e-02	1.388640e-01	5.758323e-02	8.128075e-02
6000         	-1.184875e-02	2.435055e-02	1.388640e-01	5.758323e-02	8.128073e-02
6100         	-1.184876e-02	2.435054e-02	1.388640e-01	5.758323e-02	8.128075e-02
6200         	-1.184876e-02	2.435055e-02	1.388640e-01	5.758324e-02	8.128075e-02
6300         	-1.184876e-02	2.435052e-02	1.388639e-01	5.758318e-02	8.128069e-02
6400         	-1.184876e-02	2.435054e-02	1.388640e-01	5.758323e-02	8.128075e-02
6500         	-1.184875e-02	2.435055e-02	1.388640e-01	5.758323e-02	8.128074e-02
6600         	-1.184876e-02	2.435055e-02	1.388640e-01	5.758324e-02	8.128075e-02
6700         	-1.184876e-02	2.435056e-02	1.388640e-01	5.758325e-02	8.128077e-02
6800         	-1.184876e-02	2.435055e-02	1.388640e-01	5.758323e-02	8.128076e-02
6900         	-1.184876e-02	2.435054e-02	1.388640e-01	5.758322e-02	8.128074e-02
7000         	-1.184876e-02	2.435055e-02	1.388640e-01	5.758323e-02	8.128075e-02
7100         	-1.184876e-02	2.435055e-02	1.388640e-01	5.758323e-02	8.128075e-02
7200         	-1.184876e-02	2.435055e-02	1.388640e-01	5.758323e-02	8.128075e-02
