# Forces     
# CofR       : (0.000000e+00 0.000000e+00 0.000000e+00)
# Time       forces(pressure viscous porous)	moments(pressure viscous porous)
100          	((-3.708512e-02 4.207003e+00 -5.935533e-20) (7.450496e-02 3.216472e-03 -5.804987e-23) (0.000000e+00 0.000000e+00 0.000000e+00)) ((-2.208676e+00 -1.946969e-02 1.465176e+00) (-1.688648e-03 3.911510e-02 -8.252187e-04) (0.000000e+00 0.000000e+00 0.000000e+00))
200          	((-1.327226e-01 4.441350e+00 -9.361787e-20) (6.257482e-02 4.751253e-03 -4.059033e-23) (0.000000e+00 0.000000e+00 0.000000e+00)) ((-2.331709e+00 -6.967937e-02 1.458704e+00) (-2.494408e-03 3.285178e-02 -2.271454e-04) (0.000000e+00 0.000000e+00 0.000000e+00))
300          	((-1.594730e-01 4.370007e+00 -9.559715e-20) (6.162942e-02 5.233925e-03 -3.887927e-23) (0.000000e+00 0.000000e+00 0.000000e+00)) ((-2.294254e+00 -8.372331e-02 1.389681e+00) (-2.747810e-03 3.235544e-02 -8.617219e-05) (0.000000e+00 0.000000e+00 0.000000e+00))
400          	((-1.703470e-01 4.329963e+00 -9.485635e-20) (6.210505e-02 5.271359e-03 -3.958161e-23) (0.000000e+00 0.000000e+00 0.000000e+00)) ((-2.273231e+00 -8.943220e-02 1.346112e+00) (-2.767463e-03 3.260515e-02 -1.757839e-04) (0.000000e+00 0.000000e+00 0.000000e+00))
500          	((-1.774704e-01 4.310605e+00 -9.392824e-20) (6.266837e-02 5.109003e-03 -3.942350e-23) (0.000000e+00 0.000000e+00 0.000000e+00)) ((-2.263068e+00 -9.317195e-02 1.314519e+00) (-2.682226e-03 3.290089e-02 -3.882976e-04) (0.000000e+00 0.000000e+00 0.000000e+00))
600          	((-1.844109e-01 4.430433e+00 -9.512654e-20) (6.313259e-02 4.978371e-03 -3.870699e-23) (0.000000e+00 0.000000e+00 0.000000e+00)) ((-2.325977e+00 -9.681572e-02 1.366530e+00) (-2.613645e-03 3.314461e-02 -5.657280e-04) (0.000000e+00 0.000000e+00 0.000000e+00))
700          	((-1.947169e-01 4.591852e+00 -1.008710e-19) (6.345144e-02 4.961540e-03 -3.785450e-23) (0.000000e+00 0.000000e+00 0.000000e+00)) ((-2.410722e+00 -1.022264e-01 1.436292e+00) (-2.604809e-03 3.331201e-02 -6.656555e-04) (0.000000e+00 0.000000e+00 0.000000e+00))
800          	((-2.040426e-01 4.705453e+00 -1.065081e-19) (6.362471e-02 4.994225e-03 -3.734328e-23) (0.000000e+00 0.000000e+00 0.000000e+00)) ((-2.470363e+00 -1.071224e-01 1.481991e+00) (-2.621968e-03 3.340297e-02 -7.165564e-04) (0.000000e+00 0.000000e+00 0.000000e+00))
900          	((-2.103935e-01 4.772186e+00 -1.102936e-19) (6.369663e-02 5.028829e-03 -3.710329e-23) (0.000000e+00 0.000000e+00 0.000000e+00)) ((-2.505397e+00 -1.104566e-01 1.507248e+00) (-2.640135e-03 3.344073e-02 -7.441008e-04) (0.000000e+00 0.000000e+00 0.000000e+00))
1000         	((-2.143683e-01 4.809776e+00 -1.125700e-19) (6.371505e-02 5.050898e-03 -3.700245e-23) (0.000000e+00 0.000000e+00 0.000000e+00)) ((-2.525132e+00 -1.125433e-01 1.520475e+00) (-2.651722e-03 3.345040e-02 -7.631944e-04) (0.000000e+00 0.000000e+00 0.000000e+00))
1100         	((-2.168733e-01 4.831172e+00 -1.138808e-19) (6.371619e-02 5.059840e-03 -3.693555e-23) (0.000000e+00 0.000000e+00 0.000000e+00)) ((-2.536365e+00 -1.138585e-01 1.527311e+00) (-2.656416e-03 3.345100e-02 -7.800007e-04) (0.000000e+00 0.000000e+00 0.000000e+00))
1200         	((-2.184961e-01 4.845713e+00 -1.146732e-19) (6.371802e-02 5.061323e-03 -3.687932e-23) (0.000000e+00 0.000000e+00 0.000000e+00)) ((-2.543999e+00 -1.147104e-01 1.532040e+00) (-2.657194e-03 3.345196e-02 -7.947174e-04) (0.000000e+00 0.000000e+00 0.000000e+00))
1300         	((-2.196567e-01 4.857632e+00 -1.152565e-19) (6.372191e-02 5.061159e-03 -3.683082e-23) (0.000000e+00 0.000000e+00 0.000000e+00)) ((-2.550257e+00 -1.153197e-01 1.536278e+00) (-2.657109e-03 3.345400e-02 -8.059575e-04) (0.000000e+00 0.000000e+00 0.000000e+00))
1400         	((-2.205496e-01 4.867367e+00 -1.157308e-19) (6.372652e-02 5.061531e-03 -3.679869e-23) (0.000000e+00 0.000000e+00 0.000000e+00)) ((-2.555367e+00 -1.157885e-01 1.539889e+00) (-2.657304e-03 3.345642e-02 -8.139767e-04) (0.000000e+00 0.000000e+00 0.000000e+00))
1500         	((-2.212288e-01 4.874742e+00 -1.161042e-19) (6.372994e-02 5.062508e-03 -3.677476e-23) (0.000000e+00 0.000000e+00 0.000000e+00)) ((-2.559240e+00 -1.161451e-01 1.542643e+00) (-2.657817e-03 3.345822e-02 -8.194003e-04) (0.000000e+00 0.000000e+00 0.000000e+00))
1600         	((-2.217246e-01 4.879995e+00 -1.163799e-19) (6.373170e-02 5.063671e-03 -3.675907e-23) (0.000000e+00 0.000000e+00 0.000000e+00)) ((-2.561997e+00 -1.164054e-01 1.544588e+00) (-2.658427e-03 3.345914e-02 -8.229798e-04) (0.000000e+00 0.000000e+00 0.000000e+00))
1700         	((-2.220761e-01 4.883587e+00 -1.165742e-19) (6.373247e-02 5.064602e-03 -3.675047e-23) (0.000000e+00 0.000000e+00 0.000000e+00)) ((-2.563883e+00 -1.165899e-01 1.545893e+00) (-2.658916e-03 3.345955e-02 -8.254129e-04) (0.000000e+00 0.000000e+00 0.000000e+00))
1800         	((-2.223196e-01 4.886023e+00 -1.167062e-19) (6.373290e-02 5.065211e-03 -3.674336e-23) (0.000000e+00 0.000000e+00 0.000000e+00)) ((-2.565162e+00 -1.167178e-01 1.546763e+00) (-2.659236e-03 3.345977e-02 -8.271712e-04) (0.000000e+00 0.000000e+00 0.000000e+00))
1900         	((-2.224899e-01 4.887710e+00 -1.167976e-19) (6.373296e-02 5.065572e-03 -3.673743e-23) (0.000000e+00 0.000000e+00 0.000000e+00)) ((-2.566048e+00 -1.168072e-01 1.547362e+00) (-2.659425e-03 3.345980e-02 -8.284332e-04) (0.000000e+00 0.000000e+00 0.000000e+00))
2000         	((-2.225982e-01 4.888895e+00 -1.168566e-19) (6.373321e-02 5.065718e-03 -3.673541e-23) (0.000000e+00 0.000000e+00 0.000000e+00)) ((-2.566670e+00 -1.168641e-01 1.547803e+00) (-2.659502e-03 3.345994e-02 -8.293977e-04) (0.000000e+00 0.000000e+00 0.000000e+00))
2100         	((-2.226794e-01 4.889721e+00 -1.168991e-19) (6.373319e-02 5.065789e-03 -3.672996e-23) (0.000000e+00 0.000000e+00 0.000000e+00)) ((-2.567104e+00 -1.169067e-01 1.548098e+00) (-2.659539e-03 3.345992e-02 -8.299995e-04) (0.000000e+00 0.000000e+00 0.000000e+00))
2200         	((-2.227406e-01 4.890295e+00 -1.169317e-19) (6.373324e-02 5.065897e-03 -3.672819e-23) (0.000000e+00 0.000000e+00 0.000000e+00)) ((-2.567405e+00 -1.169388e-01 1.548294e+00) (-2.659596e-03 3.345995e-02 -8.304360e-04) (0.000000e+00 0.000000e+00 0.000000e+00))
2300         	((-2.227786e-01 4.890685e+00 -1.169526e-19) (6.373350e-02 5.066015e-03 -3.672974e-23) (0.000000e+00 0.000000e+00 0.000000e+00)) ((-2.567609e+00 -1.169588e-01 1.548435e+00) (-2.659658e-03 3.346009e-02 -8.308029e-04) (0.000000e+00 0.000000e+00 0.000000e+00))
2400         	((-2.228076e-01 4.890978e+00 -1.169686e-19) (6.373370e-02 5.066058e-03 -3.672646e-23) (0.000000e+00 0.000000e+00 0.000000e+00)) ((-2.567763e+00 -1.169740e-01 1.548541e+00) (-2.659681e-03 3.346019e-02 -8.309956e-04) (0.000000e+00 0.000000e+00 0.000000e+00))
2500         	((-2.228299e-01 4.891198e+00 -1.169810e-19) (6.373370e-02 5.066121e-03 -3.672667e-23) (0.000000e+00 0.000000e+00 0.000000e+00)) ((-2.567879e+00 -1.169857e-01 1.548621e+00) (-2.659713e-03 3.346019e-02 -8.311363e-04) (0.000000e+00 0.000000e+00 0.000000e+00))
2600         	((-2.228473e-01 4.891375e+00 -1.169904e-19) (6.373358e-02 5.066170e-03 -3.672488e-23) (0.000000e+00 0.000000e+00 0.000000e+00)) ((-2.567972e+00 -1.169948e-01 1.548685e+00) (-2.659739e-03 3.346013e-02 -8.311930e-04) (0.000000e+00 0.000000e+00 0.000000e+00))
2700         	((-2.228611e-01 4.891504e+00 -1.169978e-19) (6.373353e-02 5.066221e-03 -3.672562e-23) (0.000000e+00 0.000000e+00 0.000000e+00)) ((-2.568040e+00 -1.170021e-01 1.548731e+00) (-2.659766e-03 3.346010e-02 -8.312937e-04) (0.000000e+00 0.000000e+00 0.000000e+00))
2800         	((-2.228714e-01 4.891603e+00 -1.170033e-19) (6.373344e-02 5.066249e-03 -3.672446e-23) (0.000000e+00 0.000000e+00 0.000000e+00)) ((-2.568092e+00 -1.170075e-01 1.548766e+00) (-2.659781e-03 3.346006e-02 -8.313290e-04) (0.000000e+00 0.000000e+00 0.000000e+00))
2900         	((-2.228798e-01 4.891691e+00 -1.170076e-19) (6.373337e-02 5.066268e-03 -3.672361e-23) (0.000000e+00 0.000000e+00 0.000000e+00)) ((-2.568138e+00 -1.170119e-01 1.548797e+00) (-2.659791e-03 3.346002e-02 -8.313596e-04) (0.000000e+00 0.000000e+00 0.000000e+00))
3000         	((-2.228856e-01 4.891754e+00 -1.170108e-19) (6.373352e-02 5.066289e-03 -3.672583e-23) (0.000000e+00 0.000000e+00 0.000000e+00)) ((-2.568171e+00 -1.170149e-01 1.548820e+00) (-2.659802e-03 3.346010e-02 -8.315090e-04) (0.000000e+00 0.000000e+00 0.000000e+00))
3100         	((-2.228910e-01 4.891807e+00 -1.170136e-19) (6.373360e-02 5.066286e-03 -3.672525e-23) (0.000000e+00 0.000000e+00 0.000000e+00)) ((-2.568199e+00 -1.170178e-01 1.548839e+00) (-2.659800e-03 3.346014e-02 -8.315468e-04) (0.000000e+00 0.000000e+00 0.000000e+00))
3200         	((-2.228951e-01 4.891849e+00 -1.170158e-19) (6.373361e-02 5.066288e-03 -3.672479e-23) (0.000000e+00 0.000000e+00 0.000000e+00)) ((-2.568221e+00 -1.170199e-01 1.548854e+00) (-2.659801e-03 3.346015e-02 -8.315699e-04) (0.000000e+00 0.000000e+00 0.000000e+00))
3300         	((-2.228982e-01 4.891883e+00 -1.170176e-19) (6.373361e-02 5.066292e-03 -3.672444e-23) (0.000000e+00 0.000000e+00 0.000000e+00)) ((-2.568238e+00 -1.170216e-01 1.548866e+00) (-2.659803e-03 3.346015e-02 -8.315857e-04) (0.000000e+00 0.000000e+00 0.000000e+00))
3400         	((-2.229010e-01 4.891911e+00 -1.170190e-19) (6.373360e-02 5.066297e-03 -3.672415e-23) (0.000000e+00 0.000000e+00 0.000000e+00)) ((-2.568253e+00 -1.170230e-01 1.548877e+00) (-2.659806e-03 3.346014e-02 -8.315969e-04) (0.000000e+00 0.000000e+00 0.000000e+00))
3500         	((-2.229029e-01 4.891931e+00 -1.170201e-19) (6.373358e-02 5.066301e-03 -3.672392e-23) (0.000000e+00 0.000000e+00 0.000000e+00)) ((-2.568264e+00 -1.170240e-01 1.548884e+00) (-2.659808e-03 3.346013e-02 -8.316051e-04) (0.000000e+00 0.000000e+00 0.000000e+00))
3600         	((-2.229048e-01 4.891949e+00 -1.170210e-19) (6.373357e-02 5.066305e-03 -3.672375e-23) (0.000000e+00 0.000000e+00 0.000000e+00)) ((-2.568273e+00 -1.170250e-01 1.548890e+00) (-2.659810e-03 3.346012e-02 -8.316110e-04) (0.000000e+00 0.000000e+00 0.000000e+00))
