/*--------------------------------*- C++ -*----------------------------------*\
| =========                 |                                                 |
| \\      /  F ield         | OpenFOAM: The Open Source CFD Toolbox           |
|  \\    /   O peration     | Version:  5.x                                   |
|   \\  /    A nd           | Web:      www.OpenFOAM.org                      |
|    \\/     M anipulation  |                                                 |
\*---------------------------------------------------------------------------*/
FoamFile
{
    version     2.0;
    format      ascii;
    class       volScalarField;
    location    "100";
    object      p;
}
// * * * * * * * * * * * * * * * * * * * * * * * * * * * * * * * * * * * * * //

dimensions      [0 2 -2 0 0 0 0];

internalField   nonuniform List<scalar> 
6584
(
33.872
32.9089
32.1128
31.8236
31.9581
32.6529
33.8845
35.6907
37.7239
39.7605
40.7583
39.5839
35.3631
28.1805
19.0975
9.48626
0.449776
-7.65081
-14.5868
-20.4624
-25.3655
-29.5356
-32.9079
-35.9963
33.5715
32.6932
31.8371
31.5339
31.6217
32.3104
33.5694
35.5398
37.8369
40.3473
41.8347
41.0242
36.7591
29.1141
19.4558
9.24215
-0.110574
-8.34608
-15.264
-21.074
-25.8745
-29.9938
-33.2578
-36.447
32.9232
32.0667
31.0982
30.7138
30.6807
31.3226
32.6483
35.0699
37.9351
41.035
45.0849
46.4502
43.1915
34.815
23.3777
8.26297
-1.83036
-10.3711
-17.1932
-22.7654
-27.2819
-31.196
-34.2392
-37.4107
32.0722
31.1508
30.016
29.4587
29.2013
29.6595
30.9947
33.8499
38.3565
43.2155
50.4902
55.4604
53.1008
41.5506
25.7971
10.8794
-4.89347
-13.7456
-20.2618
-25.3441
-29.3829
-32.9211
-35.6471
-38.6551
31.0844
30.0157
28.654
27.7962
27.1582
27.1542
28.1594
31.0087
35.4187
44.4873
56.689
69.166
69.2289
50.6297
26.4477
7.0157
-6.42103
-19.1057
-24.7464
-28.8085
-32.0998
-35.0515
-37.3601
-40.0663
30.0169
28.7211
27.0714
25.7624
24.5352
23.5493
23.6639
25.1133
30.7144
40.4921
58.5985
91.1155
105.725
69.9064
22.3217
-2.57303
-15.8061
-26.2512
-30.4556
-33.0305
-35.3075
-37.4644
-39.2634
-41.537
28.9508
27.365
25.3909
23.5154
21.5513
19.2618
17.9063
17.9843
19.288
26.0283
48.6129
108.05
198.027
78.5986
9.48711
-22.1111
-29.8999
-35.665
-37.2347
-37.7802
-38.7755
-39.961
-41.1883
-42.9249
27.9767
26.0725
23.7822
21.3049
18.535
14.8038
11.2657
9.07361
3.47222
-1.83663
1.33551
30.3624
2.89687
-45.6832
-53.8549
-48.9413
-46.3517
-44.381
-42.5671
-42.1335
-42.2717
-42.9269
-44.0736
27.1769
24.9737
22.4321
19.4375
15.9621
11.0128
5.31744
0.230893
-12.682
-33.9614
-65.5581
-146.627
-220.613
-126.285
-89.6891
-68.569
-56.1544
-50.5734
-46.6231
-44.8884
-44.0839
-44.258
-44.8367
26.6095
24.1767
21.5045
18.2048
14.3389
8.83664
1.9044
-5.20196
-21.7666
-50.8704
-99.1427
-209.279
-334.37
-179.327
-112.586
-81.6617
-62.357
-54.321
-49.1225
-46.5496
-45.1086
-44.9862
-45.1022
26.2945
23.7374
21.0817
17.7567
13.9274
8.71841
1.94188
-5.40029
-20.1819
-44.8239
-85.146
-163.688
-307.374
-178.196
-112.919
-83.5338
-63.1831
-54.7357
-49.5594
-46.809
-45.1716
-44.9933
-44.8173
26.2087
23.6409
21.1327
18.0357
14.6181
10.3648
4.93234
-0.986717
-10.1445
-22.6419
-40.8407
-63.6187
-197.76
-134.243
-93.6585
-74.6919
-58.7987
-51.9423
-47.9508
-45.6706
-44.2636
-44.2707
-44
26.2934
23.8094
21.5281
18.8112
16.0097
12.9594
9.39025
5.65794
2.6584
2.26091
5.37945
28.1494
-69.0696
-75.3268
-65.775
-59.752
-51.0105
-46.9432
-44.7652
-43.4172
-42.5602
-42.9173
-42.732
26.4735
24.1317
22.0953
19.791
17.6188
15.6396
13.8099
13.4869
12.9039
19.5236
31.6323
72.4982
163.315
14.4244
-28.4903
-40.493
-44.1715
-42.1725
-41.0655
-40.7182
-40.4803
-40.3133
-41.1037
-41.1377
26.6766
24.4974
22.6729
20.718
19.0346
17.7504
16.9469
17.4782
18.7045
25.6092
37.3871
58.3354
64.7213
27.4985
-7.82423
-23.6361
-30.7784
-33.9815
-35.3716
-36.4933
-37.2886
-37.792
-39.0192
-39.3443
26.8464
24.821
23.1498
21.4435
20.0663
19.1484
18.7513
19.7527
21.0018
25.387
32.2057
40.2978
38.2676
16.5456
-0.13338
-14.3051
-23.6853
-27.6851
-30.5031
-32.556
-34.1687
-35.2464
-36.8499
-37.491
26.9474
25.0504
23.4706
21.9144
20.6826
19.8827
19.5257
20.2912
22.0231
22.6251
26.4785
28.9202
23.7121
12.178
0.471833
-9.4404
-18.1856
-22.8871
-26.5081
-29.1137
-31.3064
-32.8094
-34.7128
-35.6545
26.963
25.1627
23.6209
22.1311
20.926
20.0405
19.5463
19.4035
20.8577
19.5897
22.096
19.4639
15.8352
7.02497
-3.34125
-7.52568
-14.6877
-19.4028
-23.359
-26.2265
-28.7887
-30.5836
-32.6962
-33.8999
26.8911
25.1563
23.6141
22.1296
20.8856
19.8053
19.1426
18.178
18.9485
16.222
18.3359
13.9044
9.61401
5.46085
-3.8829
-6.6122
-13.2098
-17.0427
-21.011
-23.8827
-26.6426
-28.6126
-30.8548
-32.273
26.7394
25.0433
23.4782
21.9625
20.6566
19.3587
18.5447
17.0184
17.2921
14.2878
15.0111
11.5302
7.95485
4.07529
-3.3673
-6.01618
-12.0889
-15.292
-19.2291
-21.9832
-24.8367
-26.8957
-29.2086
-30.7931
26.52
24.8418
23.2433
21.6774
20.3049
18.8051
17.8537
15.9535
15.8069
12.7278
12.4519
9.12739
6.04048
2.8395
-3.24412
-5.68688
-11.1871
-13.9714
-17.8391
-20.4353
-23.3231
-25.4142
-27.7567
-29.4643
26.2463
24.5708
22.9359
21.3127
19.8758
18.205
17.1276
14.9836
14.487
11.4007
10.6532
7.38832
4.56261
1.82425
-3.36335
-5.57067
-10.5441
-13.0013
-16.75
-19.1773
-22.0583
-24.1439
-26.4886
-28.2823
25.9312
24.2483
22.5782
20.8989
19.4032
17.5979
16.4085
14.1176
13.3506
10.3094
9.26571
6.16183
3.5149
1.03296
-3.50907
-5.54333
-10.0779
-12.2822
-15.8895
-18.1557
-21.0021
-23.0592
-25.3881
-27.238
25.5863
23.89
22.1881
20.4589
18.9109
17.0068
15.7198
13.3515
12.3745
9.41211
8.15417
5.21971
2.70386
0.401051
-3.65081
-5.55751
-9.72579
-11.7387
-15.2001
-17.3231
-20.1184
-22.1348
-24.4371
-26.3195
25.221
23.509
21.7794
20.0089
18.415
16.4434
15.071
12.675
11.5309
8.67399
7.25863
4.48393
2.05096
-0.114296
-3.78762
-5.59611
-9.45553
-11.3234
-14.6414
-16.6421
-19.3766
-21.347
-23.6166
-25.514
24.843
23.1152
21.3621
19.5598
17.9252
15.9131
14.4651
12.0755
10.7941
8.04809
6.51318
3.88691
1.5124
-0.530226
-3.90847
-5.64489
-9.24568
-11.0042
-14.1852
-16.0834
-18.7515
-20.6754
-22.9093
-24.8089
24.4582
22.7164
20.9434
19.1192
17.4481
15.417
13.9013
11.5417
10.1464
7.5103
5.89121
3.39422
1.08688
-0.85519
-4.01197
-5.69838
-9.08241
-10.7584
-13.8096
-15.6235
-18.2238
-20.1036
-22.3006
-24.193
24.0714
22.3183
20.5285
18.691
16.9868
14.9538
13.3768
11.0647
9.57529
7.04994
5.36892
2.99373
0.744076
-1.14494
-4.12587
-5.76026
-8.95304
-10.5652
-13.4952
-15.242
-17.7742
-19.614
-21.7744
-23.6539
23.686
21.9248
20.1205
18.2774
16.5433
14.5214
12.8892
10.6345
9.06495
6.65081
4.91827
2.65384
0.44739
-1.3914
-4.22585
-5.82019
-8.85016
-10.4139
-13.2309
-14.9239
-17.3889
-19.1933
-21.3181
-23.1816
23.305
21.5388
19.722
17.8796
16.118
14.1164
12.435
10.2404
8.60095
6.29519
4.52129
2.36044
0.188485
-1.60113
-4.31487
-5.87892
-8.76823
-10.2951
-13.0065
-14.6566
-17.0562
-18.8301
-20.9206
-22.7669
22.9306
21.162
19.3345
17.4977
15.7101
13.7354
12.0082
9.87492
8.17484
5.97248
4.16694
2.10515
-0.0366447
-1.78374
-4.39865
-5.93972
-8.70374
-10.2018
-12.8134
-14.4303
-16.7663
-18.5142
-20.572
-22.4012
22.5647
20.7955
18.959
17.1304
15.3202
13.3724
11.6026
9.52811
7.77436
5.66972
3.84581
1.88198
-0.226208
-1.94507
-4.48152
-6.00763
-8.65623
-10.1307
-12.6452
-14.2366
-16.5098
-18.237
-20.2635
-22.0768
22.2084
20.4387
18.5956
16.7764
14.9475
13.0258
11.2202
9.19748
7.39681
5.37995
3.55114
1.68295
-0.382951
-2.09494
-4.56376
-6.08455
-8.61894
-10.0762
-12.4929
-14.0684
-16.2783
-17.991
-19.987
-21.7873
21.8652
20.0947
18.2477
16.4375
14.5919
12.6934
10.8508
8.84879
6.99415
5.05426
3.26906
1.52706
-0.432562
-2.22354
-4.675
-6.21168
-8.61749
-10.0436
-12.3506
-13.9189
-16.0616
-17.7684
-19.734
-21.526
21.5238
19.7442
17.8995
16.0926
14.2443
12.3728
10.5231
8.56843
6.6928
4.79893
3.01824
1.33859
-0.555804
-2.40335
-4.72676
-6.29415
-8.53981
-10.009
-12.1917
-13.7915
-15.8534
-17.5719
-19.5016
-21.2917
21.2414
19.4652
17.627
15.8351
13.9808
12.1221
10.1959
7.98434
5.85084
3.94486
2.5839
1.54963
0.478657
-2.45718
-5.31665
-6.92161
-8.84495
-10.011
-12.0193
-13.6368
-15.6168
-17.3618
-19.2589
-21.0627
-130.942
-213.66
14.1032
-207.506
-356.761
-240.359
-174.101
-342.145
-364.371
-76.5464
-225.449
-330.242
18.5307
-81.2751
-207.476
71.436
184.07
177.717
22.5481
-64.2967
52.6194
196.951
42.9304
100.633
-50.5205
-114.309
24.3467
-143.695
125.335
-196.91
-119.65
-43.5563
-95.3743
-187.58
-128.721
-182.94
-266.056
-221.003
-434.593
-344.958
-327.61
-195.969
-143.31
-92.6413
-160.841
-189.321
-203.993
-282.5
-295.213
-490.06
-493.286
-317.123
-207.725
-205.311
-53.1722
-73.5771
-151.43
-128.521
-154.94
-216.955
-342.428
-425.959
-213.451
-161.855
-200.388
-162.474
-246.363
-84.5957
-91.661
-145.133
29.359
-52.2545
63.8857
73.3522
166.714
72.4846
41.4301
27.0572
-212.412
-120.519
-70.9944
-133.571
-228.917
89.0661
-115.378
-337.335
-168.118
-122.197
-161.012
-327.391
-293.686
-270.747
-191.42
-279.911
-302.725
-237.177
-278.928
-488.129
-439.171
-320.238
-425.006
-484.478
-334.358
-420.867
-303.85
-224.944
-276.558
-198.506
-286.459
-230.294
-302.341
-290.373
-430.01
-486.594
-367.284
-485.545
-421.086
-487.879
-488.585
-370.937
-150.554
-83.5894
-224.802
-160.158
-252.379
-336.839
-273.105
-334.225
-251.994
-416.48
-339.848
-288.394
-5.54922
42.8959
-74.3354
-13.3718
-64.6573
-150.432
-240.745
-160.808
-152.987
98.1139
118.033
48.6578
94.236
84.6627
37.535
-47.0667
-101.134
79.5264
-19.8164
275.744
-4.9766
14.1277
-61.6913
-25.8228
-15.5434
-74.3781
8.16254
-46.6818
9.05595
-31.4804
-74.349
175.353
-83.2857
106.166
-133.118
-87.6994
-83.2522
-145.883
-115.78
-120.652
-82.3788
33.819
56.8063
-77.0594
-39.7645
-53.8113
-103.516
-134.953
-149.137
-67.1352
60.1692
90.3714
-55.3817
19.594
-17.6752
319.687
202.496
119.131
156.105
220.159
324.501
-57.0333
-33.8385
-66.7013
250.634
-29.0706
5.85789
-400.216
-391.478
-501.825
-500.405
-379.839
-386.366
-197.138
-164.698
-203.834
67.3431
16.1978
-48.1113
5.41227
-14.9523
-210.665
-184.027
-252.624
-215.774
-255.728
-197.098
-204.734
-91.3594
-38.0363
-110.977
-200.041
-270.265
-260.896
-294.011
-294.223
-257.775
-259.504
-466.38
-465.359
-461.694
-394.56
-370.43
-417.472
-401.07
-464.158
-383.019
-320.371
-280.7
-361.803
-331.784
-389.371
-264.143
-259.327
-304.176
-302.205
-461.473
-463.946
-462.672
-407.047
-420.912
-381.773
-401.212
-459.488
-497.485
-428.718
-421.396
-424.393
-429.052
-498.169
-125.378
-122.374
-126.254
-163.824
-82.2087
-121.207
-112.672
-198.421
-168.129
-188.799
-292.746
-299.044
-380.877
-349.865
-374.543
-314.754
-341.219
-375.482
3.75881
30.9186
-47.0499
-40.7746
-76.9502
-2.79284
-35.8494
-38.3421
-34.6505
-0.690047
-101.542
-103.373
-55.0709
-159.497
-110.128
-114.001
-109.954
130.786
149.866
206.388
94.3833
123.972
207.365
114.292
72.4879
489.204
28.1089
56.4559
22.8411
52.6996
81.8917
47.7628
106.025
78.7232
88.0669
255.706
37.0908
-7.98952
-14.0043
51.5849
60.8959
254.775
158.591
150.258
64.9523
79.136
128.332
124.77
211.951
476.746
323.838
207.163
311.834
375.084
492.712
-250.6
-207.366
-225.952
-423.94
-369.415
-366.821
-293.987
-247.824
-242.013
-249.588
-251.159
-295.713
-497.351
-496.14
-358.605
-409.846
92.6716
76.1025
-2.99398
13.2864
56.1782
116.982
95.9194
110.04
-7.50997
-68.5554
164.227
-310.234
-337.726
-364.858
-240.146
-195.278
-129.807
-265.749
-213.308
-261.956
-286.206
-242.709
-250.671
-228.565
-241.909
-283.048
-287.614
-309.001
-299.749
-327.411
-326.015
-299.045
-297.131
-291.129
-270.49
-481.144
-449.758
-441.116
-413.086
-404.053
-452.159
-442.82
-477.203
-236.502
-224.432
-256.504
-277.898
-294.844
-311.545
-304.96
-332.24
-328.732
-315.359
-325.682
-296.332
-444.236
-478.212
-476.883
-447.194
-453.353
-413.374
-415.12
-437.017
-492.857
-460.09
-452.801
-457.126
-460.352
-494.95
-269.538
-277.322
-257.817
-342.789
-331.267
-321.879
-296.979
-277.507
-305.51
-238.678
-267.704
-285.742
16.5619
29.9234
1.50335
53.1131
33.8014
23.4335
144.448
154.873
69.6955
84.3056
60.2752
130.534
141.795
115.013
98.5091
92.3616
379.108
140.47
18.7775
-16.4128
-11.9742
17.7884
-21.2464
-24.316
46.6997
30.5489
244.398
-20.9606
8.05077
-105.296
-98.5223
43.0891
48.9764
43.4424
49.0479
41.4939
60.9026
51.7512
46.4065
-60.9031
-55.342
-75.0939
-82.3003
72.6722
77.7504
64.4872
84.1991
101.345
-129.39
-108.073
-30.7549
-188.104
-130.168
-152.719
-420.101
-373.026
-498.867
-500.026
-363.44
-404.524
-187.67
-186.541
-204.443
-162.29
-180.466
-180.813
-236.005
-254.448
-210.212
-228.941
45.9549
64.7974
84.634
25.996
56.1638
39.8328
62.8471
29.5946
-232.877
-202.947
-223.909
-166.463
-194.834
-225.018
-249.132
-259.836
-229.797
-245.261
-158.741
-119.465
-156.669
-176.592
-190.515
-309.061
-329.831
-302.745
-309.716
-259.309
-206.243
-301.276
-273.567
-223.142
-256.62
-298.6
-319.043
-312.798
-288.288
-315.822
-321.575
-310.042
-311.632
-330.37
-329.137
-321.028
-327.611
-299.023
-324.211
-319.6
-281.813
-292.087
-263.43
-277.379
-301.737
-307.415
-294.443
-301.077
-269.321
-289.73
-283.134
-480.277
-451.356
-428.916
-415.894
-446.473
-474.864
-441.583
-430.643
-276.954
-289.904
-273.469
-299.553
-286.262
-315.437
-304.16
-264.807
-246.635
-281.357
-269.138
-333.131
-332.051
-303.883
-334.654
-337.871
-331.278
-335.786
-329.005
-317.194
-335.113
-331.728
-299.282
-327.857
-331.863
-448.643
-472.021
-435.025
-442.801
-472.37
-443.931
-420.405
-430.515
-464.105
-459.8
-495.289
-496.475
-463.174
-462.625
-141.069
-141.721
-138.752
-123.641
-159.471
-144.054
-148.43
-98.8083
-97.1023
-84.3055
-118.471
-102.513
-104.878
-219.956
-204.528
-240.654
-225.193
-182.531
-179.292
-164.399
-199.652
-184.415
-189.373
-300.952
-284.164
-275.885
-284.392
-299.832
-259.947
-277.279
-304.739
-316.217
-324.881
-305.843
15.9831
21.5003
11.3014
38.5118
25.5243
19.8281
40.2474
-19.7197
5.97289
-14.8233
-138.882
-136.559
-156.076
-110.556
-130.369
-131.758
-130.621
-137.795
159.77
182.133
107.9
125.724
155.263
122.423
27.1624
-20.8505
21.2962
-4.95772
32.6143
65.7314
638.119
463.848
374.079
520.982
556.958
661.882
91.9944
182.459
133.533
-177.947
-202.771
-244.422
-430.393
-432.454
-437.33
-495.007
-493.654
-192.631
-172.608
-191.129
-426.897
-421.671
-421.118
-251.831
-233.439
-229.201
-181.053
-138.355
-170.862
-253.664
-240.399
-219.439
-195.561
-242.579
-211.43
-243.351
-269.261
-257.4
-484.109
-443.362
-447.789
-443.535
-469.785
-466.969
-481.429
-395.826
-387.394
-409.268
-248.81
-217.405
-200.605
-241.142
-255.794
-243.396
-434.63
-432.536
-429.327
-484.46
-482.969
-468.001
-470.579
-489.67
-474.548
-472.452
-473.414
-476.004
-491.848
-216.258
-222.907
-236.475
-401.504
-391.779
-402.772
-206.551
-197.685
-228.003
152.233
153.791
115.657
92.7296
75.3874
151.322
152.074
68.1623
99.7814
64.7375
-6.57451
14.4211
-115.89
-81.1773
-86.4662
-87.8109
-71.7322
-70.559
-75.861
-38.6402
-43.8562
-44.994
-101.806
-95.7852
-96.7632
98.8431
82.6424
76.535
212.569
326.488
283.648
-80.2121
-97.5061
-79.3152
-48.2245
-202.118
-182.864
-5.42797
71.2142
93.2123
-410.476
-414
-407.291
-384.309
-397.695
-404.093
-505.099
-500.578
-385.872
-379.871
-373.737
-393.166
-397.307
-391.754
-201.12
-205.884
-164.391
-170.256
-169.827
-210.691
-215.548
-222.996
-227.018
-209.479
-218.786
-244.849
-245.413
-251.038
-191.452
-201.179
-224.133
-272.027
-277.17
-255.287
-257.778
-255.881
-64.3707
-108.661
-143.869
-133.395
-125.489
-139.422
-184.776
-235.222
-223.895
-280.874
-272.685
-245.982
-280.981
-281.724
-469.854
-464.44
-355.169
-342.336
-363.609
-405.606
-378.115
-367.331
-248.451
-260.093
-272.444
-456.664
-465.55
-482.135
-481.64
-497.179
-499.412
-482.972
-482.464
-130.222
-131.485
-130.136
-124.785
-163.819
-159.025
-159.701
-203.279
-217.971
-207.938
-213.701
-208.959
-241.767
-238.26
-172.663
-173.489
-168.593
-204.601
-200.41
-371.198
-381.312
-396.377
-360.903
-352.547
-361.788
-55.9615
-54.713
-45.0686
-75.0736
-64.7578
-61.1923
-82.6407
-85.9178
-103.834
-60.5743
-74.2156
-75.8557
-154.265
-151.798
-158.199
-116.905
-108.168
-154.125
185.746
187.537
199.757
121.436
108.22
121.498
104.693
137.686
125.972
117.463
194.214
159.93
90.9792
109.905
92.3069
174.961
357.538
83.8252
54.4257
57.4967
192.144
192.786
220.668
69.7774
69.5466
64.8827
79.7126
74.518
74.3509
215.642
173.148
163.555
360.831
504.167
464.235
-428.011
-429.336
-427.039
-372.216
-373.989
-367.839
-386.701
-375.907
-497.69
-493.775
-362.854
-366.53
-349.591
-356.287
-415.363
-414.981
-409.335
85.5994
90.3833
97.755
79.6129
84.4476
79.3918
-346.325
-345.013
-336.11
-361.229
-353.352
-355.903
-481.364
-447.029
-449.178
-450.222
-478.944
-464.539
-462.203
-440.573
-435.706
-440.371
-483.8
-462.042
-465.319
-480.746
-477.914
-476.067
-490.916
-493.996
-478.076
-479.36
-338.255
-339.64
-343.945
-329.916
-334.584
-334.604
156.396
159.976
142.191
146.571
134.834
141.896
137.234
121.04
113.007
108.808
114.358
120.813
102.81
107.257
103.669
79.5895
56.1939
44.521
113.514
325.415
281.98
351.159
166.79
199.936
250.236
-2.568
-4.6539
-13.6796
13.7705
4.68079
6.91034
-36.6139
-37.5652
-45.1479
-22.3604
-30.4605
-29.493
59.2145
79.1002
20.2815
-75.4697
-106.46
-35.5993
-40.3889
-111.247
-93.3516
-91.8041
-97.9332
44.681
46.6077
38.1718
41.0014
44.0024
-59.9788
-65.2815
-66.3659
-42.4141
-37.2522
-47.9009
-49.9964
-48.6925
-54.6063
-73.7389
-67.1304
-68.1472
-65.1143
-72.2345
-51.8946
-58.5097
-89.7218
-88.7476
-81.387
89.5673
90.7983
85.1188
103.458
96.9053
95.2847
-137.126
-108.353
-103.916
-173.145
-181.272
-160.729
-414.612
-414.315
-420.122
-425.618
-395.379
-392.868
-406.262
-399.49
-502.5
-501.912
-378.369
-383.465
-370.047
-373.931
-368.322
-374.68
-370.054
-404.86
-400.816
-399.09
-391.218
-188.597
-195.538
-175.182
-176.13
-182.232
-242.928
-243.062
-235.723
-254.328
-249.916
-249.152
-216.182
-217.257
-211.603
-229.098
-222.714
-222.22
-221.22
35.9481
32.0266
22.5046
51.5534
40.2988
-224.379
-232.66
-239.728
-238.571
-228.945
-212.688
-222.125
-266.32
-268.266
-274.194
-270.45
-256.023
-255.448
-263.439
-162.95
-147.65
-159.305
-123.88
-196.892
-186.225
-178.386
-319.202
-303.361
-292.385
-325.998
-315.975
-328.654
-332.158
-320.037
-241.127
-242.941
-261.348
-225.149
-240.569
-224.743
-289.436
-274.185
-281.141
-285.309
-319.479
-322.208
-311.593
-314.239
-314.306
-313.127
-312.069
-329.367
-328.303
-322.24
-324.637
-287.113
-292.732
-286.919
-294.548
-293.904
-290.094
-267.104
-279.692
-277.4
-286.012
-282.708
-271.566
-283.64
-285.962
-303.072
-304.815
-303.779
-310.483
-307.343
-305.067
-296.986
-300.249
-297.061
-304.758
-304.967
-299.84
-474.363
-458.651
-295.646
-295.969
-298.29
-285.568
-291.594
-291.312
-311.401
-300.614
-303.791
-307.192
-259.297
-260.016
-266.277
-247.936
-253.387
-252.989
-276.987
-276.318
-280.317
-270.212
-272.995
-272.962
-335.308
-336.949
-334.056
-336.83
-323.994
-320.009
-332.575
-331.543
-452.033
-468.094
-496.967
-481.141
-479.668
-480.893
-482.2
-498.417
-135.159
-141.222
-135.741
-136.891
-154.724
-153.681
-147.447
-225.449
-219.093
-214.666
-219.919
-225.55
-235.593
-240.247
-243.506
-230.913
-235.512
-230.222
-235.269
-231.614
-184.294
-178.697
-177.444
-195.936
-189.546
-295.671
-292.043
-297.894
-280.185
-286.234
-290.369
-291.28
-295.873
-265.101
-263.888
-258.761
-271.013
-317.685
-317.348
-324.073
-303.812
-310.397
-311.467
17.8554
16.6741
20.4592
8.8046
12.9459
14.7693
34.8921
31.7712
35.0988
24.308
28.2113
29.8824
35.4601
-21.9053
-16.981
-32.1155
-26.8242
0.636873
-1.09822
3.86813
-11.781
-5.79677
-5.08801
-137.564
-144.76
-146.339
-123.708
-145.419
165.361
172.667
114.257
120.084
110.971
132.021
125.773
119.982
130.4
137.647
142.863
129.089
59.3312
77.4307
63.2995
84.8559
95.7649
71.631
94.6796
76.1446
61.8944
65.7153
39.9496
38.5735
34.5784
45.5364
49.1755
54.0945
91.6619
81.8209
111.854
178.859
106.707
179.536
104.819
82.3535
79.7367
28.5961
36.4537
16.6733
-0.845441
8.11519
13.7213
13.2094
40.3719
17.0311
43.0929
90.4782
104.237
168.831
150.552
282.282
209.646
167.692
80.4756
45.49
55.7266
-27.7108
-31.0409
-13.2257
-18.6758
-41.5604
0.456887
-16.0071
-19.9988
2.31959
5.61914
8.09112
38.0582
-83.4764
-79.0519
-26.7484
-107.055
-78.9934
-53.7458
-45.1894
-79.1456
-53.751
-78.4019
-97.9172
-82.5108
-160.607
-180.657
-165.658
-278.792
-217.377
-170.216
-171.28
-122.644
-103.144
-50.5762
-78.1257
-82.3732
-99.9557
-121.455
-121.447
-209.471
-233.694
-233.397
-340.168
-271.444
-260.269
-183.841
-138.803
-134.922
-34.9281
-46.2803
-72.0729
-75.8178
-88.3861
-100.496
-152.625
-165.687
-178.631
-271.736
-229.19
-251.364
-147.977
-123.135
-134.449
-9.73389
-6.02358
-36.0723
-50.729
-51.9457
-66.6792
-148.963
-135.43
-173.328
-90.0162
-88.0346
-106.898
12.181
23.2059
2.79489
-26.2373
-46.7966
-69.7488
-37.7518
-50.9925
-68.7492
23.6117
30.6568
26.7404
38.2993
57.2257
60.8688
72.4989
89.7323
105.487
124.721
112.678
125.15
28.4384
-2.08246
-21.3892
-15.0051
-24.8503
-36.2547
26.0834
31.8726
32.0426
35.5761
37.2408
53.268
43.8408
45.6111
69.5005
42.8633
29.2862
38.6859
17.1964
6.42691
0.463375
-2.14384
-11.8133
-17.0652
29.2052
30.4901
36.0487
34.5317
31.897
40.8229
27.7951
24.2646
26.789
14.1898
7.84329
7.51898
-148.436
-128.579
-112.987
-183.548
-204.668
-252.667
31.3404
-5.33206
-18.2177
-231.136
-226.985
-203.726
-346.756
-383.981
-400.902
-266.597
-305.122
-264.046
-190.925
-202.236
-183.384
-352.516
-389.151
-370.395
-404.631
-412.992
-369.422
-81.5936
-95.5462
-89.4868
-241.373
-262.362
-235.622
-362.829
-339.818
-317.103
-98.7928
-99.7141
-80.7052
-217.755
-197.645
-189.14
105.144
90.8437
57.9788
205.949
188.052
172.193
166.853
168.478
202.943
-61.2777
-42.2574
-47.7114
105.054
168.825
97.1201
745.267
623.918
625.724
166.352
197.657
277.729
762.25
787.477
64.5646
88.9534
64.9254
150.799
177.759
99.3369
-63.8798
-42.6382
-33.6197
-60.0278
-50.0469
-76.9074
7.77843
-20.9403
-39.5283
-110.682
-119.939
-177.649
150.382
106.747
88.7199
-154.821
-97.4688
-113.317
-94.1421
-98.7445
-130.878
-36.4374
-66.4334
-68.4977
-117.537
-109.635
-88.3076
-171.41
-132.927
-142.234
-100.064
-118.841
-163.506
-204.542
-193.538
-172.523
-261.28
-246.931
-252.062
-206.069
-214.3
-228.053
-353.49
-362.672
-352.524
-257.386
-226.815
-294.005
-182.082
-208.301
-224.788
-160.647
-186.784
-164.535
-110.476
-117.644
-97.6156
-181.611
-141.39
-132.165
-146.707
-146.382
-186.316
-227.339
-231.659
-207.545
-287.429
-269.709
-265.869
-277.615
-278.209
-296.231
-259.981
-267.889
-337.231
-211.076
-241.059
-235.831
-235.777
-241.232
-210.519
-60.0751
-74.7089
-64.9511
-108.646
-87.0806
-69.0134
-119.457
-104.152
-120.184
-138.188
-152.116
-140.767
-181.947
-164.233
-142.372
-208.699
-200.953
-209.4
-348.209
-354.713
-347.725
-186.295
-217.589
-258.082
-176.929
-196.444
-177.891
-226.101
-212.757
-190.063
-174.483
-179.896
-161.606
-248.566
-242.774
-240.966
-95.3618
-118.461
-132.823
-109.496
-115.978
-94.1231
-157.733
-136.573
-127.44
19.305
26.7366
37.6566
-49.6841
-36.5671
-39.7582
72.252
84.0134
68.8016
97.8134
88.7697
71.1419
142.916
120.755
126.735
61.3187
73.5795
94.7989
41.2164
63.5358
53.9366
70.9887
66.2578
40.7075
-203.007
-187.4
-197.22
-86.0562
-127.938
-168.295
-93.1209
-105.983
-80.4143
-152.906
-183.863
-157.342
57.2431
61.1421
100.941
-132.135
-108.459
-93.1238
-329.048
-337.297
-345.393
-176.213
-193.443
-185.209
-130.621
-167.612
-154.686
-190.122
-176.875
-150.257
-296.58
-281.377
-298.94
-291.641
-275.053
-276.677
-256.614
-260.979
-275.423
-198.528
-221.202
-213.682
-283.468
-289.449
-286.658
-312.006
-310.956
-300.841
-284.439
-281.927
-275.277
-354.211
-377.79
-334.552
-429.955
-424.437
-417.957
-356.976
-328.706
-313.626
-415.18
-408.943
-416.472
-285.157
-315.965
-345.96
-233.025
-224.238
-216.742
-261.205
-256.22
-270.214
-191.705
-212.326
-220.763
-284.441
-291.984
-295.582
-234.074
-238.223
-234.512
-304.156
-313.822
-312.766
-299.156
-301.999
-291.868
-407.44
-395.036
-361.027
-416.489
-418.817
-425.397
-371.656
-413.43
-410.699
-140.964
-142.528
-157.47
-84.7446
-94.4372
-93.0133
-217.868
-228.154
-229.957
-162.508
-177.566
-169.647
-257.744
-260.187
-254.445
-341.093
-335.556
-331.865
-297.309
-271.193
-257.428
-321.05
-312.356
-322.313
-247.317
-258.287
-263.39
-411.9
-408.196
-411.389
-332.518
-342.737
-355.881
-303.08
-331.357
-306.342
2.07032
4.69384
-3.12708
46.3074
39.7503
36.5441
-65.092
-65.1811
-75.0247
-11.2277
-19.6189
-21.4661
-77.0593
-75.7204
-62.7354
-155.383
-135.905
-138.217
-229.365
-225.418
-236.382
-156.228
-186.86
-195.607
-171.06
-177.912
-158.33
111.585
138.505
121.815
140.947
143.496
112.416
56.2241
60.3243
53.0223
69.563
107.942
114.12
-52.1103
-21.963
-21.0866
-30.297
-23.007
-71.8601
50.7387
13.9186
-3.18538
311.315
257.52
233.004
-16.0254
-14.9577
1.17661
-50.6013
-32.3876
-26.8997
-24.3836
-37.8728
-38.0993
-39.7322
-37.8231
-23.201
-69.5989
-53.267
-48.133
-0.130181
2.539
11.2666
-45.8342
-38.5163
-39.3876
-11.8742
-27.3497
-14.6922
130.344
140.876
194.263
-123.298
-93.6101
-56.2415
3.03129
-11.0357
50.8592
-107.301
-35.4641
-33.6863
-52.621
-46.6956
-89.1057
-109.947
-102.013
-84.5777
-133.942
-110.53
-118.757
-102.83
-109.769
-124.001
37.2572
39.5141
36.3467
58.4782
54.9821
53.0187
-60.9735
-60.1275
-53.0662
-138.704
-119.152
-116.919
-113.975
-113.445
-145.568
-76.4786
-102.667
-102.362
64.3996
66.0774
62.0726
93.2237
88.2529
85.3299
-19.9091
-35.7285
-56.837
1.8926
-15.9849
-8.88106
-32.0985
-24.4579
-8.09923
274.805
319.354
432.011
190.362
280.013
251.974
197.983
277.603
180.811
180.506
215.939
187.116
269.908
318.602
219.274
442.447
358.447
292.283
-27.9549
-99.0865
-73.1097
135.199
132.675
183.225
-15.9892
17.5901
8.5577
46.8027
57.9837
13.0633
-203.789
-186.004
-186.514
-210.998
-213.088
-208.079
59.7368
65.659
72.5358
19.7194
28.3952
24.6091
-26.0359
-33.1535
-46.9154
-4.99734
-19.1374
-18.4765
-27.3306
-23.379
-10.2039
-211.954
-191.337
-169.525
-208.911
-235.615
-218.005
-188.254
-170.761
-181.792
-72.5968
-94.472
-110.569
-66.9683
-79.4383
-50.6471
-282.391
-293.389
-282.625
-247.719
-259.324
-271.458
-302.172
-300.449
-291.564
-296.542
-305.015
-303.446
-265.385
-262.315
-253.174
-263.838
-270.753
-267.9
-447.348
-444.334
-458.612
-386.972
-404.904
-413.095
-388.32
-395.802
-378.866
-412.555
-433.204
-438.712
-420.303
-427.082
-407.278
-467.316
-453.074
-449.987
-373.057
-365.002
-376.281
-307.928
-325.258
-337.712
-297.711
-312.072
-294.914
-352.417
-370.165
-379.464
-349.395
-360.244
-342.632
-395.477
-385.665
-377.868
-267.929
-271.787
-266.704
-256.472
-259.697
-263.616
-314.54
-314.785
-303.552
-302.234
-312.482
-313.488
-448.644
-451.554
-465.451
-412.138
-433.341
-427.046
-444.028
-439.141
-416.981
-388.25
-404.586
-396.097
-420.047
-412.366
-395.105
-455.1
-441.998
-445.476
-427.109
-450.514
-452.56
-443.481
-447.473
-424.822
-426.82
-451.139
-448.151
-453.397
-453.001
-428.585
-123.691
-137.632
-131.449
-87.6666
-87.737
-82.623
-119.623
-114.463
-116.11
-102.792
-104.548
-114.738
-179.184
-182.833
-198.255
-295.299
-289.951
-287.521
-304.578
-306.701
-300.912
-377.142
-381.981
-386.173
-358.248
-369.559
-360.456
-387.531
-378.659
-366.702
-323.706
-332.507
-322.735
-351.364
-342.15
-332.671
-370.621
-366.395
-370.865
8.01111
9.9807
5.78717
33.1094
29.4288
27.276
-46.3062
-55.5928
-55.9683
-45.811
-46.8795
-41.7561
-77.6309
-72.4069
-71.7058
-16.5476
-17.4947
-8.81349
-35.6771
-26.473
-21.2364
-29.7863
-28.308
-37.2291
-29.5971
-28.3079
-33.4684
1.17646
-3.61493
-5.3091
-100.995
-88.1348
-89.191
-96.3553
-96.451
-103.4
-56.0214
-63.287
-62.1383
-110.071
-116.922
-117.267
-126.133
-125.574
-114.15
137.244
151.506
140.774
172.796
155.561
143.703
99.5607
103.311
98.0638
103.832
116.564
142.203
78.6559
85.2593
79.8332
49.4205
38.0692
45.415
15.5997
27.8062
43.3265
71.1556
62.0361
71.4313
40.3158
51.5146
59.1707
99.2536
108.292
116.375
83.6884
98.1693
89.822
112.362
102.085
87.8448
20.1844
16.6867
28.6617
-9.21715
4.06524
13.6062
-2.61708
0.985372
-11.4245
227.158
241.771
298.746
161.097
179.826
180.284
162.849
173.72
157.343
132.001
149.228
144.065
149.004
151.54
131.682
280.761
206.147
203.324
432.445
465.768
592.323
319.65
384.148
375.6
316.574
410.789
296.768
340.542
384.654
353.792
423.941
492.074
383.257
611.436
536.131
469.912
-235.611
-241.611
-256.227
-215.327
-228.166
-221.849
-238.706
-233.326
-218.881
-359.486
-370.94
-380.757
-275.352
-273.011
-291.264
-247.782
-261.936
-263.809
-255.34
-258.685
-243.312
-252.074
-266.244
-265.254
-265.573
-265.935
-249.916
-296.378
-277.926
-277.132
-365.581
-360.911
-353.73
2.69464
15.2161
8.62202
31.2267
22.5693
9.00672
46.5197
34.6712
43.2432
111.857
122.181
136.184
103.751
114.161
103.82
122.558
116.142
106.164
-16.58
21.3394
24.7289
19.1714
21.8691
-24.947
117.51
70.8939
53.3881
-321.043
-329.404
-321.275
-223.597
-201.01
-216.329
-173.061
-186.353
-208.312
-139.357
-163.806
-153.203
-249.873
-265.662
-281.994
-228.689
-248.129
-232.862
-282.058
-263.793
-244.443
-270.64
-273.162
-289.127
-247.215
-260.471
-257.521
-264.376
-262.319
-247.122
-234.812
-247.613
-243.011
-254.861
-251.112
-236.539
-279.468
-264.605
-267.948
-294.39
-291.866
-284.411
-306.373
-299.422
-301.268
-294.997
-297.275
-302.633
-326.644
-315.367
-316.203
-314.021
-314.857
-326.51
-301.096
-310.239
-309.043
-294.823
-290.503
-292.793
-286.275
-288.414
-292.809
-274.239
-279.95
-277.572
-432.602
-428.491
-434.857
-406.348
-416.648
-421.873
-448.025
-461.142
-464.08
-455.753
-458.719
-447.085
-234.109
-246.154
-250.709
-235.031
-240.524
-227.792
-263.653
-250.646
-244.749
-283.897
-287.69
-280.02
-299.909
-293.064
-289.677
-300.276
-296.886
-306.234
-314.955
-314.38
-303.525
-331.982
-319.329
-319.72
-317.208
-318.396
-330.372
-318.814
-306.063
-303.26
-311.723
-309.013
-322.318
-295.266
-304.957
-307.232
-448.514
-461.507
-458.72
-466.695
-464.43
-452.548
-425.994
-425.505
-409.47
-431.466
-425.443
-429.298
-456.705
-470.411
-472.49
-466.353
-468.82
-456.576
-457.471
-471.362
-469.398
-474.553
-473.442
-460.739
-272.316
-266.268
-263.939
-270.384
-267.561
-273.838
-255.906
-261.525
-263.751
-326.808
-330.006
-324.842
-291.262
-302.604
-307.784
-286.995
-293.374
-283.42
-312.907
-303.064
-296.368
-247.693
-253.277
-243.018
-273.466
-263.65
-258.137
-274.789
-269.409
-280.213
19.4973
12.2125
9.39066
17.6355
15.2255
22.7151
-0.46524
7.53
13.7874
46.3289