/*--------------------------------*- C++ -*----------------------------------*\
| =========                 |                                                 |
| \\      /  F ield         | OpenFOAM: The Open Source CFD Toolbox           |
|  \\    /   O peration     | Version:  5.x                                   |
|   \\  /    A nd           | Web:      www.OpenFOAM.org                      |
|    \\/     M anipulation  |                                                 |
\*---------------------------------------------------------------------------*/
FoamFile
{
    version     2.0;
    format      ascii;
    class       volScalarField;
    location    "100";
    object      p_rgh;
}
// * * * * * * * * * * * * * * * * * * * * * * * * * * * * * * * * * * * * * //

dimensions      [0 2 -2 0 0 0 0];

internalField   nonuniform List<scalar> 
6584
(
12.8784
13.7401
14.7694
16.3057
18.2656
20.7862
23.8436
27.4755
31.3341
35.1962
38.0195
38.6706
36.2753
30.9182
23.6607
15.875
8.66412
2.38921
-2.72086
-6.77026
-9.84707
-12.1912
-13.7379
-15.0018
12.5762
13.5201
14.488
16.0099
17.9229
20.4383
23.5255
27.3231
31.4461
35.7819
39.0947
40.1096
37.6701
31.8507
24.0179
15.6304
8.10446
1.69613
-3.39399
-7.37651
-10.3503
-12.6435
-14.0832
-15.4514
11.9272
12.8899
13.7422
15.1812
16.9729
19.4415
22.5976
26.8502
31.5428
36.0126
41.8878
45.0785
43.6452
37.0942
27.4827
14.6543
6.39195
-0.319655
-5.31392
-9.05927
-11.7501
-13.84
-15.0622
-16.4145
11.0757
11.973
12.6571
13.9204
15.4861
17.7696
20.935
25.623
31.9605
38.1921
47.292
54.0875
53.5533
43.8294
29.9081
16.8226
3.34313
-3.68186
-8.37243
-11.6298
-13.845
-15.5624
-16.4693
-17.6586
10.0879
10.8376
11.2943
12.2553
13.4378
15.2572
18.0892
22.7656
28.5561
39.46
53.4887
67.7919
69.6803
52.9163
30.5777
12.9804
1.37111
-9.03191
-12.8491
-15.0883
-16.559
-17.6917
-18.1819
-19.0697
9.02024
9.54266
9.71124
10.2205
10.812
11.6465
13.5831
16.4001
23.8282
35.4357
55.1545
89.5106
105.948
71.9853
26.4726
3.40522
-8.00487
-16.1703
-18.5526
-19.3073
-19.7655
-20.1041
-20.0849
-20.5403
7.95408
8.18632
8.03028
7.9729
7.82709
7.35611
7.82044
9.26524
12.3899
20.9505
45.1315
106.302
198.135
80.7018
13.4236
-16.1238
-22.0914
-25.579
-25.3288
-24.0557
-23.2329
-22.6003
-22.0096
-21.9282
6.98001
6.89376
6.42139
5.76209
4.8102
2.89703
1.17699
0.349813
-3.43102
-6.92
-2.15629
28.5751
4.91022
-41.7386
-47.8637
-41.1292
-36.2644
-32.4743
-28.842
-26.5904
-24.9107
-23.748
-23.0768
6.18014
5.79479
5.07115
3.89446
2.23697
-0.894337
-4.77174
-8.49487
-19.5872
-39.0458
-69.051
-148.418
-218.596
-122.34
-83.6994
-60.7591
-46.0696
-38.6679
-32.898
-29.3451
-26.7228
-25.079
-23.84
5.61271
4.99786
4.14349
2.66173
0.613718
-3.07063
-8.18492
-13.9275
-28.6704
-55.9531
-102.634
-211.069
-332.353
-175.385
-106.6
-73.8554
-52.2766
-42.419
-35.3991
-31.0066
-27.7474
-25.8072
-24.1054
5.29779
4.55869
3.72097
2.21389
0.202526
-3.1885
-8.14691
-14.1246
-27.0834
-49.9037
-88.6345
-165.476
-305.36
-174.259
-106.938
-75.7331
-53.1084
-42.8392
-35.8404
-31.2677
-27.8105
-25.8144
-23.8205
5.21198
4.4623
3.77212
2.49309
0.893531
-1.54171
-5.1555
-9.70927
-17.0435
-27.7186
-44.3253
-65.4019
-195.753
-130.315
-87.6854
-66.8988
-48.7313
-40.0527
-34.2381
-30.1338
-26.9039
-25.0919
-23.0032
5.2967
4.63078
4.16763
3.26878
2.28546
1.05327
-0.696813
-3.06315
-4.23874
-2.8132
1.89865
26.3713
-67.0749
-71.4104
-59.8121
-51.9683
-40.9523
-35.0619
-31.0601
-27.8868
-25.2037
-23.7388
-21.7353
5.47682
4.95324
4.73494
4.24878
3.89482
3.7338
3.72369
5.22357
6.00831
14.4542
28.1613
70.7527
163.342
16.5048
-24.59
-34.5451
-36.3998
-32.1259
-29.1943
-27.0222
-24.9563
-22.9611
-21.9273
-20.1412
5.67999
5.31904
5.31272
5.17608
5.31097
5.84542
6.86324
9.22164
11.8169
20.5603
33.943
56.7171
64.9326
29.5494
-3.71762
-17.7031
-22.5638
-23.9419
-23.5063
-22.8031
-21.7703
-20.4461
-19.8481
-18.3495
5.84981
5.64273
5.78997
5.90213
6.34351
7.24493
8.67158
11.506
14.1319
20.3474
28.9921
38.6824
38.481
18.8165
3.96812
-8.3759
-15.4738
-17.6481
-18.6408
-18.8662
-18.653
-17.9047
-17.6831
-16.498
5.95087
5.87241
6.1112
6.37361
6.96083
7.98147
9.451
12.0505
15.6147
17.5865
23.2659
27.5344
24.1536
14.4486
4.57178
-3.51378
-9.97773
-12.8543
-14.6493
-15.4275
-15.7935
-15.47
-15.5463
-14.6619
5.96656
5.98499
6.26197
6.5911
7.20553
8.14271
9.47717
11.1673
14.4504
15.0084
18.8839
18.0786
16.2773
9.29491
1.21246
-1.14558
-6.48184
-9.3718
-11.502
-12.5428
-13.2788
-13.2469
-13.5324
-12.9085
5.89485
5.97893
6.25566
6.59041
7.16639
7.91096
9.07869
9.9447
12.5421
11.6416
15.5816
12.9767
10.5131
8.18667
0.669399
-0.233682
-5.00541
-7.01291
-9.15534
-10.2007
-11.1344
-11.2776
-11.6932
-11.2827
5.74323
5.86625
6.12032
6.42411
6.93864
7.467
8.48399
8.78648
10.8862
9.70789
12.2574
10.6028
8.85376
6.80051
1.18404
0.361163
-3.88574
-5.26325
-7.37451
-8.30251
-9.32968
-9.56196
-10.0484
-9.80362
5.52391
5.66509
5.8861
6.13994
6.58812
6.91519
7.79494
7.72247
9.40133
8.14815
9.69828
8.19986
6.93906
5.56412
1.30645
0.689576
-2.98479
-3.9435
-5.98549
-6.75568
-7.81704
-8.08156
-8.59781
-8.47543
5.25027
5.39443
5.57926
5.77614
6.16015
6.3163
7.06994
6.75315
8.08183
6.82112
7.89962
6.46063
5.46086
4.54841
1.18664
0.805145
-2.34247
-2.974
-4.89706
-5.49836
-6.55295
-6.81222
-7.33074
-7.29404
4.93533
5.07222
5.22212
5.36317
5.68859
5.7103
6.35168
5.88782
6.94587
5.72992
6.512
5.23399
4.41288
3.75675
1.04048
0.831996
-1.8768
-2.25544
-4.0371
-4.47737
-5.49741
-5.72827
-6.23113
-6.25015
4.59055
4.71431
4.83265
4.92393
5.19733
5.12017
5.66369
5.12244
5.97017
4.83279
5.40039
4.2917
3.60162
3.12456
0.898406
0.817408
-1.52514
-1.71242
-3.34817
-3.64526
-4.61434
-4.8045
-5.28081
-5.33206
4.22536
4.33358
4.42448
4.4747
4.70232
4.55766
5.01561
4.44661
5.12716
4.09497
4.50479
3.55579
2.94851
2.60896
0.761307
0.778511
-1.25523
-1.29745
-2.78988
-2.96467
-3.873
-4.01732
-4.46095
-4.52679
3.84742
3.94013
4.0077
4.02641
4.21353
4.02822
4.41031
3.84773
4.39088
3.46941
3.7598
2.95905
2.41015
2.19308
0.64045
0.729684
-1.04544
-0.978246
-2.33359
-2.40588
-3.24807
-3.34613
-3.75411
-3.82204
3.46276
3.54164
3.58955
3.5865
3.73727
3.53295
3.84715
3.31442
3.74389
2.93268
3.13897
2.4674
1.98555
1.869
0.537809
0.677017
-0.881354
-0.731637
-1.95713
-1.94533
-2.71987
-2.77386
-3.14506
-3.20594
3.07605
3.14385
3.17506
3.15895
3.27681
3.07053
3.32331
2.83795
3.17375
2.47379
2.61815
2.06839
1.64423
1.58073
0.425358
0.616567
-0.750585
-0.537086
-1.64139
-1.56252
-2.26895
-2.28304
-2.61771
-2.66628
2.69077
2.75062
2.76751
2.7459
2.83401
2.63877
2.83627
2.40872
2.66484
2.0761
2.16897
1.72998
1.34902
1.33575
0.326832
0.558071
-0.646297
-0.384398
-1.37573
-1.24308
-1.8824
-1.86112
-2.16022
-2.19341
2.30979
2.36486
2.36948
2.34871
2.40934
2.23447
2.38296
2.01604
2.20229
1.72194
1.77347
1.43807
1.0916
1.12748
0.239287
0.500782
-0.562947
-0.264149
-1.14998
-0.974469
-1.54847
-1.49662
-1.76149
-1.77809
1.9355
1.98831
1.98233
1.96731
2.00232
1.85474
1.95793
1.65205
1.77764
1.4007
1.4206
1.18426
0.867949
0.946352
0.156957
0.44144
-0.49702
-0.169521
-0.955521
-0.746811
-1.25719
-1.17952
-1.41165
-1.41173
1.56972
1.62201
1.60721
1.6005
1.61377
1.49401
1.55418
1.30672
1.37861
1.0994
1.10094
0.962568
0.679866
0.786492
0.0755657
0.374961
-0.44807
-0.0969958
-0.785905
-0.551799
-0.999347
-0.900989
-1.10181
-1.08675
1.21347
1.26541
1.24416
1.24742
1.24328
1.15005
1.17362
0.977583
1.00251
0.811122
0.807741
0.765023
0.524605
0.638112
-0.00522792
0.299517
-0.409354
-0.041101
-0.632251
-0.382168
-0.766504
-0.653684
-0.824124
-0.796556
0.870278
0.921582
0.896587
0.909899
0.890515
0.820325
0.80601
0.630388
0.60131
0.486885
0.527152
0.610605
0.476476
0.510983
-0.114989
0.173844
-0.406459
-0.00702625
-0.488509
-0.23127
-0.548437
-0.429776
-0.569851
-0.534696
0.528994
0.571261
0.548681
0.566328
0.545632
0.502223
0.480175
0.351507
0.301439
0.233016
0.277805
0.423627
0.354719
0.332647
-0.16526
0.0928199
-0.327322
0.0289831
-0.328268
-0.102464
-0.338911
-0.231879
-0.336079
-0.299725
0.246643
0.292467
0.276386
0.309762
0.283907
0.253729
0.15478
-0.231065
-0.539074
-0.619568
-0.155052
0.636152
1.39066
0.280301
-0.753687
-0.533156
-0.631021
0.028435
-0.154404
0.053625
-0.100917
-0.0204588
-0.0920354
-0.070015
-132.732
-211.87
15.8892
-209.296
-354.97
-238.568
-175.889
-340.356
-362.579
-78.3302
-223.667
-328.454
16.7519
-79.5036
-205.695
69.6761
183.981
177.743
24.2987
-62.5269
50.8334
196.83
44.7146
102.385
-54.0135
-116.326
22.3324
-142.757
126.267
-194.893
-116.159
-40.0664
-98.8664
-189.597
-130.738
-184.731
-267.111
-222.057
-433.62
-343.99
-325.592
-192.479
-139.819
-96.1306
-162.855
-191.338
-205.783
-283.552
-296.266
-489.081
-492.307
-315.109
-204.24
-201.821
-56.6578
-75.5873
-153.444
-130.308
-155.991
-218.008
-341.467
-424.987
-211.443
-158.377
-196.904
-161.539
-245.397
-82.5992
-88.1947
-141.658
30.2826
-51.3252
62.2663
73.2184
166.626
72.58
43.0209
28.8018
-213.466
-121.571
-72.7842
-134.511
-229.857
88.1317
-116.317
-336.366
-167.152
-120.408
-159.96
-326.365
-294.74
-271.801
-193.211
-280.881
-303.692
-238.118
-279.899
-487.151
-438.195
-318.447
-423.975
-483.447
-333.332
-419.839
-302.058
-225.997
-277.611
-200.295
-287.425
-231.262
-303.308
-291.338
-429.036
-485.617
-365.494
-484.515
-420.057
-486.847
-487.554
-369.146
-151.492
-84.5256
-225.77
-161.097
-251.413
-335.876
-271.32
-333.203
-250.944
-415.452
-338.827
-286.608
-6.48293
41.9645
-75.2713
-14.3058
-63.7273
-149.497
-239.694
-159.761
-151.209
97.1855
117.148
47.7267
93.3072
85.5608
38.4577
-48.8562
-102.186
78.4781
-19.3239
276.243
-8.45822
12.1224
-63.7008
-27.6041
-16.5902
-75.4269
8.66729
-46.1751
11.0317
-28.0298
-70.8862
174.848
-83.7915
107.212
-132.066
-85.9108
-84.3013
-146.934
-117.565
-121.163
-82.8933
33.3089
56.2992
-77.5692
-40.2753
-53.3044
-103.009
-133.177
-148.09
-66.0932
59.6613
89.8638
-54.3405
20.6291
-15.9118
319.622
201.647
118.198
157.035
221.004
324.563
-56.5316
-32.9022
-66.1457
251.192
-28.516
6.79331
-399.254
-390.511
-500.839
-499.42
-378.871
-385.403
-196.202
-164.139
-202.87
67.8481
16.7029
-47.547
5.97468
-14.0253
-211.179
-184.967
-253.201
-216.342
-256.309
-198.038
-205.3
-91.9237
-38.974
-111.482
-200.549
-269.298
-259.93
-294.976
-295.188
-258.744
-260.473
-465.421
-464.403
-460.681
-393.165
-369.035
-416.076
-399.674
-463.143
-381.995
-318.976
-279.305
-360.408
-330.389
-388.35
-265.113
-260.296
-305.144
-303.172
-460.518
-462.988
-461.658
-405.653
-419.517
-380.379
-399.818
-458.476
-496.448
-427.322
-420
-422.997
-427.656
-497.132
-125.895
-123.312
-126.824
-164.388
-82.7784
-121.773
-113.609
-199.359
-168.698
-189.737
-291.78
-298.078
-379.855
-348.472
-373.149
-313.363
-339.827
-374.458
3.24837
30.4093
-47.9849
-41.3416
-77.5171
-3.36017
-36.4161
-39.277
-35.16
-1.20086
-100.61
-102.811
-54.5065
-158.942
-109.569
-113.068
-109.456
130.308
149.39
206.267
93.8757
123.493
207.47
114.765
72.9927
489.462
24.6314
54.3481
20.8364
50.9233
80.7937
46.6628
106.116
79.5085
88.9023
255.442
36.0466
-9.03594
-15.785
51.3102
60.6299
254.678
158.13
149.827
64.6794
78.8509
128.765
125.232
211.999
476.674
323.388
206.661
312.331
375.531
492.777
-251.654
-208.76
-227.346
-422.98
-368.603
-365.857
-295.04
-249.218
-243.406
-250.982
-252.553
-296.766
-496.368
-495.157
-357.642
-408.886
92.9449
76.3725
-2.06791
13.8488
56.7672
116.155
95.0957
109.901
-8.44711
-69.1198
163.665
-309.269
-336.942
-364.052
-239.093
-193.884
-128.415
-264.354
-211.915
-260.904
-287.259
-244.103
-252.065
-229.959
-243.303
-284.101
-288.581
-309.787
-300.554
-328.201
-326.803
-300.012
-297.937
-291.931
-271.46
-480.174
-448.797
-440.095
-411.89
-402.884
-450.96
-441.622
-476.178
-237.895
-225.825
-257.557
-278.866
-295.643
-312.326
-305.927
-333.031
-329.522
-316.139
-326.466
-297.298
-443.277
-477.242
-475.859
-445.997
-452.155
-412.206
-413.925
-435.997
-491.821
-458.891
-451.602
-455.928
-459.153
-493.915
-268.572
-276.532
-257.02
-341.982
-330.467
-320.912
-295.928
-276.118
-304.119
-237.29
-266.315
-284.691
15.6291
29.3571
0.936126
52.5203
33.2068
22.501
144.171
154.601
68.7655
83.7132
59.6821
130.248
141.515
115.29
98.7792
92.8616
379.42
140.97
19.065
-15.9064
-11.6379
18.1144
-20.9013
-23.8081
46.1953
30.2185
244.069
-21.2954
7.54724
-105.796
-99.0278
42.7944
48.6965
42.9338
48.7134
41.1492
60.5747
51.4208
45.8988
-61.4015
-55.8418
-74.5887
-81.7976
72.1633
77.4102
64.1538
83.9178
101.073
-128.83
-107.338
-30.0204
-187.367
-129.432
-152.148
-419.144
-372.06
-497.882
-499.041
-362.473
-403.567
-187.092
-185.806
-203.708
-161.555
-179.729
-180.234
-235.275
-253.705
-209.475
-228.211
46.4598
65.1284
84.9657
26.3302
56.4923
40.3376
63.114
29.8809
-233.434
-203.684
-224.649
-167.203
-195.571
-225.572
-249.866
-260.578
-230.536
-245.994
-159.309
-120.205
-157.409
-177.103
-191.028
-308.269
-329.052
-301.781
-308.978
-258.573
-205.505
-300.546
-272.831
-222.175
-255.827
-297.811
-319.825
-313.579
-289.254
-316.543
-322.299
-310.795
-312.356
-331.102
-329.871
-321.755
-328.342
-299.99
-324.998
-320.383
-282.544
-292.818
-264.175
-278.116
-302.483
-308.169
-295.177
-301.82
-270.29
-290.53
-283.927
-479.309
-450.404
-427.722
-414.699
-445.459
-473.842
-440.386
-429.448
-277.756
-290.708
-274.438
-300.304
-287.008
-316.158
-304.908
-265.537
-247.364
-282.1
-269.871
-333.921
-332.842
-304.85
-335.39
-338.605
-332.013
-336.522
-329.733
-317.916
-335.846
-332.457
-300.248
-328.643
-332.652
-447.692
-471.054
-433.831
-441.605
-471.348
-442.918
-419.211
-429.322
-462.905
-458.6
-494.252
-495.439
-461.974
-461.425
-141.592
-142.28
-139.489
-124.38
-160.208
-144.79
-148.984
-99.374
-97.8406
-85.016
-119.209
-103.251
-105.439
-220.698
-205.262
-241.39
-225.937
-183.113
-180.03
-165.138
-200.383
-185.15
-189.953
-300.15
-283.37
-274.919
-283.654
-299.076
-259.204
-276.547
-303.985
-315.251
-324.087
-305.052
15.4768
21.1715
10.9558
38.1688
25.1995
19.3223
39.9501
-20.2233
5.62214
-15.3278
-138.316
-135.823
-155.341
-109.821
-129.633
-131.197
-130.115
-137.281
159.497
181.859
107.626
125.438
155.533
122.701
29.1744
-17.3616
24.7772
-3.19689
33.7038
66.8041
638.077
463.6
373.814
521.231
557.198
661.915
93.7708
183.539
134.577
-179.341
-204.165
-245.476
-429.425
-431.539
-436.411
-494.026
-492.673
-194.023
-174
-192.181
-425.978
-420.757
-420.15
-251.034
-232.649
-228.236
-182.107
-139.748
-172.256
-254.463
-241.193
-220.379
-194.766
-241.785
-210.463
-244.32
-270.056
-258.199
-483.134
-442.438
-446.861
-442.558
-468.699
-465.884
-480.4
-394.657
-386.227
-408.248
-249.864
-218.797
-201.997
-241.932
-256.585
-244.363
-433.654
-431.609
-428.403
-483.485
-481.941
-466.917
-469.494
-488.636
-473.46
-471.365
-472.327
-474.916
-490.815
-217.198
-223.706
-237.269
-400.484
-390.614
-401.604
-205.502
-196.299
-226.615
152.068
153.63
115.065
92.1374
74.4578
151.15
151.905
68.7509
100.366
65.6566
-6.08361
14.8674
-116.395
-81.6394
-86.934
-88.3287
-72.2371
-71.0085
-76.3168
-39.0964
-44.3116
-45.5033
-101.347
-95.3324
-96.2574
98.5107
82.3045
76.0264
213.49
327.055
284.204
-79.7047
-96.9558
-78.7009
-47.6095
-201.494
-182.247
-4.69366
71.9484
93.7708
-409.576
-413.106
-406.333
-383.341
-396.781
-403.18
-504.114
-499.592
-384.957
-378.954
-372.766
-392.209
-396.411
-390.852
-200.503
-205.261
-163.775
-169.636
-169.261
-210.062
-214.913
-222.032
-226.228
-208.685
-219.307
-245.419
-246.037
-251.666
-192.076
-201.802
-224.701
-272.654
-277.803
-255.914
-258.393
-256.459
-65.0803
-109.401
-144.437
-133.9
-125.931
-139.865
-185.28
-234.586
-223.262
-281.665
-273.477
-246.951
-281.618
-282.365
-468.891
-463.487
-354.001
-341.168
-362.585
-404.588
-376.95
-366.165
-249.418
-260.885
-273.243
-455.712
-464.588
-481.044
-480.549
-496.141
-498.374
-481.881
-481.372
-130.744
-132.057
-130.763
-125.41
-164.439
-159.64
-160.26
-204.072
-218.77
-208.878
-214.324
-209.576
-242.406
-238.904
-173.238
-174.117
-169.217
-205.214
-201.02
-370.033
-380.147
-395.359
-359.879
-351.381
-360.622
-56.5221
-55.4208
-45.7774
-75.7826
-65.4654
-61.752
-82.079
-85.2119
-103.099
-59.8685
-73.5098
-75.2928
-153.707
-151.178
-157.582
-116.411
-107.709
-153.604
185.623
187.379
199.594
121.253
107.712
121.157
104.36
137.349
125.631
116.983
194.361
160.087
91.3095
110.239
92.8112
174.687
357.326
83.5417
54.1558
57.2302
191.885
192.552
220.603
69.4917
69.3064
64.646
79.4796
74.2805
74.0635
215.64
173.39
163.817
361.321
504.471
464.549
-427.107
-428.427
-426.075
-371.405
-373.141
-366.981
-385.855
-375.064
-496.708
-492.793
-362.01
-365.68
-348.753
-355.448
-414.399
-414.072
-408.431
85.8768
90.6088
97.973
79.8449
84.6793
79.6707
-345.534
-344.166
-335.267
-360.372
-352.5
-355.104
-480.391
-446.054
-448.248
-449.297
-477.917
-463.455
-461.121
-439.649
-434.778
-439.398
-482.828
-460.961
-464.236
-479.72
-476.824
-474.978
-489.881
-492.961
-476.987
-478.27
-337.445
-338.784
-343.101
-329.062
-333.727
-333.799
156.238
159.821
142.011
146.394
134.55
141.667
137.002
121.216
113.183
109.082
114.571
121.036
103.022
107.466
103.94
80.028
56.635
45.0193
113.908
325.735
282.362
351.537
167.175
200.316
250.569
-2.23963
-4.26746
-13.2887
14.1579
5.06608
7.23372
-36.2603
-37.1741
-44.7596
-21.9641
-30.0616
-29.1406
58.8868
78.7117
19.8947
-75.8582
-106.859
-35.9779
-40.7683
-111.748
-93.8687
-92.2755
-98.4022
44.3908
46.3226
37.7734
40.6037
43.66
-60.4178
-65.725
-66.8664
-42.8232
-37.6577
-48.3076
-50.5011
-49.136
-55.0438
-73.2942
-66.677
-67.6394
-64.7082
-71.8278
-51.5018
-58.11
-89.2188
-88.3017
-80.9454
89.2902
90.5759
84.8911
103.244
96.688
95.0111
-136.509
-107.738
-103.364
-172.569
-180.655
-160.108
-413.748
-413.36
-419.226
-424.719
-394.523
-392.018
-405.396
-398.628
-501.515
-500.927
-377.502
-382.595
-369.191
-373.07
-367.353
-373.767
-369.144
-403.96
-399.92
-398.135
-390.351
-187.98
-194.926
-174.609
-175.505
-181.607
-242.194
-242.384
-235.052
-253.635
-249.231
-248.413
-215.445
-216.575
-210.922
-228.43
-222.042
-221.487
-220.586
36.2805
32.4162
22.8942
51.8251
40.578
-224.899
-233.276
-240.348
-239.134
-229.503
-213.308
-222.742
-266.936
-268.887
-274.879
-271.131
-256.762
-256.058
-264.05
-163.408
-148.1
-159.812
-124.282
-197.398
-186.693
-178.852
-318.409
-302.512
-291.535
-325.155
-315.129
-327.87
-331.413
-319.293
-240.391
-242.266
-260.667
-224.466
-239.893
-224.007
-288.71
-273.498
-280.452
-284.58
-320.2
-322.931
-312.342
-314.943
-315.01
-313.825
-312.802
-330.1
-329.036
-322.967
-325.366
-287.841
-293.401
-287.587
-295.223
-294.575
-290.822
-267.849
-280.383
-278.09
-286.688
-283.397
-272.308
-284.284
-286.603
-303.821
-305.511
-304.472
-311.186
-308.043
-305.819
-297.724
-300.932
-297.74
-305.448
-305.653
-300.58
-473.398
-457.699
-296.398
-296.669
-298.992
-286.261
-292.29
-292.061
-312.124
-301.316
-304.487
-307.924
-260.024
-260.686
-266.951
-248.603
-254.054
-253.716
-277.727
-277.004
-281.006
-270.89
-273.677
-273.699
-336.043
-337.684
-334.792
-337.565
-324.719
-320.732
-333.307
-332.273
-451.083
-467.13
-495.93
-480.05
-478.578
-479.802
-481.109
-497.38
-135.685
-141.842
-136.367
-137.463
-155.279
-154.295
-148.062
-226.082
-219.721
-215.405
-220.601
-226.236
-236.335
-240.936
-244.181
-231.603
-236.204
-230.966
-235.911
-232.252
-184.922
-179.327
-178.024
-196.545
-190.162
-294.87
-291.188
-297.039
-279.334
-285.38
-289.571
-290.535
-295.122
-264.368
-263.192
-258.064
-270.284
-316.897
-316.502
-323.224
-302.961
-309.55
-310.682
17.5213
16.2845
20.0735
8.40646
12.552
14.4294
34.5617
31.3801
34.7025
23.924
27.8255
29.5586
35.1662
-22.2933
-17.3646
-32.5154
-27.2181
0.282683
-1.49837
3.46707
-12.1631
-6.18508
-5.43964
-136.943
-144.138
-145.772
-123.21
-144.899
165.209
172.514
113.977
119.865
110.758
131.787
125.541
119.698
130.213
137.462
143.027
129.26
56.1263
75.371
61.0127
83.2528
95.5309
71.1696
94.9021
77.7492
63.26
67.7861
43.1708
41.7834
29.5067
41.6029
45.0348
50.6197
89.5716
79.7579
110.228
178.738
106.473
179.643
106.451
83.9684
81.8305
32.0743
39.9133
20.6073
4.22647
13.1806
8.64035
9.26465
36.434
13.5409
41.0797
88.3766
102.464
167.755
149.498
282.401
210.485
168.52
82.4782
48.0618
58.2914
-23.7668
-25.9604
-8.14922
-23.7604
-45.5079
-3.48937
-19.4999
-23.037
-0.717763
3.83087
6.5299
36.498
-81.4609
-76.3556
-24.0536
-103.11
-73.9122
-48.6645
-50.2731
-83.0921
-57.6984
-81.8947
-100.956
-85.5494
-162.398
-182.221
-167.222
-276.774
-214.68
-167.519
-167.336
-117.565
-98.0638
-55.6576
-82.0695
-86.3192
-103.447
-124.491
-124.485
-211.261
-235.257
-234.961
-338.151
-268.749
-257.573
-179.902
-133.728
-129.845
-40.0064
-50.2204
-76.0158
-79.3053
-91.4194
-103.531
-154.412
-167.247
-180.192
-269.724
-226.501
-248.672
-144.046
-118.068
-129.378
-14.8092
-9.96014
-40.0116
-52.5115
-53.502
-68.2361
-146.96
-132.75
-170.644
-86.0964
-82.9765
-101.835
7.10799
19.2725
-1.14094
-24.2491
-44.2432
-67.1913
-33.8468
-45.9469
-63.6968
18.5508
26.5162
22.5867
34.854
55.1499
58.7771
70.7635
88.6806
104.432
124.75
113.054
125.567
30.4907
1.34434
-17.9439
-10.8908
-19.8241
-31.2174
21.0416
27.7449
27.9113
32.3617
35.1681
51.1932
42.2249
45.3668
69.2536
43.0766
30.8729
40.2762
19.2404
9.61438
3.88581
1.95918
-6.79503
-12.0452
25.9923
28.1904
33.7484
33.1456
31.4247
40.5788
28.2369
25.6204
28.3748
16.4602
11.0292
10.7046
-150
-130.143
-114.777
-181.758
-203.161
-251.16
32.8988
-3.77219
-16.4306
-232.7
-228.549
-205.517
-344.965
-382.472
-399.393
-265.089
-303.614
-262.255
-192.487
-203.798
-185.173
-350.727
-387.644
-368.889
-403.122
-411.484
-367.631
-83.1511
-97.1043
-91.2711
-239.59
-260.86
-234.065
-361.322
-338.312
-315.316
-97.0196
-98.1656
-79.1583
-216.199
-196.09
-187.36
104.082
89.7462
56.2031
205.886
187.847
171.989
167.006
168.65
202.938
-59.7326
-40.7143
-45.9436
104.007
167.741
95.3434
745.221
623.796
625.585
165.534
196.818
277.603
762.36
787.511
66.3464
90.5069
66.4816
151.861
178.831
101.109
-66.9183
-45.6767
-37.1126
-62.0446
-52.6312
-79.4919
5.19567
-23.5241
-41.5447
-109.745
-119.144
-176.854
151.2
107.566
89.6533
-152.124
-94.7721
-111.301
-90.6511
-95.7075
-127.841
-33.4019
-63.397
-65.0072
-120.575
-112.673
-91.8001
-173.427
-135.511
-144.818
-102.648
-121.426
-165.524
-206.106
-195.102
-174.314
-262.335
-248.099
-253.23
-207.236
-215.467
-229.107
-352.578
-361.763
-351.557
-254.69
-224.118
-291.987
-178.592
-205.264
-221.752
-157.609
-183.747
-161.044
-113.512
-120.68
-101.106
-183.627
-143.972
-134.746
-149.291
-148.965
-188.332
-228.902
-233.222
-209.335
-288.482
-270.875
-267.035
-278.782
-279.376
-297.284
-257.288
-265.195
-335.214
-207.589
-238.025
-232.799
-232.741
-238.197
-207.031
-63.1063
-77.7411
-68.4377
-110.658
-89.659
-71.5907
-122.038
-106.731
-122.196
-139.748
-153.677
-142.554
-182.998
-165.624
-143.762
-209.865
-202.118
-210.453
-347.249
-353.815
-346.824
-183.61
-214.9
-256.071
-173.449
-193.417
-174.866
-223.07
-209.727
-186.581
-173.548
-179.102
-160.813
-247.657
-241.865
-240
-92.8006
-115.896
-130.822
-106.026
-112.961
-91.1097
-154.711
-133.553
-123.967
20.2294
27.5494
38.4687
-48.8666
-35.7503
-38.8296
71.0891
82.9626
67.1811
97.6762
87.947
70.322
142.486
120.328
126.65
62.1026
74.3613
94.8907
42.8123
64.5499
55.0655
72.0524
67.2811
42.4321
-204.061
-188.567
-198.387
-87.4491
-129.332
-169.348
-94.911
-107.546
-81.9773
-153.845
-184.659
-158.139
56.3076
60.3204
100.121
-132.96
-109.285
-94.0625
-328.08
-336.387
-344.481
-175.303
-192.533
-184.242
-129.058
-166.049
-152.896
-189.07
-175.709
-149.091
-295.412
-280.211
-297.888
-292.694
-276.22
-277.845
-257.782
-262.147
-276.477
-200.319
-222.766
-215.247
-284.437
-290.361
-287.572
-312.915
-311.864
-301.809
-285.354
-282.841
-276.247
-352.702
-376.281
-332.76
-428.925
-423.352
-416.872
-355.953
-327.539
-312.458
-414.096
-407.86
-415.446
-283.366
-314.457
-344.451
-234.077
-225.404
-217.908
-262.371
-257.386
-271.267
-193.494
-213.889
-222.326
-285.407
-292.891
-296.487
-234.984
-239.132
-235.479
-305.123
-314.731
-313.674
-300.061
-302.904
-292.833
-405.932
-393.529
-359.238
-415.404
-417.733
-424.368
-369.865
-411.921
-409.191
-141.901
-143.323
-158.266
-85.5679
-95.2606
-93.9497
-218.836
-229.065
-230.867
-163.304
-178.362
-170.585
-256.778
-259.278
-253.536
-340.188
-334.646
-330.899
-295.806
-269.69
-255.644
-320.026
-311.191
-321.148
-246.154
-257.123
-262.339
-410.875
-407.114
-410.306
-331.353
-341.572
-354.859
-301.293
-329.852
-304.838
1.1369
3.8731
-3.94813
45.4886
38.9312
35.6123
-66.0276
-66.0033
-75.8475
-12.049
-20.4403
-22.4004
-76.1286
-74.9019
-61.9174
-154.59
-135.112
-137.284
-228.315
-224.255
-235.219
-154.844
-185.475
-194.558
-169.281
-176.358
-156.778
110.658
137.916
121.225
140.402
142.914
111.494
55.2933
59.5061
52.2038
70.4797
108.521
114.677
-53.6728
-23.525
-22.8755
-31.3483
-24.3987
-73.2527
49.4057
12.5845
-4.23609
311.754
257.961
233.504
-18.0325
-17.5315
-1.39609
-53.1774
-34.9625
-28.9074
-25.9387
-39.4284
-39.8812
-40.7799
-39.1527
-24.53
-70.9298
-54.5973
-49.1809
0.374369
2.98437
11.7128
-45.3856
-38.0655
-38.88
-9.3314
-24.8009
-12.7065
129.839
140.429
193.817
-123.747
-94.0555
-56.7462
4.08044
-9.64578
52.2467
-105.91
-34.0737
-32.6364
-50.8332
-45.1347
-87.544
-110.997
-103.402
-85.9092
-135.332
-111.919
-119.807
-104.615
-111.328
-125.56
36.7471
39.0604
35.8929
58.0296
54.5343
52.5119
-60.4656
-59.6754
-52.617
-137.153
-117.602
-115.144
-112.931
-112.064
-144.185
-75.1562
-101.287
-101.318
63.8911
65.6258
61.6225
92.7733
87.8023
84.8221
-18.8704
-34.4096
-55.5162
3.20746
-14.668
-7.84329
-30.3329
-22.9169
-6.56036
274.373
318.912
431.942
189.442
279.449
251.426
197.395
277.032
179.887
181.434
216.752
187.931
270.46
319.162
220.19
442.511
358.888
292.719
-27.1619
-98.2927
-72.1727
135.758
133.379
183.928
-15.3742
18.2057
9.11282
47.7372
58.8041
13.8843
-202.996
-185.211
-185.579
-210.033
-212.18
-207.171
60.242
66.1074
72.9839
20.1667
28.8427
25.1143
-25.4715
-32.4485
-46.21
-4.29391
-18.4332
-17.9128
-26.4029
-22.563
-9.38864
-212.751
-192.133
-170.465
-209.85
-236.409
-218.802
-188.819
-171.384
-182.415
-73.2197
-95.0952
-111.133
-67.9065
-80.2631
-51.4711
-281.483
-292.482
-281.659
-246.753
-258.416
-270.55
-303.077
-301.354
-292.529
-297.508
-305.921
-304.351
-266.296
-263.226
-254.142
-264.807
-271.665
-268.811
-446.274
-443.261
-457.601
-385.577
-403.623
-411.815
-387.038
-394.521
-377.471
-411.159
-431.922
-437.429
-419.021
-425.801
-405.882
-466.299
-451.997
-448.912
-371.976
-363.92
-375.256
-306.533
-323.976
-336.431
-296.43
-310.791
-293.519
-351.022
-368.884
-378.182
-348.114
-358.964
-341.237
-394.459
-384.587
-376.788
-268.842
-272.7
-267.673
-257.44
-260.608
-264.528
-315.449
-315.693
-304.52
-303.201
-313.39
-314.396
-447.569
-450.478
-464.435
-410.743
-432.06
-425.765
-442.746
-437.859
-415.586
-386.857
-403.306
-394.816
-418.767
-411.086
-393.711
-454.09
-440.926
-444.404
-425.713
-449.231
-451.276
-442.198
-446.189
-423.426
-425.424
-449.855
-446.868
-452.113
-451.718
-427.189
-124.515
-138.427
-132.387
-88.238
-88.3635
-83.2488
-120.246
-115.084
-116.672
-103.728
-105.371
-115.562
-180.122
-183.627
-199.048
-294.388
-289.04
-286.554
-303.613
-305.794
-300.003
-376.062
-380.903
-385.154
-356.855
-368.28
-359.177
-386.251
-377.38
-365.309
-322.314
-331.229
-321.456
-350.084
-340.871
-331.279
-369.596
-365.313
-369.784
7.50196
9.52931
5.33326
32.6571
28.9794
26.7682
-47.1283
-56.4148
-56.9035
-46.3768
-47.5027
-42.3801
-78.255
-73.0291
-72.2694
-17.1117
-18.2029
-9.52199
-36.3859
-27.1812
-21.8001
-30.7208
-29.1296
-38.051
-30.1042
-28.7567
-33.9215
0.721347
-4.06848
-5.81873
-100.176
-87.3158
-88.2597
-95.7927
-95.8308
-102.781
-55.4001
-62.6656
-61.5736
-109.453
-116.305
-116.711
-125.2
-124.753
-113.33
136.767
151.174
140.438
172.464
155.229
143.226
99.053
102.86
97.6133
104.308
116.898
142.534
79.1036
85.707
80.3378
47.3049
35.4997
42.8493
13.0281
25.2355
41.3235
70.0569
60.7117
70.1075
38.9901
50.1896
58.0714
99.5734
108.611
116.463
84.4857
98.7239
90.3727
112.909
102.655
88.6622
19.1393
15.3596
27.3353
-10.5455
2.73748
12.5607
-4.39712
-0.568392
-12.9789
227.009
241.639
298.674
160.651
179.504
179.966
162.532
173.402
156.908
132.445
149.543
144.36
149.326
151.875
132.135
280.769
206.257
203.455
432.243
465.527
592.284
319.191
383.813
375.273
316.249
410.476
296.303
341.037
385.089
354.229
424.266
492.374
383.711
611.47
536.369
470.111
-236.778
-242.778
-257.282
-216.721
-229.447
-223.13
-239.987
-234.607
-220.275
-358.521
-370.035
-379.853
-276.519
-274.178
-292.317
-249.176
-263.216
-265.089
-256.621
-259.965
-244.705
-253.468
-267.525
-266.535
-266.854
-267.215
-251.31
-297.432
-279.094
-278.299
-364.676
-360.01
-352.768
3.50904
16.0296
9.54724
31.8165
23.2712
9.70943
47.2204
35.3724
43.8326
111.031
121.583
135.641
103.155
113.564
102.995
122.418
115.773
105.796
-17.4033
20.5169
23.7925
18.6082
21.161
-25.6559
116.804
70.1865
52.8247
-320.138
-328.498
-320.309
-222.431
-199.843
-215.276
-171.668
-185.073
-207.032
-138.078
-162.527
-151.811
-248.479
-264.381
-280.713
-227.409
-246.849
-231.468
-281.006
-262.626
-243.277
-271.807
-274.329
-290.18
-248.61
-261.752
-258.802
-265.657
-263.6
-248.516
-236.206
-248.894
-244.292
-256.142
-252.393
-237.933
-280.521
-265.772
-269.115
-295.297
-292.776
-285.379
-307.167
-300.273
-302.115
-295.856
-298.131
-303.434
-327.433
-316.215
-317.052
-314.868
-315.705
-327.298
-302.063
-311.147
-309.951
-295.629
-291.363
-293.653
-287.133
-289.272
-293.613
-275.21
-280.864
-278.486
-431.523
-427.409
-433.829
-405.151
-415.508
-420.735
-446.827
-460
-462.938
-454.614
-457.579
-445.887
-235.502
-247.434
-251.989
-236.311
-241.804
-229.185
-264.707
-251.813
-245.916
-284.809
-288.599
-280.987
-300.701
-293.915
-290.532
-301.12
-297.732
-307.019
-315.865
-315.289
-304.493
-332.773
-320.179
-320.57
-318.058
-319.246
-331.163
-319.594
-306.905
-304.103
-312.567
-309.856
-323.1
-296.232
-305.862
-308.138
-447.317
-460.367
-457.581
-465.554
-463.289
-451.35
-424.857
-424.367
-408.275
-430.44
-424.362
-428.22
-455.505
-469.267
-471.346
-465.21
-467.676
-455.377
-456.272
-470.219
-468.255
-473.408
-472.298
-459.54
-271.408
-265.36
-262.973
-269.594
-266.712
-272.988
-255.054
-260.674
-262.957
-325.841
-329.095
-323.933
-290.098
-301.439
-306.733
-285.605
-292.096
-282.143
-311.629
-301.786
-294.977
-246.305
-252.001
-241.742
-272.189
-262.374