/*--------------------------------*- C++ -*----------------------------------*\
| =========                 |                                                 |
| \\      /  F ield         | OpenFOAM: The Open Source CFD Toolbox           |
|  \\    /   O peration     | Version:  5.x                                   |
|   \\  /    A nd           | Web:      www.OpenFOAM.org                      |
|    \\/     M anipulation  |                                                 |
\*---------------------------------------------------------------------------*/
FoamFile
{
    version     2.0;
    format      ascii;
    class       surfaceScalarField;
    location    "100";
    object      phi;
}
// * * * * * * * * * * * * * * * * * * * * * * * * * * * * * * * * * * * * * //

dimensions      [0 3 -1 0 0 0 0];

internalField   nonuniform List<scalar> 
13181
(
0.000385045
0.412053
0.000367707
0.412532
0.000312873
0.412547
0.000252944
0.412552
0.000158084
0.41261
-0.000186744
0.412837
-0.000407131
0.41272
-0.000453133
0.412547
-0.000414375
0.41246
-0.000213585
0.412298
0.000177031
0.412111
0.000688879
0.411987
0.00117965
0.412008
0.00149927
0.412182
0.00158777
0.412411
0.00147962
0.412607
0.00124257
0.412739
0.000936497
0.412805
0.000432689
0.412996
-5.61251e-06
0.412953
-0.000572876
0.41306
-0.000809489
0.412729
-0.000861922
0.412567
0.411551
0.00054466
0.411371
0.0015663
0.411511
0.00157399
0.41254
0.00154115
0.412585
0.00125848
0.412893
0.000379217
0.413717
-0.00077151
0.41387
-0.00115973
0.412936
-0.00114843
0.412449
-0.000759301
0.205949
0.20596
2.9467e-05
0.205659
0.205663
0.00110609
0.205447
0.205464
0.00214193
0.205466
0.205507
0.00280948
0.205732
0.205783
0.00298171
0.206094
0.206145
0.00241311
0.413176
0.00147889
0.413673
0.000526634
0.413758
-0.000491966
0.414015
-0.000852807
0.413314
-0.000886443
0.413093
-0.000945691
0.412788
2.93917e-05
0.411592
0.41138
-0.000191515
0.411338
-5.93386e-05
0.411379
0.000827178
0.411653
0.00073013
0.412682
0.000765466
0.412857
0.000805818
0.413676
-0.000698347
0.415374
-0.00171396
0.413951
-0.000925572
0.412807
-0.00114642
0.205817
-0.000793232
0.205435
-0.000398926
0.000622404
9.41432e-05
0.205088
0.00026428
-0.000665484
0.205076
0.00105489
-0.00140054
0.205461
0.00167115
-0.00182988
0.20606
0.00186356
0.00192751
0.207352
-0.00144583
-0.00195647
0.207299
0.000289455
0.415311
-0.000242776
0.41429
-0.000167682
0.41394
-0.000235126
0.413382
-0.00031697
0.413175
0.000444783
0.412027
0.000458223
0.411579
0.411514
-0.00046315
0.411492
-0.000602105
0.411518
-0.000629696
0.411681
-2.0995e-05
0.412074
-0.000237571
0.413074
-0.000242573
0.413681
-0.000465602
0.415597
-0.00142526
0.414911
-0.00164727
0.207796
-0.0017879
0.207021
0.205629
-0.00150754
-0.205768
0.20485
-0.00100428
-0.205165
0.00131921
0.000513451
0.203948
0.000139713
-0.204601
-0.000899334
0.20378
0.00165119
-0.204532
-0.00223647
0.205159
0.00223823
-0.20516
-0.00153319
0.207326
0.000640286
-0.206434
-6.53087e-05
0.207447
-2.89396e-05
0.001623
0.207443
-0.000656969
-0.000130055
0.207032
0.001365
0.414548
0.00100152
0.414303
0.00050596
0.413877
0.00099766
0.412684
0.000930346
0.412094
0.000653921
0.411855
0.411729
-0.000553005
0.411662
-0.000769168
0.411734
-0.00102085
0.411932
-0.00111551
0.412168
-0.000832202
0.41279
-0.000999583
0.413849
0.000483221
0.414115
0.000864389
0.206649
0.000324834
0.207556
0.20905
-0.000389382
0.206049
-0.00164684
-0.205703
0.00130075
0.204862
-0.00211153
-0.204602
0.00185178
0.00145967
-0.000319279
-0.203085
0.100959
0.100985
-0.00113886
0.00262362
-0.202751
0.100633
0.100633
-0.00317798
0.00166875
-0.20588
0.103419
0.10397
-0.00225233
0.207165
0.00240732
-0.20732
-0.00210958
0.207682
0.00217709
-0.207749
-0.00213114
0.207464
0.00211041
0.00263869
0.415769
-0.0020744
-0.00178508
0.0017372
0.415205
0.00179369
0.413821
0.00151076
0.412966
0.00109398
0.412511
0.000779665
0.41217
0.411979
-0.000608423
0.411832
-0.000836823
0.411962
-0.0011301
0.412226
-0.00153604
0.412574
-0.00177201
0.413026
-0.00190212
0.413979
-0.00119613
0.41498
-0.00157171
0.207063
-0.00161063
0.207379
3.5004e-05
-0.208803
0.00138963
0.20644
0.000814942
-0.206517
-0.000738031
-0.102893
6.99956e-05
0.103154
-0.000331065
-0.100439
0.000870792
0.100564
-0.000996402
-0.0995811
-0.000612571
0.0989878
0.0012059
-0.102874
-0.00104468
0.101547
0.00237131
-0.00181544
0.00473651
-0.207358
-0.00199925
0.103028
0.103409
-0.00465552
0.20826
0.0040848
-0.207689
-0.00341418
-0.2079
0.208479
0.00283528
0.00342674
0.417412
-0.00265504
-0.00241512
0.00278054
0.415851
0.00221646
0.414385
0.0016142
0.413569
0.00118257
0.412942
0.000842135
0.41251
0.412236
-0.00064474
0.412008
-0.000883262
0.412201
-0.00116194
0.412504
-0.00153667
0.412949
-0.00207098
0.413561
-0.00256646
0.414474
-0.0016725
0.41575
-0.0016633
-0.207468
0.207904
-0.00210837
-0.207461
0.208137
-0.00333605
0.00265982
-0.206962
0.208086
0.00421767
-0.00252913
-0.00281333
-0.102697
0.00262549
0.102773
-0.00270175
-0.0502161
0.00103866
0.0500629
-0.000885468
-0.00017891
-0.0474924
0.0472381
0.000433193
-0.00195483
-0.102138
0.00395337
-0.00133982
0.0501531
0.0513263
-0.0047476
-0.103587
0.104084
0.00425079
-0.00660765
-0.209269
0.21053
0.00534702
-0.00430638
-0.209159
0.210013
0.00345308
0.00403677
0.418902
-0.002772
-0.002755
0.00306988
0.416818
0.00216905
0.415286
0.00154815
0.41419
0.00110954
0.413381
0.000783839
0.412836
0.412423
-0.000614876
0.412149
-0.00083862
0.412424
-0.00108945
0.412755
-0.00146396
0.413323
-0.00195234
0.414049
-0.00264708
0.415169
-0.00159739
0.416515
-0.00181543
-0.208359
0.208831
-0.00206983
-0.208996
0.20982
-0.00351827
0.00269458
-0.209614
0.21126
0.00466563
-0.0030988
-0.00321202
-0.104429
0.00435907
0.105338
-0.00526828
-0.0511294
0.00468953
0.0517564
-0.00531652
-0.00643982
-0.0515859
0.0521677
0.00585795
-0.00686774
-0.106021
0.106977
0.00591235
-0.00797535
-0.212226
0.213934
0.00626757
-0.00498115
-0.211054
0.211999
0.00403526
0.0040185
0.421154
-0.00301881
-0.00325109
0.00254546
0.418291
0.00179698
0.416034
0.00127587
0.414711
0.000936457
0.41372
0.000713599
0.413059
0.41258
-0.00056891
0.412269
-0.00071207
0.412568
-0.0009043
0.412947
-0.00113423
0.413553
-0.00143962
0.414354
-0.0018491
0.415578
-0.00137423
0.417166
-0.00112515
-0.20894
0.209311
-0.00174439
-0.210784
0.211398
-0.00301026
0.00239585
-0.212829
0.213928
0.00379662
-0.00258879
-0.00230714
-0.107882
0.00363556
0.108529
-0.00428246
-0.0556072
0.00379559
0.0559763
-0.00416465
-0.00582353
-0.0565654
0.0570485
0.00534044
-0.00571399
-0.109744
0.110587
0.00487072
-0.00610641
-0.215588
0.21691
0.00478492
-0.00376581
-0.212874
0.213574
0.0030662
0.0032578
0.422306
-0.00197191
-0.0024381
0.00193662
0.419612
0.00117037
0.4168
0.000862102
0.415019
0.000653442
0.413929
0.000502488
0.41321
0.412618
-0.000473954
0.412341
-0.000594249
0.412688
-0.0006907
0.413044
-0.000818138
0.413681
-0.000896653
0.414433
-0.000970709
0.415652
-0.000642554
0.417201
-0.000363711
-0.209641
0.209971
-0.000972168
-0.211763
0.21187
-0.00119616
0.00108918
-0.214522
0.21456
0.00126449
-0.000828355
-0.00047437
-0.109666
0.0010633
0.10975
-0.00114672
-0.0572912
0.000826415
0.0573006
-0.000835863
-0.00179893
-0.0589839
0.059051
0.00173187
-0.00212573
-0.112228
0.112463
0.00189077
-0.00230583
-0.217775
0.218102
0.00197901
-0.00172548
-0.214078
0.214336
0.00146731
0.00173889
0.422491
-0.000728212
-0.00119562
0.00159766
0.419753
0.000675849
0.417722
0.000316558
0.415378
0.000316259
0.413929
0.00028202
0.413244
0.412572
-0.000391712
0.412391
-0.000446915
0.412743
-0.000476332
0.413073
-0.000444457
0.413649
-0.000407991
0.414396
-0.000156625
0.415401
2.91546e-05
0.416853
0.00016283
-0.210077
0.210096
1.08837e-05
-0.211734
0.211379
0.000584648
-0.000229896
-0.21409
0.213249
-0.00115069
0.000853304
0.00113822
-0.109202
-0.00135567
0.108812
0.00174589
-0.0561722
-0.00183054
0.0558935
0.00210929
0.00225125
-0.0580744
0.0577854
-0.00196227
0.00171214
-0.112147
0.111782
-0.00134655
0.00162266
-0.217903
0.217272
-0.00099201
0.000474301
-0.214296
0.214023
-0.000201222
0.000156948
0.421839
0.000424728
7.0087e-05
0.000592453
0.419318
0.000790303
0.417524
-0.000234881
0.416404
-9.49286e-05
0.413789
3.4184e-05
0.413115
0.412445
-0.000293376
0.412409
-0.000275213
0.412725
-0.000238727
0.413037
-0.00013495
0.413545
0.000102476
0.414159
0.000556457
0.414947
0.00047228
0.416354
0.000583138
-0.209861
0.20961
0.000723958
-0.210894
0.210348
0.00166022
-0.00111439
-0.212168
0.211038
-0.00244725
0.00176026
0.00181644
-0.107328
-0.00255336
0.106796
0.00308546
-0.0536001
-0.00287523
0.0532524
0.00322289
0.00440184
-0.0551842
0.0547694
-0.00398703
0.00407488
-0.110066
0.109393
-0.00340185
0.00427613
-0.216212
0.214884
-0.00294881
0.00208536
-0.213538
0.212934
-0.00148116
-0.000960856
0.420531
0.00122696
0.00104229
-0.000200669
0.418558
0.000275769
0.417048
0.000443427
0.416236
-0.000463058
0.414696
-0.000234481
0.412886
0.412231
-0.00021386
0.412408
-0.000165793
0.412677
-9.56536e-05
0.412967
7.11685e-05
0.413378
0.000329723
0.4139
0.000806292
0.41447
0.000744184
0.415662
0.000753971
-0.209309
0.209025
0.0010277
-0.209796
0.209305
0.00185813
-0.00136739
-0.209968
0.209098
-0.0025144
0.00174746
0.00163721
-0.105332
-0.00240508
0.104941
0.00279607
-0.0509571
-0.002452
0.0506873
0.00272185
0.00451742
-0.0515347
0.051067
-0.0040498
0.0043768
-0.107315
0.106685
-0.00374725
0.0047843
-0.213387
0.212136
-0.00353368
0.00263803
-0.212291
0.211658
-0.00200573
-0.00145745
0.419122
0.00143997
0.00142636
-0.000585779
0.417686
-7.92777e-06
0.41647
1.07459e-06
0.416227
-0.000615545
0.415312
-0.000477495
0.412748
0.411952
-0.000136424
0.412379
-0.000102077
0.412642
-6.13639e-06
0.412871
0.000130627
0.413241
0.00035785
0.413673
0.000694281
0.414134
0.00112191
0.415234
0.00111292
0.4171
0.000676897
-0.208806
-0.208961
-0.208927
0.208728
0.00131252
-0.2085
0.209023
0.000735037
-0.00125813
-0.104519
0.000319188
0.105733
-0.00153334
-0.050455
0.00192313
0.0495612
-0.00102939
-0.0205227
0.000717092
0.020588
-0.00078242
0.0017827
-0.0488973
0.0983665
-0.00337227
0.00154671
-0.0494264
-0.105289
0.00305838
0.105063
-0.0028321
0.00356934
-0.211174
0.210447
-0.00284209
0.00224606
-0.211188
0.211051
-0.00210901
-0.00139665
0.418055
0.00114234
0.00132144
-0.000633283
0.416923
-0.000101528
0.415938
-0.000719179
0.416845
0.000416472
0.414177
-0.000566681
0.413731
0.411748
-0.000128796
0.412379
-0.000102145
0.412616
-4.73382e-05
0.412816
3.00289e-05
0.413164
0.000187202
0.413516
0.00030241
0.414019
-0.000139234
0.415676
-0.000822629
0.419602
-0.00181886
-0.209296
0.21024
-0.00176614
-0.209691
0.20897
-0.00110517
0.00182599
-0.104295
-0.000190291
0.104134
0.00035112
-0.098133
-7.41721e-05
0.0982542
-4.70214e-05
-0.0455315
0.00189678
0.0919765
-0.00261656
-0.0457252
-0.0988795
0.00313887
0.0984623
-0.00272163
-0.208807
0.00294234
0.209188
-0.0052261
0.00190285
0.00484129
-0.210057
0.209545
-0.00432969
-0.00512882
0.418143
0.00256202
0.0039632
-0.211776
-0.207763
-0.0039649
0.416891
-0.00312225
0.41608
-0.00236503
0.415181
2.42003e-05
0.414455
0.000398177
0.413803
0.000676778
0.413453
0.412927
-0.000119316
0.412393
-0.000133422
0.41263
-0.000131393
0.412814
-0.000103259
0.413136
-9.46724e-05
0.413507
-0.000292966
0.414217
-0.00153147
0.416914
-0.00181469
0.419976
-9.06005e-05
-0.210206
0.209008
-0.000616926
-0.208561
0.20868
-0.000159366
4.0228e-05
-0.208561
0.208758
-0.000562262
0.000365223
-0.0984121
0.000454602
0.0983471
-0.000389635
-0.0933593
0.00134629
0.0936418
-0.00162877
-0.0984024
0.00197611
0.198794
-0.00404517
-0.100236
0.00191342
-0.208688
0.00412537
0.2083
-0.00373768
-0.209232
0.00351685
0.208965
-0.00324964
-0.00374187
0.416532
0.00248637
0.00286697
-0.00246089
0.41561
-0.00205372
0.415673
-0.00184407
0.414971
-0.00162737
0.414239
-0.00135905
0.413534
-0.000965494
0.413059
0.412575
-0.000147712
0.412446
-0.000162302
0.412644
-0.000194048
0.412846
-0.000238865
0.413181
-0.000327601
0.413596
-0.000936411
0.414826
-0.00179534
0.417773
-0.000654813
0.418835
-0.000415782
0.418173
-0.209042
-0.208849
-0.000520873
-0.20893
0.209143
-0.000628189
-0.208882
0.208937
-0.000831697
0.000776524
-0.195943
0.000893432
0.196444
-0.00139374
-0.187372
0.00214692
0.188225
-0.0030004
-0.19885
0.00332665
0.19866
-0.00313674
-0.207979
0.00276643
0.2078
-0.00258761
-0.208785
0.00250395
0.208639
-0.00235864
-0.00374172
0.416083
0.00204239
0.00214833
-0.00302145
0.414889
-0.00231624
0.414968
-0.00157417
0.414229
-0.000928758
0.413593
-0.000677741
0.413283
-0.000632019
0.413013
0.412645
-0.00016332
0.412517
-0.00022418
0.412705
-0.000310236
0.412932
-0.000398957
0.41327
-0.000659564
0.413857
-0.00175744
0.415924
-0.00181752
0.417833
-0.0010466
0.418064
-0.00146485
0.418591
-0.00103381
0.41985
-0.209423
-0.209779
-0.00107847
-0.208883
0.208683
-0.00083376
-0.197019
0.000934727
0.197586
-0.00150231
-0.18883
0.00189595
0.189323
-0.0023889
-0.198527
0.002613
0.198512
-0.00259819
-0.00379352
0.41614
-0.207835
-0.208397
0.00191984
0.00196634
-0.00352243
0.416633
-0.208492
-0.208412
-0.00323699
0.415797
-0.00290903
0.414561
-0.00229076
0.414349
-0.00174366
0.413682
-0.00130574
0.413155
-0.000949382
0.412927
-0.000440987
0.412505
0.412965
-0.000184109
0.412604
-0.000289033
0.41281
-0.000379082
0.413022
-0.000501773
0.413392
-0.000712477
0.414067
-0.00156252
0.416774
-0.00127351
0.417544
-0.00109686
0.417888
-0.00162874
0.419123
-0.00202862
0.42025
-0.00204215
0.413775
-0.208102
-0.205659
-0.00315257
0.401143
-0.198524
-0.201509
-0.00410917
0.380005
-0.189622
-0.189426
-0.00355096
0.402474
-0.19914
-0.203892
-0.00319025
0.415779
-0.00303385
0.416477
-0.00282917
0.415592
-0.00255732
0.41429
-0.00211823
0.41391
-0.00172786
0.413292
-0.00146997
0.412897
-0.0010313
0.412488
-0.000674282
0.412148
0.413091
-0.000206762
0.412706
-0.000307054
0.412911
-0.000440498
0.413155
-0.000587791
0.413539
-0.000803086
0.414283
-0.00131538
0.417286
-0.00118393
0.417413
-0.00123053
0.417934
-0.00168262
0.419575
-0.00187972
0.420447
-0.00175747
0.413652
-0.00269422
0.40208
-0.00351239
0.380823
-0.00300341
0.401965
-0.00271709
0.415492
-0.00263399
0.416394
-0.00249067
0.415449
-0.00226481
0.414064
-0.00195293
0.413598
-0.00163583
0.412975
-0.00137062
0.412632
-0.00104804
0.412166
-0.000753585
0.411853
0.413159
-0.000229213
0.412819
-0.000366169
0.413047
-0.000515095
0.413304
-0.000679007
0.413703
-0.000843807
0.414448
-0.00107231
0.417515
-0.00112856
0.417469
-0.00129337
0.418099
-0.00169811
0.41998
-0.00177507
0.420524
-0.00156298
0.41344
-0.00241722
0.402934
-0.00316275
0.381569
-0.0026246
0.401427
-0.00234434
0.415212
-0.00228906
0.416339
-0.0021867
0.415347
-0.0020272
0.413904
-0.00180029
0.413372
-0.00154386
0.412718
-0.00130824
0.412397
-0.00103014
0.411888
-0.00077424
0.411597
0.413214
-0.000250357
0.41294
-0.00039759
0.413195
-0.000534703
0.413441
-0.000708836
0.413878
-0.000884053
0.414623
-0.00100172
0.417632
-0.00115349
0.417621
-0.00146624
0.418412
-0.00168158
0.420195
-0.00167259
0.420515
-0.0013818
0.413149
-0.00219764
0.40375
-0.00291256
0.382283
-0.00234168
0.400856
-0.00203645
0.414907
-0.00199082
0.416293
-0.00192382
0.41528
-0.00182056
0.413801
-0.00161881
0.41317
-0.00145775
0.412557
-0.00122112
0.41216
-0.00100546
0.411672
-0.000807636
0.4114
0.413233
-0.000292451
0.413091
-0.000401367
0.413304
-0.000568179
0.413608
-0.000724979
0.414034
-0.00090573
0.414804
-0.00102103
0.417748
-0.0011819
0.417782
-0.00147335
0.418703
-0.00163675
0.420359
-0.00155169
0.420429
-0.00120668
0.412804
-0.00200467
0.404548
-0.00271701
0.382996
-0.00211932
0.400258
-0.00178358
0.414571
-0.00173091
0.41624
-0.00168583
0.415235
-0.00159644
0.413712
-0.00147667
0.41305
-0.00133515
0.412416
-0.00113511
0.41196
-0.000954871
0.411492
-0.00076689
0.411212
0.413281
-0.000287893
0.413224
-0.000446052
0.413462
-0.000594339
0.413756
-0.000752954
0.414193
-0.000935847
0.414986
-0.00102353
0.417835
-0.00119136
0.41795
-0.00146066
0.418973
-0.00168758
0.420585
-0.00142704
0.420169
-0.00104136
0.412419
-0.00182778
0.405334
-0.00255478
0.383723
-0.00194455
0.399648
-0.00157224
0.414199
-0.00150422
0.416172
-0.00147262
0.415203
-0.00141808
0.413657
-0.00130503
0.412937
-0.00119849
0.412309
-0.00107431
0.411836
-0.000925021
0.411342
-0.000788393
0.411075
0.413288
-0.0003051
0.413359
-0.000442347
0.413599
-0.000615076
0.413929
-0.000772997
0.414351
-0.000933166
0.415147
-0.00101466
0.417917
-0.00119102
0.418126
-0.00143724
0.419219
-0.00166335
0.420812
-0.0012926
0.419798
-0.000883437
0.41201
-0.00164972
0.406101
-0.00241623
0.384489
-0.0017912
0.399023
-0.00138988
0.413797
-0.00130061
0.416083
-0.00128183
0.415184
-0.00125835
0.413634
-0.00119152
0.41287
-0.00111474
0.412232
-0.000971752
0.411693
-0.00084975
0.41122
-0.000738528
0.410964
0.413319
-0.000322285
0.413494
-0.000459349
0.413736
-0.00060944
0.414079
-0.000764962
0.414506
-0.000946374
0.415328
-0.00102141
0.417992
-0.00118101
0.418286
-0.00140486
0.419443
-0.001578
0.420985
-0.00141464
0.419635
-0.000922386
0.411517
-0.00164565
0.406824
-0.00240498
0.385249
-0.00179293
0.398411
-0.00133596
0.413341
-0.00121874
0.415966
-0.00121077
0.415176
-0.00122543
0.413648
-0.00122359
0.412868
-0.00105987
0.412069
-0.000939387
0.411572
-0.000818781
0.4111
-0.00070751
0.410853
0.41335
-0.000340366
0.41363
-0.000475775
0.413871
-0.000601888
0.414205
-0.000776577
0.414681
-0.000932829
0.415484
-0.00102426
0.418083
-0.0011694
0.418431
-0.00136818
0.419641
-0.00159796
0.421214
-0.00136583
0.419403
-0.000934728
0.411086
-0.00167901
0.407568
-0.00252103
0.386091
-0.00195161
0.397841
-0.00147143
0.41286
-0.0013241
0.415819
-0.00130073
0.415153
-0.00129444
0.413642
-0.00126475
0.412839
-0.00123422
0.412038
-0.00115467
0.411493
-0.00109925
0.411044
-0.00100733
0.410761
0.413041
-0.000360181
0.413763
-0.00049285
0.414004
-0.000639134
0.414352
-0.00076437
0.414806
-0.0009174
0.415637
-0.00100296
0.418169
-0.00115838
0.418586
-0.00143841
0.419921
-0.00158879
0.421365
-0.00123142
0.419045
-0.000792184
0.410647
-0.00151937
0.408295
-0.00240904
0.38698
-0.00186365
0.397296
-0.0013517
0.412348
-0.0011728
0.41564
-0.00114
0.41512
-0.00117131
0.413673
-0.00113453
0.412802
-0.00112263
0.412026
-0.00108198
0.411452
-0.00102202
0.410984
-0.000969355
0.410708
0.412728
-0.000382528
0.413894
-0.000488934
0.41411
-0.000631755
0.414494
-0.00075257
0.414927
-0.000924274
0.415809
-0.00100464
0.418249
-0.00125376
0.418835
-0.00150451
0.420172
-0.00149502
0.421355
-0.00109266
0.418643
-0.000661348
0.410216
-0.00136001
0.408994
-0.00229693
0.387917
-0.00179346
0.396792
-0.00125203
0.411807
-0.00103754
0.415425
-0.000989403
0.415072
-0.00103347
0.413717
-0.00103267
0.412801
-0.00101426
0.412008
-0.000965527
0.411403
-0.000965684
0.410985
-0.00090528
0.410648
0.412428
-0.000385276
0.413997
-0.000532721
0.414258
-0.000648545
0.41461
-0.000787433
0.415066
-0.000909128
0.415931
-0.00112102
0.418461
-0.00138302
0.419097
-0.00146631
0.420255
-0.00139662
0.421286
-0.000959668
0.418206
-0.000533808
0.40979
-0.00120128
0.409661
-0.00218306
0.388899
-0.00172947
0.396339
-0.00116802
0.411245
-0.000914748
0.415172
-0.00084802
0.415005
-0.000902274
0.413772
-0.00091345
0.412812
-0.000908462
0.412003
-0.000894504
0.411389
-0.000862763
0.410953
-0.000837311
0.410622
0.412142
-0.000436531
0.414119
-0.000533954
0.414355
-0.000644673
0.414721
-0.000778862
0.4152
-0.00105413
0.416206
-0.00137484
0.418782
-0.00137721
0.4191
-0.00142104
0.420299
-0.00128947
0.421154
-0.000826605
0.417743
-0.000419459
0.409383
-0.00104405
0.410286
-0.00207204
0.389927
-0.00167848
0.395945
-0.00109384
0.410661
-0.000808865
0.414887
-0.000716116
0.414913
-0.000777698
0.413833
-0.000776456
0.412811
-0.000827326
0.412054
-0.000801407
0.411363
-0.000802817
0.410954
-0.00078798
0.410607
0.411843
-0.000445545
0.414211
-0.000560644
0.41447
-0.000688025
0.414848
-0.000772221
0.415285
-0.00149533
0.416929
-0.00135613
0.418642
-0.00137158
0.419115
-0.00137293
0.420301
-0.00118352
0.420965
-0.000697368
0.417257
-0.000313292
0.408998
-0.00089013
0.410863
-0.00195343
0.39099
-0.00163113
0.395623
-0.00103726
0.410067
-0.00071564
0.414565
-0.000592451
0.414789
-0.000660472
0.413901
-0.000689519
0.41284
-0.000703806
0.412068
-0.000731301
0.411391
-0.000718786
0.410942
-0.000712757
0.410601
0.411552
-0.00050224
0.41432
-0.000566939
0.414535
-0.000687521
0.414969
-0.00117582
0.415773
-0.00152712
0.41728
-0.001382
0.418497
-0.00135957
0.419093
-0.0013162
0.420257
-0.00107208
0.420721
-0.000573562
0.416759
-0.000217011
0.408642
-0.000741565
0.411387
-0.00183409
0.392083
-0.00158748
0.395376
-0.000990139
0.40947
-0.000640676
0.414216
-0.000483285
0.414632
-0.000552006
0.41397
-0.000585852
0.412874
-0.000628363
0.41211
-0.000617339
0.41138
-0.000633721
0.410958
-0.00061231
0.41058
0.411289
-0.000514994
0.414397
-0.000619962
0.41464
-0.000710216
0.415059
-0.00130693
0.41637
-0.00148844
0.417462
-0.00135777
0.418367
-0.00134043
0.419075
-0.00125022
0.420167
-0.000959316
0.42043
-0.00046198
0.416261
-0.00014551
0.408325
-0.00060613
0.411848
-0.00169967
0.393176
-0.00153716
0.395214
-0.000950949
0.408883
-0.000581615
0.413847
-0.000389219
0.41444
-0.000455948
0.414037
-0.000489647
0.412907
-0.000535066
0.412156
-0.0005501
0.411395
-0.000548525
0.410957
-0.000554599
0.410586
0.411008
-0.000549564
0.414467
-0.000627736
0.414718
-0.000709353
0.415141
-0.00116522
0.416825
-0.00142501
0.417721
-0.00137646
0.418318
-0.00131352
0.419012
-0.00117979
0.420033
-0.000845507
0.420095
-0.000355126
0.415771
-8.31527e-05
0.408053
-0.000477734
0.412243
-0.00156109
0.39426
-0.0014952
0.395148
-0.000924688
0.408313
-0.000542351
0.413464
-0.000310363
0.414208
-0.000395299
0.414122
-0.000399908
0.412912
-0.000447917
0.412204
-0.000440558
0.411388
-0.000487199
0.411003
-0.000473871
0.410573
0.410729
-0.000605976
-0.000679622
-0.00072946
-0.000951122
-0.00110232
-0.00134719
-0.0012355
-0.00106313
-0.000730506
-0.000319864
-0.000135527
-0.000436231
-0.00130279
-0.00133477
-0.000881618
-0.000547354
-0.000294746
-0.000321821
-0.000324625
-0.000368745
-0.000379957
-0.000383014
-0.000415355
0.00411995
-0.00453213
-0.0551951
0.0567463
0.00618743
-0.0561531
-0.00334313
-0.00343746
-0.0510825
-0.00708643
0.0517291
0.00122675
-0.00127792
-0.05724
0.0592516
0.00236352
-0.0591318
-0.00118452
-0.00129882
0.0572635
-0.00312856
-0.00321219
-0.00157733
0.00183852
-0.0564334
0.0581084
-0.00184057
-0.0584249
0.00112173
0.00103534
0.0593152
-0.000873436
-0.000989101
-0.00283061
0.00317383
-0.0539433
0.0549321
-0.00426336
-0.0553946
0.00472589
0.0577695
0.00133404
0.00125611
-0.00256305
0.00286718
-0.0512613
0.0509553
-0.00462404
-0.0514676
0.00513637
0.0048944
0.0544395
0.00203021
-0.00258344
-0.0499018
-0.000812795
0.0225921
0.000508776
-0.0112313
-0.0110568
-0.000979315
-0.00982123
-0.0105349
0.0480291
-0.00258427
-0.0481236
0.00267873
0.00496921
0.0505035
0.00445619
-0.00494745
-0.0506381
-0.0473146
0.000362579
0.0467731
0.00592534
-0.0505443
-0.00646353
-0.0497937
-0.00218215
0.050021
0.00410141
-0.00489046
-0.107093
0.0553505
-0.0549805
0.00374992
-0.051593
0.00420182
0.0520807
0.0135363
0.00549808
-0.0267518
0.0135849
-0.00290077
-0.00296675
0.00483942
-0.0237162
-0.00523414
0.0241109
0.00564768
-0.0560257
0.110272
0.00633326
-0.109155
-0.00745039
-0.105649
-0.00799868
0.10678
0.00176188
-0.0019904
-0.109438
0.0569841
-0.0569218
0.00116448
0.00345206
0.055694
0.0568029
0.00276483
-0.00299396
-0.0565738
0.0287379
-0.000872719
-0.0287248
0.00168234
-0.000822686
-0.0285113
-0.00270394
0.00262655
0.0285887
0.0140574
0.000505062
-0.0144405
-0.000121978
-0.0143178
0.00228162
-0.00249208
0.0145283
0.00224115
-0.0588616
0.113187
0.00314474
-0.112754
-0.00357842
-0.00672443
0.111283
-0.000837307
0.00114606
-0.109511
0.0561141
-0.0563403
-0.00135119
0.000792336
0.0570182
0.0570505
-0.000323279
0.000445384
-0.0571726
0.0286148
0.000498236
-0.0287252
-0.000641141
0.000253247
-0.028944
-0.000221612
0.000387634
0.0288904
-0.000112367
0.0125691
6.92424e-05
-0.0125648
-7.3567e-05
-0.012874
0.000101547
0.0128727
-0.000100242
-0.00157618
-0.0583387
0.112915
-0.000816997
-0.113263
0.00116512
-0.00235863
0.11342
-0.00239732
0.00292202
-0.107853
0.0537942
-0.0541127
-0.00251214
-0.00158694
0.0558705
0.0549571
-0.0024176
0.00274465
-0.0552841
0.00211274
0.0261394
-0.0262834
-0.00196876
-0.0273055
0.000876201
-0.00159361
0.0271204
0.000902488
0.0134527
-0.00169593
-0.0137798
0.0020231
-0.0128991
-0.000316258
2.84389e-05
0.0131869
-0.00382323
-0.0556243
0.110299
-0.00360031
-0.111096
0.0043977
0.00219451
0.112433
0.0234731
-0.00340483
-0.0236004
0.0017813
0.00175084
-0.0123138
-0.00161899
0.00164852
0.0122843
-0.00415143
-0.0520073
0.106973
-0.00447803
-0.107783
0.00528747
0.00489387
0.10948
0.0214035
-0.00270322
-0.0214798
0.00277958
-0.0223251
-0.00324347
0.0033801
0.0221885
-0.000339867
0.000189627
-0.0979827
-0.00103761
0.0487984
-0.0485647
0.000803866
0.000528112
0.0227811
-0.0013232
-0.0452459
-0.00342122
0.0959346
-0.0965238
0.00401043
0.00174419
0.0480676
-0.00277393
-0.0284803
0.00274288
-0.00387531
-0.0272945
0.00364181
0.027528
-0.0536613
0.00482515
0.0542105
-0.00537428
-0.0273741
0.0276401
-0.00208836
-0.002053
0.0284873
-0.0286037
-0.00134347
-0.00131412
0.00391084
-0.0246097
0.0249538
-0.00425494
0.00397958
-0.00421626
-0.0271374
0.00203311
-0.014417
-0.00193389
0.00274181
-0.00281442
0.0136089
-0.0540841
0.00693593
-0.00766836
0.0548165
-0.0270427
-0.00270968
0.0273595
0.00513473
0.0144311
0.0020496
-0.0144476
-0.000169827
-0.0290046
0.000523718
-0.000293349
-0.000883522
0.00162531
0.0289209
-0.000924833
0.00238667
0.0569946
-0.00257835
-0.0141164
0.0142097
-0.00097684
0.0143651
-0.000169265
-0.0143656
0.0142953
0.0143123
-0.00135754
-0.00146671
-0.000866889
-0.0141222
3.16853e-05
-0.0129645
5.87841e-05
0.000778732
-0.000314536
0.0135932
-0.0584339
0.00397736
0.0587221
-0.00208111
-0.00218444
-0.0141967
0.0139021
0.00107329
0.0141203
0.000168716
-0.0142573
0.0145806
0.00213216
0.000846991
-0.0145386
0.00448274
-0.058104
-0.0023554
-0.00245728
0.000884605
-0.0274797
-0.00150926
0.000798789
0.000468101
-0.000851558
0.0283101
0.000688169
-0.000666682
0.0568721
0.000845056
-0.0142671
0.0140924
0.000642775
0.0134288
0.000956036
-0.0135002
0.0142938
-0.00015038
0.000477897
-0.0142468
-0.000572975
-0.0125512
0.000225054
3.91477e-05
0.012563
-3.30127e-05
-0.0591293
-0.000415517
0.0589427
0.000352534
0.000249534
-0.0137667
0.0138178
-1.19454e-05
0.0130306
-0.00078308
-0.0128205
0.01404
0.000181844
9.70056e-06
-0.0137072
0.00011378
-0.0592544
5.95158e-05
-4.81729e-05
-0.0255995
-0.00213603
0.0255357
0.00106637
0.00113342
0.0246229
-0.0022452
0.00235619
-0.0247339
0.0133125
0.000992451
-0.0256732
0.00109644
0.00108997
-0.00166983
-0.0123857
0.00174166
-0.00185604
0.00234202
0.0129667
-0.0566461
-0.00356494
0.0562418
0.00200347
0.00196581
-0.0133404
0.013062
-0.00157766
0.0248519
0.00164622
-0.00310925
-0.0250587
0.0132814
-0.000567092
-0.00150071
-0.0135356
-0.00328752
-0.057036
0.00186752
0.0018099
-0.0236673
-0.00210454
0.0235681
0.00220373
0.0230209
-0.00188481
0.00194853
-0.0230846
-0.00224874
0.0245419
0.00232972
-0.00213121
0.00224505
-0.0237811
-0.00326211
-0.0224786
0.0034156
-0.00341703
0.0233126
0.00180481
0.00177278
0.00160733
0.0247424
-0.00311686
0.0237693
-0.00325865
-0.0239155
0.0529925
-0.00475555
-0.0534729
0.00523592
-0.0225792
-0.00131484
0.0225332
0.00136088
0.0226754
-0.000245981
0.000262696
-0.0226921
-0.00183437
0.0229556
0.00189972
-0.0014245
0.00145658
-0.0226113
0.0215057
-0.00104948
-0.0217883
0.00133212
-0.00259635
0.00267714
0.0213227
0.00490496
-0.00551354
-0.0530528
-0.0270515
0.00373656
-0.0249321
0.0036518
0.0251912
0.0125264
0.00371695
-0.0164364
0.000193092
0.00332468
-0.0109108
-0.00352777
0.0111139
-0.00252673
0.0029751
-0.10578
0.0513666
-0.0516379
-0.00229173
-0.00255253
0.0534715
0.0522305
-0.00286617
0.0031977
-0.052562
0.0240116
-0.0241141
-0.00202876
-0.0249781
-0.00212592
0.0248553
0.0111907
-0.00191738
-0.0113557
0.00208238
-0.0115212
-0.00202963
0.00216912
0.0113817
-0.00252165
-0.0489599
-0.00349712
0.104537
-0.104993
0.00395227
0.00513272
0.106217
-0.0114935
0.0028703
0.0118266
-0.00320331
0.0134882
0.00310086
-0.00309136
-0.0134977
-0.0241895
0.0245042
0.00452465
0.00520072
-0.0267454
0.00695415
-0.0532819
-0.00775633
-0.0251213
-0.00210209
-0.00200237
0.0260057
-0.00256262
0.0546247
0.00289503
-0.0108494
-0.000206576
0.0110857
-2.97929e-05
0.0117293
-0.000658986
0.00022983
-0.0113001
-0.0115202
-0.00120625
0.0114402
0.00128625
0.0116357
-0.00122311
0.00129857
-0.0117111
-0.000491826
0.0120928
0.000128275
-0.00137517
0.0116363
0.00118286
-0.011444
-0.00188239
-0.0113608
0.00172193
-0.00238799
-0.0106182
0.00209311
0.0109131
-0.00476027
0.00527335
0.0524794
0.0236203
-0.00326806
0.0226678
-0.00312561
-0.0228043
-0.00115561
0.0114608
0.00133047
0.0113043
-0.000998544
0.00101427
-0.01132
0.0225411
-0.00311676
0.0218599
-0.00267397
-0.0218891
0.0491459
-0.00386855
-0.0495825
0.00430516
-0.000130138
-0.0238055
0.000571694
0.0233639
0.00242813
-0.0488353
0.0243611
0.023754
-0.000981871
-0.000726138
0.00361929
-0.00391876
-0.0243102
0.0044373
-0.0234051
-0.0047484
0.00322576
-0.047241
-0.00137846
-0.00197976
0.0232562
0.0241173
-0.0244429
0.0240771
0.000235625
0.00341022
0.00907367
4.25169e-05
-0.0254762
0.00562546
0.0259311
-0.00302651
-0.00305384
-0.0130366
0.0126079
0.00383896
-0.0111026
0.0112486
0.00317862
0.00390534
-0.013225
0.00554419
-0.0250407
-0.00597968
-0.0145122
0.00279203
-0.00374759
0.0154677
0.00243892
-0.0141735
-0.00277756
-0.0126423
2.06296e-05
0.0125695
5.21183e-05
3.32276e-05
-0.0126749
-5.63793e-07
-0.0128223
-0.0019226
0.00230908
0.0124358
-0.00224619
-0.0137331
0.00315698
-0.0120577
-0.00330786
0.0239883
-0.0120722
0.00177023
0.00167926
0.0123435
-0.00129305
-0.0110363
-1.41773e-05
-0.00167126
-0.0121068
0.00172033
0.010635
-0.00157601
-0.0106363
0.00157733
-0.00187751
0.00200328
0.0110649
-0.0113785
0.0112901
-0.00194122
0.0109996
-0.00181553
-0.0111014
0.0217925
-0.00303853
-0.0219205
0.00316655
0.00128596
-0.0128266
0.0115684
-2.77297e-05
0.0281954
0.00347904
-0.0280251
-0.00182947
-0.00181981
0.0114753
-0.0123433
0.000952854
-8.48485e-05
-0.0140383
0.00207973
0.0132445
0.0025622