/*--------------------------------*- C++ -*----------------------------------*\
| =========                 |                                                 |
| \\      /  F ield         | OpenFOAM: The Open Source CFD Toolbox           |
|  \\    /   O peration     | Version:  5.x                                   |
|   \\  /    A nd           | Web:      www.OpenFOAM.org                      |
|    \\/     M anipulation  |                                                 |
\*---------------------------------------------------------------------------*/
FoamFile
{
    version     2.0;
    format      ascii;
    class       volVectorField;
    location    "100";
    object      U;
}
// * * * * * * * * * * * * * * * * * * * * * * * * * * * * * * * * * * * * * //

dimensions      [0 1 -1 0 0 0 0];

internalField   nonuniform List<vector> 
6584
(
(45.0033 -0.00899163 2.1171e-25)
(45.0024 -0.019725 1.02909e-23)
(45.0031 -0.0267584 9.27847e-29)
(45.0032 -0.0364542 -1.84525e-23)
(45.0037 -0.0466982 0)
(45.0038 -0.0581282 0)
(45.0035 -0.0696747 0)
(45.0017 -0.0779853 1.95199e-23)
(44.9987 -0.0803599 2.03263e-23)
(44.9935 -0.0696089 0)
(44.988 -0.0363192 1.06741e-23)
(44.984 0.0177869 -4.58666e-24)
(44.9845 0.0800509 -4.90896e-25)
(44.9896 0.130528 1.3117e-24)
(44.996 0.155898 5.02984e-25)
(45.0027 0.155638 3.903e-23)
(45.0062 0.140133 3.54287e-23)
(45.0076 0.118406 2.83123e-24)
(45.0074 0.0953413 2.56221e-23)
(45.0066 0.0742037 1.879e-23)
(45.0055 0.0564752 0)
(45.005 0.0405661 0)
(45.0038 0.0293115 2.96699e-23)
(45.005 0.0131833 1.83532e-23)
(45.0139 -0.0189243 -1.00351e-23)
(45.0118 -0.0397896 -3.92105e-23)
(45.0144 -0.0528809 -5.25012e-23)
(45.0156 -0.0724668 0)
(45.0179 -0.0930912 -7.13474e-24)
(45.0186 -0.116727 -5.89802e-23)
(45.0172 -0.141678 -3.61885e-23)
(45.0085 -0.16077 6.16024e-23)
(44.9963 -0.168729 -1.25649e-24)
(44.9623 -0.149541 -1.61719e-23)
(44.9201 -0.0819221 -6.09472e-27)
(44.8914 0.0319636 0)
(44.8946 0.164989 1.88579e-23)
(44.9305 0.271441 1.48869e-23)
(44.9804 0.323806 -8.46703e-23)
(45.0158 0.320937 -2.25035e-23)
(45.0309 0.285214 -5.47435e-23)
(45.0373 0.23824 -7.15842e-23)
(45.0358 0.189945 -1.90796e-22)
(45.0318 0.146782 -1.59145e-22)
(45.0265 0.111506 -1.0564e-23)
(45.0232 0.0796418 -4.60076e-24)
(45.0185 0.0587733 0)
(45.0207 0.0275837 1.5898e-23)
(45.0307 -0.0291197 -2.53433e-23)
(45.0291 -0.0589933 0)
(45.0348 -0.0770754 -1.02711e-23)
(45.0388 -0.106521 -6.82164e-23)
(45.0449 -0.137929 -1.0346e-22)
(45.0481 -0.175736 0)
(45.0458 -0.219283 0)
(45.0271 -0.254574 -1.86246e-23)
(44.9901 -0.293542 -3.04901e-24)
(44.9293 -0.21367 4.19086e-24)
(44.8598 -0.131834 -7.65058e-24)
(44.8028 0.0165274 -1.12267e-23)
(44.803 0.202959 0)
(44.8672 0.356675 0)
(44.9546 0.435214 1.95474e-24)
(45.0393 0.520945 -9.91174e-23)
(45.0825 0.441418 0)
(45.0961 0.360371 -2.98098e-23)
(45.0906 0.281292 0)
(45.0787 0.214221 -2.37463e-23)
(45.0651 0.161692 -6.99753e-23)
(45.0556 0.11448 -4.31328e-23)
(45.0451 0.0859795 0)
(45.0454 0.0419142 1.24286e-23)
(45.0513 -0.0386934 -1.55363e-23)
(45.0521 -0.0758428 0)
(45.0621 -0.0978326 -1.3756e-23)
(45.0714 -0.136504 0)
(45.0843 -0.178657 0)
(45.0945 -0.233114 0)
(45.0956 -0.301623 -3.42112e-23)
(45.0717 -0.370317 1.8595e-22)
(45.0028 -0.457257 -8.90317e-24)
(44.886 -0.379333 1.32248e-23)
(44.7374 -0.288756 -7.78112e-24)
(44.5807 -0.0547494 2.67993e-24)
(44.5532 0.298345 2.17927e-24)
(44.7042 0.589336 0)
(44.9069 0.695186 -1.4303e-22)
(45.0588 0.655553 0)
(45.1839 0.612515 0)
(45.1918 0.483461 2.45361e-22)
(45.1737 0.365065 1.66376e-22)
(45.1455 0.272065 -5.74629e-23)
(45.1185 0.203284 -4.13372e-23)
(45.0985 0.142447 0)
(45.0799 0.108324 1.75357e-23)
(45.0751 0.0546262 1.49404e-23)
(45.0744 -0.0467732 -6.03384e-24)
(45.0793 -0.0888397 -3.99356e-25)
(45.0952 -0.11318 -1.87368e-24)
(45.1128 -0.159606 -2.82979e-24)
(45.1364 -0.210772 5.28434e-24)
(45.1627 -0.28264 1.45917e-22)
(45.1771 -0.380946 -2.50646e-22)
(45.1745 -0.490482 2.21635e-22)
(45.0313 -0.540251 1.36764e-23)
(44.8857 -0.613103 6.48509e-23)
(44.5986 -0.57198 -6.61232e-24)
(44.1861 -0.235218 1.36146e-23)
(44.0686 0.440982 1.36223e-24)
(44.4534 0.977213 1.91418e-22)
(44.8983 1.08058 0)
(45.1653 0.939762 1.46774e-22)
(45.2636 0.72837 -3.65375e-23)
(45.3291 0.573892 -2.19469e-22)
(45.2864 0.429854 -1.2596e-22)
(45.2308 0.311932 4.28592e-23)
(45.1845 0.231455 -3.42243e-24)
(45.1493 0.16018 -2.13675e-24)
(45.1204 0.123264 2.0306e-23)
(45.1074 0.0642637 -8.10197e-24)
(45.0984 -0.052516 3.00156e-24)
(45.1092 -0.0965005 -7.90964e-24)
(45.1319 -0.120874 -4.46666e-25)
(45.161 -0.171978 0)
(45.1994 -0.226825 -3.13975e-23)
(45.2509 -0.313064 -1.53132e-23)
(45.2911 -0.41704 -9.72273e-23)
(45.2514 -0.535085 -2.15436e-23)
(45.1749 -0.713693 8.12049e-23)
(45.023 -0.952922 3.57717e-22)
(44.4858 -0.994179 7.74078e-23)
(43.7092 -0.689178 1.25705e-26)
(43.2781 0.524841 -2.22115e-24)
(44.1132 1.53544 3.6893e-23)
(45.0399 1.67648 -3.32083e-22)
(45.4146 1.27877 0)
(45.4875 0.927803 1.79948e-26)
(45.5113 0.632322 5.39243e-23)
(45.4249 0.464874 1.59492e-23)
(45.3308 0.326437 4.3715e-23)
(45.2591 0.241032 -1.86435e-23)
(45.2043 0.164445 0)
(45.1634 0.128458 -1.08127e-23)
(45.1396 0.0694468 -1.61377e-23)
(45.1215 -0.0552524 3.83463e-26)
(45.1391 -0.097773 -3.65909e-24)
(45.1691 -0.119299 4.61556e-24)
(45.2113 -0.170782 4.13714e-25)
(45.2671 -0.221739 8.2661e-25)
(45.3492 -0.314871 -4.85902e-23)
(45.4295 -0.414599 -6.61097e-23)
(45.4223 -0.578762 -1.94755e-24)
(45.455 -0.849872 -1.20817e-23)
(45.405 -1.28556 5.67041e-23)
(44.8002 -1.77436 0)
(43.1409 -1.9937 4.80788e-23)
(40.9571 0.634305 1.95943e-24)
(43.8586 3.20696 1.4545e-22)
(45.4031 2.36478 -4.40564e-24)
(45.8978 1.572 0)
(45.8258 1.03845 1.00004e-22)
(45.7328 0.620621 8.62367e-24)
(45.5799 0.452051 8.17621e-24)
(45.4376 0.306884 -2.76816e-24)
(45.3357 0.227253 -4.00192e-23)
(45.2584 0.152708 0)
(45.2047 0.122151 -1.02732e-23)
(45.1684 0.0690569 -1.06847e-23)
(45.1417 -0.0546665 -3.75421e-24)
(45.1663 -0.0924261 3.26561e-24)
(45.2027 -0.108137 1.70033e-24)
(45.2576 -0.154898 1.25557e-24)
(45.3305 -0.193214 -1.89116e-24)
(45.4424 -0.278899 2.29497e-23)
(45.5706 -0.351587 6.26444e-27)
(45.6321 -0.534156 -1.06178e-23)
(45.8244 -0.826958 9.03127e-27)
(46.0657 -1.35107 -1.34456e-22)
(45.958 -2.35417 -7.67773e-24)
(45.1254 -4.78654 3.31135e-24)
(45.4865 5.81493 2.6729e-23)
(46.6429 2.96415 -2.35624e-23)
(46.6276 1.6132 5.08418e-23)
(46.2565 0.981776 -8.1981e-24)
(45.9598 0.511386 2.87844e-23)
(45.7291 0.378231 2.90087e-23)
(45.5369 0.248 2.38552e-23)
(45.4045 0.187724 -1.44568e-23)
(45.3051 0.124127 0)
(45.2396 0.103771 0)
(45.1905 0.0625296 -7.35387e-29)
(45.1576 -0.0509458 -7.20446e-25)
(45.1881 -0.0813236 -1.49011e-25)
(45.229 -0.0889161 -5.69006e-25)
(45.2932 -0.126212 2.63691e-24)
(45.3786 -0.144526 3.15566e-24)
(45.5107 -0.207628 1.60843e-23)
(45.6767 -0.232512 4.42322e-23)
(45.8213 -0.386884 0)
(46.1628 -0.586563 0)
(46.7188 -0.931769 0)
(47.4314 -1.78612 -4.37144e-24)
(49.0236 -3.73246 6.55288e-25)
(49.9511 5.2051 0)
(48.3356 2.38251 0)
(47.3598 1.19223 0)
(46.6629 0.699993 1.15423e-23)
(46.1376 0.306654 0)
(45.8413 0.244731 -3.42353e-23)
(45.6112 0.153343 -2.06489e-23)
(45.4547 0.124824 -2.03281e-24)
(45.3377 0.0806884 0)
(45.2635 0.0744769 7.21667e-25)
(45.2029 0.0500728 1.80555e-24)
(45.1681 -0.0448018 1.54963e-25)
(45.2028 -0.0664329 -2.16868e-25)
(45.2451 -0.0650807 2.36596e-25)
(45.3133 -0.0901958 1.1753e-24)
(45.4031 -0.0858281 -2.83752e-24)
(45.5386 -0.117569 -1.99583e-25)
(45.717 -0.0899 -4.56651e-24)
(45.9217 -0.174323 -2.42539e-25)
(46.3183 -0.205408 0)
(46.9796 -0.215477 -1.19018e-23)
(48.1082 -0.423797 3.49375e-29)
(50.3872 -0.742213 -1.61225e-24)
(51.9844 1.58716 -3.94641e-24)
(49.3339 0.788202 -1.41386e-23)
(47.742 0.403122 -1.09277e-22)
(46.894 0.245652 0)
(46.2166 0.0490278 -7.53144e-23)
(45.8895 0.0729723 0)
(45.6457 0.0369169 -1.01344e-24)
(45.4775 0.0465659 0)
(45.3511 0.0274925 -1.52108e-24)
(45.2729 0.0372833 2.57872e-25)
(45.2039 0.0327817 -3.46349e-26)
(45.1734 -0.0373244 0)
(45.2098 -0.0503776 -1.27317e-24)
(45.2505 -0.0410688 -1.29547e-24)
(45.3168 -0.0542048 3.51105e-25)
(45.402 -0.0303802 3.95893e-25)
(45.5243 -0.0320249 4.28247e-24)
(45.687 0.0349624 1.64749e-23)
(45.9063 0.0322938 7.15854e-24)
(46.245 0.156147 0)
(46.7638 0.431529 5.7643e-23)
(47.7886 0.829415 1.70849e-23)
(49.3059 1.94538 -8.38641e-25)
(51.102 -2.15831 -1.55941e-24)
(49.1799 -0.921727 2.56513e-23)
(47.6359 -0.431194 3.54084e-24)
(46.8756 -0.237785 6.45718e-23)
(46.1797 -0.199828 3.24031e-22)
(45.8654 -0.102614 1.80186e-22)
(45.6348 -0.0810668 -1.2119e-22)
(45.4697 -0.0356407 -8.44866e-23)
(45.3433 -0.0283269 2.37331e-24)
(45.2664 -0.0035203 1.00605e-24)
(45.1931 0.0124439 -3.09978e-24)
(45.1743 -0.0296958 1.24233e-25)
(45.2101 -0.0357116 1.02053e-25)
(45.2469 -0.020909 3.02086e-25)
(45.3069 -0.0248313 4.23281e-25)
(45.3812 0.0109124 -1.76801e-32)
(45.4803 0.0297805 7.86791e-24)
(45.6085 0.113085 2.6068e-23)
(45.8021 0.172112 7.38538e-24)
(46.0177 0.372784 0)
(46.2705 0.758993 -1.70731e-23)
(46.9036 1.40521 -4.08239e-24)
(47.009 2.97573 -1.36149e-24)
(48.5728 -4.18611 5.8307e-25)
(48.1874 -2.01787 0)
(47.1637 -1.0249 -1.14603e-22)
(46.6466 -0.61233 8.82253e-23)
(46.0491 -0.390103 4.89252e-22)
(45.7822 -0.249964 3.14195e-22)
(45.5841 -0.182111 0)
(45.4342 -0.110494 -7.72295e-23)
(45.3161 -0.0799381 -4.59643e-23)
(45.245 -0.0433994 2.26888e-24)
(45.1714 -0.00889936 -3.27901e-24)
(45.1723 -0.0228944 0)
(45.2059 -0.024238 1.87031e-25)
(45.2377 -0.0070166 -2.25525e-25)
(45.2894 -0.0057734 -6.22668e-25)
(45.3503 0.0333612 0)
(45.425 0.0599008 -1.96511e-24)
(45.5143 0.13903 4.4549e-24)
(45.6659 0.22292 -8.52685e-25)
(45.7625 0.413453 -2.81557e-25)
(45.7831 0.734031 8.42135e-24)
(46.0186 1.26675 1.63806e-24)
(44.6834 2.52128 0)
(45.4164 -4.35971 7.60078e-25)
(46.9323 -2.27412 -1.7698e-24)
(46.5699 -1.26143 5.98453e-23)
(46.3162 -0.809934 5.41952e-24)
(45.8697 -0.501352 2.31431e-22)
(45.6654 -0.350306 2.30751e-22)
(45.5067 -0.255062 0)
(45.3791 -0.170082 -9.09635e-25)
(45.2742 -0.122217 1.64905e-23)
(45.2116 -0.0787809 9.75942e-24)
(45.1413 -0.0293899 3.32219e-25)
(45.1691 -0.0175266 0)
(45.1996 -0.016747 0)
(45.2265 8.47437e-05 0)
(45.2703 0.002505 0)
(45.3193 0.0381862 -3.41444e-25)
(45.3752 0.0608853 -1.15515e-25)
(45.4348 0.122582 -9.15413e-24)
(45.5323 0.19638 1.06264e-22)
(45.5799 0.328386 0)
(45.4977 0.486379 0)
(45.5364 0.717375 2.04099e-23)
(43.1198 1.02802 9.90478e-23)
(35.4385 -1.24578 -2.10784e-24)
(43.2417 -2.69311 -1.8393e-22)
(45.9654 -1.9026 -2.9064e-23)
(46.0728 -1.2045 -2.30161e-25)
(45.9922 -0.845078 -1.25578e-24)
(45.6864 -0.541638 -8.73826e-23)
(45.5412 -0.401564 7.83171e-24)
(45.4181 -0.297806 1.28823e-25)
(45.3134 -0.211069 -8.71455e-23)
(45.2235 -0.152917 0)
(45.1703 -0.107487 3.73409e-24)
(45.1055 -0.0476431 -7.15562e-24)
(45.166 -0.0137989 0)
(45.1933 -0.0131019 -8.47318e-25)
(45.2165 0.00139734 4.75366e-26)
(45.2541 0.00211914 0)
(45.2948 0.0307601 0)
(45.3397 0.0440495 -3.52132e-23)
(45.3843 0.0866287 8.86134e-24)
(45.4722 0.120346 1.44323e-22)
(45.4997 0.195781 1.49839e-22)
(45.4399 0.21685 1.11418e-22)
(45.4433 0.233097 0)
(42.826 0.0980348 -9.01688e-24)
(39.8315 -0.943441 1.91851e-23)
(42.759 -1.5992 -1.74859e-23)
(45.4792 -1.24272 1.74206e-23)
(45.7618 -1.01096 -1.73071e-23)
(45.6464 -0.699369 2.38413e-23)
(45.529 -0.529812 -2.42835e-24)
(45.427 -0.411747 -1.88405e-25)
(45.3301 -0.314629 -2.86361e-25)
(45.2464 -0.234516 0)
(45.1697 -0.172208 -4.09919e-23)
(45.1253 -0.128665 -4.47199e-23)
(45.067 -0.0630103 -1.02564e-23)
(45.1641 -0.0116175 3.43429e-26)
(45.1887 -0.0125989 -8.07627e-25)
(45.2094 -0.00142148 1.63573e-24)
(45.2431 -0.00396969 1.95177e-28)
(45.2794 0.0163884 -6.39491e-24)
(45.3196 0.0192853 -2.38683e-23)
(45.3606 0.041483 -8.91101e-23)
(45.4509 0.0521179 -1.41986e-22)
(45.4963 0.0707233 -3.37711e-23)
(45.4995 0.0146547 -5.28891e-24)
(45.5106 -0.103047 0)
(42.8862 -0.197753 -3.33448e-24)
(40.7104 -0.689122 -1.03597e-23)
(43.2971 -1.00697 -7.44546e-24)
(45.3372 -0.924292 -4.55076e-24)
(45.5985 -0.812878 -9.15162e-24)
(45.5116 -0.613279 -1.38736e-22)
(45.4096 -0.495576 0)
(45.3319 -0.397909 -1.23815e-23)
(45.2508 -0.313647 3.19175e-25)
(45.1823 -0.243498 -2.57157e-24)
(45.1165 -0.18165 4.41406e-24)
(45.0796 -0.142533 0)
(45.028 -0.0750193 0)
(45.164 -0.0107208 -2.60288e-26)
(45.1864 -0.014328 5.30634e-26)
(45.206 -0.00670093 6.62609e-25)
(45.2378 -0.0130514 0)
(45.2729 -0.000701942 -2.41066e-24)
(45.3135 -0.00706154 0)
(45.3572 -0.00186196 -3.3712e-23)
(45.4649 -0.0122701 -8.62527e-24)
(45.5683 -0.0476338 -1.19875e-25)
(45.6 -0.102006 -3.57904e-24)
(45.5619 -0.184687 1.31008e-23)
(42.7696 -0.194564 -3.14028e-23)
(40.9244 -0.549537 -2.63029e-23)
(43.259 -0.756576 3.76947e-24)
(45.2959 -0.691476 1.1028e-23)
(45.5161 -0.653434 5.1288e-24)
(45.4159 -0.52692 -6.76681e-23)
(45.3208 -0.445715 7.04265e-23)
(45.2555 -0.369997 0)
(45.1832 -0.300888 2.94877e-23)
(45.1252 -0.242065 -1.35996e-25)
(45.0671 -0.18365 6.54925e-24)
(45.0357 -0.150267 0)
(44.9902 -0.0839585 0)
(45.1659 -0.0107854 -7.26745e-26)
(45.1869 -0.0174036 9.7835e-26)
(45.2063 -0.0130207 -8.02291e-25)
(45.2379 -0.0230066 -6.4203e-25)
(45.2738 -0.0171851 0)
(45.3184 -0.0309944 0)
(45.3674 -0.0344688 3.64007e-23)
(45.4993 -0.0637634 -1.17943e-23)
(45.6226 -0.0917445 6.40096e-24)
(45.7693 -0.227229 -3.77655e-23)
(45.5349 -0.213636 0)
(43.0142 -0.230662 2.91876e-23)
(41.2128 -0.46124 -3.54136e-23)
(43.2609 -0.65069 4.51215e-23)
(45.3796 -0.430991 6.83794e-23)
(45.4372 -0.490032 7.51039e-23)
(45.3646 -0.440767 6.10926e-23)
(45.2586 -0.392349 6.19932e-23)
(45.1972 -0.335836 -8.30029e-24)
(45.1277 -0.281456 -4.65408e-24)
(45.076 -0.233624 -1.30788e-23)
(45.0229 -0.180375 -4.71925e-23)
(44.9952 -0.153024 1.85785e-24)
(44.9549 -0.0901275 -1.41438e-24)
(45.1696 -0.0115015 -6.00185e-25)
(45.1898 -0.0211071 1.19493e-25)
(45.2099 -0.0193553 -8.09434e-25)
(45.2423 -0.0325088 -1.67543e-24)
(45.2802 -0.0312201 0)
(45.3301 -0.0509023 0)
(45.3846 -0.056722 5.59129e-23)
(45.5375 -0.0991897 4.82896e-24)
(45.6818 -0.112965 -7.14568e-24)
(45.8195 -0.257046 -4.78309e-23)
(45.1127 -0.126467 0)
(43.6888 -0.323752 -9.73177e-23)
(41.3924 -0.387843 1.53641e-23)
(43.9064 -0.556542 9.96277e-24)
(45.3604 -0.345523 1.1006e-23)
(45.424 -0.429686 -1.89742e-23)
(45.3393 -0.369778 -1.95456e-23)
(45.2153 -0.347997 1.14702e-23)
(45.1538 -0.301387 -3.16473e-24)
(45.0831 -0.259794 -4.75317e-23)
(45.0346 -0.221147 -1.3914e-23)
(44.9844 -0.173807 -6.22284e-23)
(44.9589 -0.152034 0)
(44.9228 -0.0939956 -8.74997e-24)
(45.1751 -0.012616 -5.62277e-25)
(45.195 -0.0249429 -5.66006e-25)
(45.2161 -0.0251145 0)
(45.2499 -0.0409499 -1.26575e-24)
(45.2902 -0.042366 0)
(45.3454 -0.0667873 -4.52769e-23)
(45.4051 -0.0715543 -3.47207e-24)
(45.5746 -0.123625 6.09801e-24)
(45.7353 -0.125463 -8.69308e-24)
(45.8458 -0.269846 -9.64008e-24)
(45.1158 -0.127454 -1.65054e-23)
(43.7936 -0.287574 -5.51477e-23)
(41.4828 -0.345223 2.17403e-23)
(43.8604 -0.483163 -1.03714e-23)
(45.3296 -0.279745 -1.01842e-23)
(45.4155 -0.375777 -2.55e-24)
(45.3205 -0.310242 -1.19281e-23)
(45.1834 -0.310295 -9.16666e-24)
(45.121 -0.268236 -2.57343e-23)
(45.0473 -0.238168 -5.14598e-24)
(45.0002 -0.206573 -3.31312e-24)
(44.9515 -0.165388 -1.98911e-23)
(44.927 -0.148389 -8.73332e-24)
(44.8943 -0.0960143 -3.95718e-24)
(45.1819 -0.0139481 0)
(45.2019 -0.0286114 -1.32573e-24)
(45.2243 -0.0300281 -6.28588e-25)
(45.2597 -0.0481054 -8.89751e-25)
(45.3025 -0.0507582 4.10728e-24)
(45.3624 -0.079019 -4.88245e-23)
(45.4272 -0.0810599 0)
(45.6102 -0.139894 -1.13216e-23)
(45.7842 -0.132431 0)
(45.861 -0.270517 0)
(45.1031 -0.119711 7.9339e-27)
(43.8966 -0.256477 -4.6685e-25)
(41.5729 -0.315418 1.02974e-23)
(43.8093 -0.430849 -7.63131e-24)
(45.3014 -0.229992 -6.38425e-24)
(45.4107 -0.329699 -2.44705e-24)
(45.3072 -0.260237 2.14649e-24)
(45.1601 -0.277297 -3.94661e-24)
(45.0957 -0.237062 -6.94024e-24)
(45.0188 -0.217514 1.33348e-23)
(44.9719 -0.191028 -3.49445e-24)
(44.9237 -0.156064 0)
(44.8995 -0.142916 1.14066e-28)
(44.8693 -0.0965691 0)
(45.1899 -0.015386 0)
(45.2101 -0.031956 -1.66529e-24)
(45.2339 -0.0340318 -9.31727e-25)
(45.271 -0.0539554 2.17842e-24)
(45.3163 -0.0567716 0)
(45.3801 -0.0880867 2.40349e-24)
(45.45 -0.0867544 -3.10761e-23)
(45.6442 -0.15003 -2.17134e-23)
(45.828 -0.135365 -1.00234e-25)
(45.8666 -0.264984 2.9715e-26)
(45.0775 -0.107593 1.78485e-23)
(43.9912 -0.227101 -8.93896e-24)
(41.656 -0.29307 1.53103e-23)
(43.752 -0.392446 -5.22771e-24)
(45.2721 -0.191753 4.91267e-24)
(45.4076 -0.29112 -3.88205e-25)
(45.2987 -0.21822 -4.95742e-24)
(45.1437 -0.248423 2.18137e-24)
(45.0763 -0.208391 9.38856e-24)
(44.9963 -0.19827 -1.85758e-28)
(44.9487 -0.175253 -1.73421e-24)
(44.9005 -0.146428 -1.32754e-23)
(44.876 -0.136218 6.68391e-24)
(44.8478 -0.095967 6.27895e-24)
(45.1987 -0.0168816 -9.26829e-25)
(45.2193 -0.0349266 -1.90974e-24)
(45.2444 -0.0372045 -1.72618e-32)
(45.283 -0.0586063 4.77737e-24)
(45.3309 -0.0608874 1.07874e-23)
(45.3978 -0.094555 1.75588e-24)
(45.4727 -0.0898599 -3.08873e-23)
(45.6761 -0.15587 -1.81016e-23)
(45.8661 -0.13565 1.16566e-23)
(45.8631 -0.255493 0)
(45.0443 -0.0940072 3.51566e-24)
(44.081 -0.199754 -2.40594e-24)
(41.7352 -0.27457 5.10055e-24)
(43.69 -0.363072 -4.12578e-24)
(45.2389 -0.16174 -5.84494e-30)
(45.4039 -0.258425 -5.71577e-24)
(45.2935 -0.182417 -4.05273e-24)
(45.1323 -0.222992 -8.83702e-25)
(45.0615 -0.182281 5.10526e-24)
(44.9788 -0.180541 -8.49421e-24)
(44.93 -0.159702 -1.09221e-23)
(44.8815 -0.136821 -5.66592e-24)
(44.8563 -0.128729 -5.79251e-24)
(44.8296 -0.0944337 5.53868e-24)
(45.2081 -0.0184379 -4.89834e-33)
(45.229 -0.0375491 -1.03668e-24)
(45.2556 -0.0397054 1.1184e-24)
(45.2954 -0.062233 2.489e-24)
(45.3459 -0.0636037 3.41587e-28)
(45.4151 -0.0989766 0)
(45.495 -0.0913313 -1.05516e-26)
(45.7058 -0.158746 -1.63866e-23)
(45.8985 -0.134268 1.00282e-23)
(45.8514 -0.24316 0)
(45.0059 -0.0799221 -3.90019e-29)
(44.1688 -0.174157 1.79935e-24)
(41.8147 -0.258168 -4.83752e-24)
(43.6253 -0.340216 0)
(45.2014 -0.137856 1.12548e-24)
(45.3986 -0.230391 1.435e-24)
(45.2904 -0.15139 0)
(45.1248 -0.200269 1.20155e-24)
(45.0502 -0.158523 1.71405e-24)
(44.9654 -0.164209 -1.87013e-23)
(44.9148 -0.144604 -4.57777e-24)
(44.8661 -0.127395 4.83127e-24)
(44.8399 -0.120728 -5.70225e-24)
(44.8144 -0.0921194 0)
(45.2178 -0.0201022 1.04348e-24)
(45.239 -0.0398966 -1.08627e-24)
(45.267 -0.0417354 0)
(45.3078 -0.0650362 7.36446e-25)
(45.361 -0.065378 4.62765e-25)
(45.4317 -0.101838 8.37155e-25)
(45.5167 -0.0918978 0)
(45.7334 -0.159587 1.50697e-25)
(45.9251 -0.131862 8.2506e-24)
(45.8325 -0.228803 0)
(44.9636 -0.0658482 2.31425e-24)
(44.2555 -0.149842 9.53298e-25)
(41.8963 -0.242581 -3.59388e-24)
(43.5591 -0.322223 6.76785e-25)
(45.1596 -0.118639 -5.43858e-25)
(45.391 -0.206154 -1.23608e-25)
(45.2886 -0.124051 1.36386e-24)
(45.1204 -0.179629 -5.15041e-25)
(45.0418 -0.13683 -3.14867e-26)
(44.9555 -0.149059 -6.98005e-24)
(44.9028 -0.130059 2.45997e-24)
(44.8538 -0.118175 3.34153e-24)
(44.8264 -0.112393 -6.75146e-25)
(44.8019 -0.0891093 -8.59452e-26)
(45.2277 -0.021948 -3.07115e-26)
(45.2491 -0.0420689 -1.27005e-24)
(45.2785 -0.0435045 -5.72608e-26)
(45.32 -0.067217 0)
(45.376 -0.0666166 2.15724e-23)
(45.4477 -0.103541 0)
(45.5379 -0.0920982 -1.29991e-23)
(45.7586 -0.15901 0)
(45.9458 -0.128714 7.13376e-24)
(45.8066 -0.21276 2.39454e-24)
(44.9184 -0.0521229 0)
(44.3402 -0.126645 7.76493e-25)
(41.9816 -0.227192 0)
(43.4931 -0.307962 5.38055e-25)
(45.1134 -0.103012 -1.56855e-25)
(45.3806 -0.184989 0)
(45.2873 -0.0995907 0)
(45.1187 -0.160541 -3.97252e-25)
(45.0357 -0.116929 5.85602e-25)
(44.9486 -0.134854 0)
(44.8934 -0.116076 0)
(44.8443 -0.109108 2.09324e-24)
(44.8156 -0.103814 3.15627e-25)
(44.792 -0.0854369 -1.86762e-24)
(45.2376 -0.0240638 2.61308e-26)
(45.2591 -0.0441762 4.19627e-26)
(45.2899 -0.045217 0)
(45.3319 -0.0689625 -1.96316e-25)
(45.3908 -0.0676541 1.03999e-23)
(45.4629 -0.104409 3.01748e-25)
(45.5585 -0.0923266 -1.23653e-23)
(45.7812 -0.157433 -1.29991e-25)
(45.9604 -0.125002 0)
(45.7745 -0.195515 3.09713e-24)
(44.8713 -0.0389191 0)
(44.4225 -0.104621 0)
(42.0714 -0.211741 0)
(43.4295 -0.296329 3.94987e-24)
(45.0634 -0.0900826 3.21375e-24)
(45.367 -0.166299 0)
(45.2859 -0.0774302 -2.0647e-25)
(45.1192 -0.142578 0)
(45.0316 -0.0985668 0)
(44.9442 -0.121334 0)
(44.8862 -0.102621 0)
(44.8372 -0.100107 -1.12758e-24)
(44.807 -0.0950326 -1.14639e-24)
(44.7843 -0.0811107 4.35525e-30)
(45.2474 -0.02654 0)
(45.2689 -0.0463256 5.54472e-25)
(45.3011 -0.0470557 -5.96234e-25)
(45.3434 -0.0704346 1.17586e-24)
(45.4052 -0.0687598 9.97578e-24)
(45.4775 -0.104691 1.9947e-23)
(45.5785 -0.0928715 0)
(45.801 -0.155136 0)
(45.9686 -0.120832 7.42651e-25)
(45.7372 -0.177399 -1.14369e-24)
(44.8234 -0.0263707 -1.37502e-31)
(44.5028 -0.0837262 5.19128e-24)
(42.1658 -0.195501 2.73586e-24)
(43.3686 -0.286389 3.33078e-24)
(45.0099 -0.0793993 7.39534e-26)
(45.3499 -0.149991 0)
(45.2837 -0.0572157 -3.19129e-24)
(45.1218 -0.125442 -2.83363e-24)
(45.0292 -0.0814896 0)
(44.942 -0.108283 -2.6502e-24)
(44.881 -0.0896279 -3.05581e-39)
(44.8322 -0.0910598 3.14114e-24)
(44.8004 -0.0860585 2.03463e-24)
(44.7785 -0.0761075 1.56132e-24)
(45.2569 -0.0294537 -1.0946e-24)
(45.2782 -0.0486083 5.20488e-25)
(45.312 -0.049164 -5.63933e-25)
(45.3544 -0.0717684 2.26613e-24)
(45.4193 -0.070137 9.68322e-24)
(45.4915 -0.104573 3.72756e-23)
(45.5978 -0.0939196 0)
(45.8176 -0.152254 0)
(45.9703 -0.116234 6.68691e-25)
(45.6951 -0.158592 0)
(44.7755 -0.0144882 0)
(44.5806 -0.0639078 0)
(42.2654 -0.178308 0)
(43.3115 -0.277743 -2.79767e-24)
(44.9528 -0.0706431 -2.0538e-24)
(45.3289 -0.135776 -2.59101e-24)
(45.2802 -0.0387145 -4.94746e-24)
(45.126 -0.108921 -2.30517e-24)
(45.0284 -0.0655411 0)
(44.9416 -0.0955286 -8.2948e-25)
(44.8774 -0.0770437 0)
(44.829 -0.081868 0)
(44.7955 -0.0768848 8.8245e-25)
(44.7745 -0.0704047 8.91232e-26)
(45.266 -0.0328567 -1.05001e-24)
(45.2872 -0.0510928 -5.63815e-25)
(45.3225 -0.051647 1.03732e-26)
(45.3648 -0.0730587 5.38408e-26)
(45.4328 -0.0719058 -2.7394e-32)
(45.505 -0.104177 1.74967e-23)
(45.6165 -0.0955135 0)
(45.8305 -0.148788 -5.81378e-25)
(45.9655 -0.111189 7.57596e-25)
(45.6489 -0.139257 9.97409e-25)
(44.7283 -0.00332387 1.50651e-24)
(44.6553 -0.0452274 3.6248e-24)
(42.3702 -0.160144 8.6733e-25)
(43.2592 -0.270041 0)
(44.8927 -0.0635775 0)
(45.304 -0.123451 -4.06055e-26)
(45.2747 -0.0218442 2.00858e-24)
(45.1318 -0.0929007 7.05211e-30)
(45.029 -0.0506321 -1.87553e-24)
(44.9428 -0.0829543 0)
(44.8752 -0.064828 0)
(44.8273 -0.0724607 4.82004e-25)
(44.7921 -0.0675082 0)
(44.7719 -0.0639905 0)
(45.2747 -0.036766 0)
(45.2956 -0.0538104 -1.04062e-24)
(45.3324 -0.0545553 -5.19742e-25)
(45.3748 -0.0743574 -1.05948e-24)
(45.4458 -0.0741314 0)
(45.518 -0.103553 0)
(45.6342 -0.0975655 0)
(45.8392 -0.144684 -9.79482e-25)
(45.9541 -0.105655 0)
(45.5993 -0.119549 -1.08151e-25)
(44.6825 0.00704051 5.74847e-25)
(44.7258 -0.0278224 1.46708e-24)
(42.48 -0.141049 6.62737e-25)
(43.213 -0.262891 3.90151e-24)
(44.8303 -0.0580281 1.30853e-24)
(45.2752 -0.112891 0)
(45.2666 -0.00665767 -1.60502e-24)
(45.1389 -0.077374 -1.20811e-24)
(45.0309 -0.036739 0)
(44.9454 -0.0705015 0)
(44.8743 -0.0529744 0)
(44.827 -0.0627985 4.21288e-25)
(44.79 -0.0579417 0)
(44.7706 -0.0568769 0)
(45.2827 -0.0411489 8.64309e-27)
(45.3035 -0.0567542 -9.81338e-25)
(45.3417 -0.057879 -1.39459e-26)
(45.3842 -0.075681 0)
(45.4582 -0.0767873 -5.39985e-25)
(45.5304 -0.102651 -2.92236e-25)
(45.6508 -0.0999051 0)
(45.8435 -0.139828 -4.65718e-25)
(45.9362 -0.099577 5.3431e-25)
(45.5469 -0.0996742 7.23407e-25)
(44.6389 0.0164441 -1.08929e-25)
(44.7916 -0.0119385 1.11642e-24)
(42.5944 -0.121131 9.78408e-25)
(43.1738 -0.255825 5.63805e-26)
(44.7661 -0.0538064 -2.86354e-26)
(45.2423 -0.103991 1.37587e-24)
(45.2554 0.00668338 1.54233e-26)
(45.1467 -0.0624538 -4.51837e-26)
(45.0337 -0.0239228 0)
(44.949 -0.0581932 -4.3676e-25)
(44.8744 -0.0415178 -9.26156e-25)
(44.8276 -0.0528885 0)
(44.7889 -0.0482259 7.02266e-25)
(44.7702 -0.0491055 -4.74216e-25)
(45.2899 -0.0459191 0)
(45.3109 -0.0598702 -5.00559e-25)
(45.3503 -0.0615561 1.74277e-26)
(45.3932 -0.077013 1.72444e-28)
(45.4698 -0.0797311 0)
(45.5424 -0.101406 7.4877e-24)
(45.666 -0.102294 -1.63012e-24)
(45.8432 -0.134065 -2.60037e-25)
(45.9124 -0.0928716 -4.28958e-25)
(45.4928 -0.0798299 -5.07674e-25)
(44.5983 0.0247332 1.96042e-26)
(44.8516 0.00215804 1.49958e-24)
(42.7121 -0.100547 3.51728e-25)
(43.1426 -0.248379 5.04356e-26)
(44.7013 -0.0507699 -8.65892e-25)
(45.2061 -0.0966788 -1.06293e-24)
(45.2409 0.0179389 1.4681e-26)
(45.1552 -0.0483317 -3.16508e-26)
(45.0372 -0.0122925 0)
(44.9534 -0.0460955 -1.86331e-25)
(44.8754 -0.0305332 -7.2054e-25)
(44.8291 -0.0427799 0)
(44.7886 -0.0384365 2.82575e-25)
(44.7705 -0.0407541 -3.90923e-25)
(45.2965 -0.0509361 -4.79435e-25)
(45.3177 -0.063063 4.85863e-25)
(45.3582 -0.0654641 -9.65014e-25)
(45.4018 -0.0782504 3.66606e-27)
(45.4804 -0.0827396 -4.57082e-25)
(45.5536 -0.0996086 6.7709e-24)
(45.6792 -0.104094 -9.60808e-25)
(45.8372 -0.126874 -2.1623e-25)
(45.8819 -0.0853727 -3.70078e-25)
(45.4371 -0.0606615 -4.86357e-25)
(44.561 0.0310718 3.31866e-25)
(44.9059 0.0133356 -1.33384e-25)
(42.8336 -0.0795082 -2.75299e-25)
(43.1208 -0.238977 0)
(44.6359 -0.0481289 -8.68659e-25)
(45.1661 -0.09082 -7.67365e-25)
(45.2216 0.0265258 1.44184e-26)
(45.1636 -0.0355844 0)
(45.041 -0.00211906 5.35614e-26)
(44.9583 -0.0343854 4.93502e-26)
(44.8769 -0.0201551 -5.27023e-25)
(44.8312 -0.032564 -5.77845e-26)
(44.7891 -0.0286806 1.72851e-25)
(44.7715 -0.0319277 0)
(45.3018 -0.0559281 -4.29744e-25)
(45.3236 -0.0661542 4.43554e-25)
(45.3648 -0.069416 -4.33589e-25)
(45.4091 -0.0793354 0)
(45.4893 -0.0857633 0)
(45.5635 -0.0974576 -1.57415e-24)
(45.6903 -0.105557 5.13189e-25)
(45.829 -0.118742 -9.216e-25)
(45.8509 -0.0770517 -6.09107e-25)
(45.3864 -0.0416739 -1.93469e-25)
(44.5295 0.0365476 -5.1134e-25)
(44.9505 0.0225834 0)
(42.9457 -0.0582323 0)
(43.1068 -0.228896 0)
(44.5762 -0.0469046 0)
(45.1283 -0.0865667 1.24231e-25)
(45.2018 0.0325757 0)
(45.1719 -0.0239268 0)
(45.0446 0.00660406 5.88616e-26)
(44.9631 -0.0230628 0)
(44.8786 -0.0105473 0)
(44.8335 -0.0223453 0)
(44.7899 -0.0191546 1.69251e-25)
(44.7726 -0.0227829 0)
(45.3077 -0.0608182 0)
(45.3314 -0.0691138 -1.9713e-26)
(45.3725 -0.0733061 -2.29151e-26)
(45.4188 -0.0800935 -5.10088e-27)
(45.499 -0.0882417 -1.4424e-25)
(45.5743 -0.0937556 -2.43566e-24)
(45.6982 -0.102117 -1.25807e-24)
(45.8061 -0.103983 1.55621e-29)
(45.7984 -0.0655168 -3.27133e-32)
(45.319 -0.0277491 6.30369e-30)
(44.4972 0.0312271 -3.36091e-24)
(44.9998 0.01614 0)
(43.0916 -0.0357113 9.778e-25)
(43.1089 -0.199826 5.90486e-24)
(44.501 -0.038845 -2.1729e-24)
(45.0744 -0.0846595 2.44373e-25)
(45.1636 0.0306525 0)
(45.1797 -0.0181082 0)
(45.0465 0.0128152 0)
(44.9699 -0.01267 0)
(44.8806 -0.00187057 0)
(44.8373 -0.0122305 0)
(44.7914 -0.00990845 7.58293e-26)
(44.7744 -0.0133981 0)
(48.6753 -4.04559 9.08302e-25)
(49.6612 6.02816 3.36093e-24)
(45.0348 6.45625 1.61322e-23)
(50.3548 -1.14424 -1.57978e-24)
(52.148 2.22503 -7.12131e-25)
(50.1554 5.64564 -2.83155e-24)
(49.5407 1.69765 -7.69251e-25)
(51.4225 -1.89971 -6.90422e-24)
(52.2434 1.66893 -1.90725e-24)
(47.3141 2.93341 -3.21571e-24)
(48.783 -4.33665 1.16875e-23)
(51.1442 -2.31278 0)
(44.951 2.64531 3.11047e-28)
(45.3886 -4.89849 -6.4367e-24)
(48.3745 -4.52883 5.05665e-24)
(43.257 1.2209 0)
(39.2138 -0.560427 -1.16608e-24)
(34.8777 -1.35558 3.80854e-24)
(42.6103 -3.2939 4.19208e-23)
(44.9598 -4.80627 -9.66569e-24)
(44.6021 -4.55511 6.96336e-24)
(41.027 -0.27368 1.90758e-24)
(44.4154 6.07348 2.21196e-23)
(43.025 2.78093 4.58596e-23)
(47.1096 -2.03906 -5.37484e-24)
(48.4443 -3.61019 2.64491e-25)
(45.4575 -4.28564 -9.73103e-24)
(47.1903 10.6038 0)
(41.846 9.686 -1.27304e-23)
(49.4939 5.53243 0)
(48.15 3.19738 4.56602e-25)
(46.5396 3.47137 -6.06646e-23)
(48.0386 -0.7894 5.76979e-24)
(50.0557 -1.05161 -1.46548e-24)
(48.7651 -3.33154 3.01889e-25)
(49.8259 -2.68791 -2.74054e-25)
(50.6924 -3.09332 2.51685e-25)
(50.1832 -4.9804 -2.83947e-25)
(51.1726 5.03002 2.58691e-24)
(50.4052 7.67676 1.09628e-24)
(51.8895 2.10134 2.92139e-25)
(49.6339 1.51265 -1.69593e-23)
(48.6317 2.88325 6.95032e-24)
(47.9446 0.567115 1.18489e-23)
(49.4415 1.45149 6.80688e-25)
(50.1013 -0.68928 -6.45163e-27)
(50.233 0.426004 9.98818e-29)
(49.7009 1.16784 -1.53028e-24)
(50.4755 -0.760739 -2.8225e-26)
(49.4841 -1.77957 9.53353e-26)
(50.8295 1.5196 -2.13958e-24)
(51.336 -1.77978 -7.92649e-24)
(49.7151 -0.592505 1.72471e-24)
(49.7902 0.974127 -1.76136e-23)
(47.1456 1.33338 -1.20085e-23)
(47.4384 2.6034 8.94421e-25)
(49.2353 1.68705 0)
(48.5069 2.51666 0)
(46.2163 3.89558 -5.32698e-25)
(47.8986 3.08014 -6.1891e-26)
(44.8106 -5.21233 -2.15557e-25)
(46.9237 -3.79267 1.98957e-24)
(48.9378 -4.02287 5.56098e-28)
(48.6704 -2.09599 3.70858e-23)
(49.5336 -1.05084 2.92207e-23)
(41.7324 -6.63636 -9.18738e-25)
(43.4261 -6.19376 -9.81768e-26)
(45.8197 -4.44901 5.03042e-24)
(47.1884 -2.62501 0)
(48.3118 -2.32237 0)
(38.3231 -5.41952 1.03649e-24)
(39.6504 -6.39736 0)
(42.7853 0.235072 0)
(42.3085 -0.573735 9.40229e-24)
(39.5799 -0.643136 8.91681e-28)
(39.4408 -0.96284 9.40785e-24)
(41.4233 -1.85496 0)
(42.3941 -3.03473 0)
(50.0402 -5.25307 2.14611e-25)
(48.1692 -7.01778 1.35722e-24)
(47.3691 -4.77584 8.52451e-24)
(48.2901 -7.43621 3.59492e-25)
(50.0622 -5.42181 9.60774e-25)
(43.37 -7.88561 1.56721e-23)
(47.8703 -7.71905 1.79682e-24)
(50.2974 7.85503 -1.39301e-25)
(47.5266 10.4314 -1.512e-25)
(47.8457 6.866 -2.54001e-24)
(47.7867 9.84018 -2.72181e-25)
(50.3434 7.69112 7.89603e-26)
(50.5258 -1.02608 2.15762e-25)
(50.6971 -2.82703 0)
(50.0159 -2.31251 3.77589e-25)
(50.1055 -2.90142 1.02648e-26)
(49.2559 -0.815524 9.51233e-28)
(50.1764 -5.11915 -4.69643e-25)
(50.1481 -3.03849 1.07504e-26)
(50.8523 1.78006 -3.05725e-24)
(51.1772 4.84207 5.7603e-24)
(51.5731 3.81485 -3.37554e-25)
(51.1594 4.63238 -7.75522e-25)
(50.8277 2.17058 1.41951e-24)
(50.4376 7.51743 1.00357e-24)
(51.1542 4.8251 2.84782e-24)
(51.2925 4.30766 -4.6215e-25)
(48.1075 2.95029 0)
(49.5241 1.42972 -1.28941e-24)
(50.1045 0.785352 2.41681e-25)
(47.8847 1.70132 -1.04002e-25)
(46.83 3.15538 1.19969e-26)