/*--------------------------------*- C++ -*----------------------------------*\
| =========                 |                                                 |
| \\      /  F ield         | OpenFOAM: The Open Source CFD Toolbox           |
|  \\    /   O peration     | Version:  5.x                                   |
|   \\  /    A nd           | Web:      www.OpenFOAM.org                      |
|    \\/     M anipulation  |                                                 |
\*---------------------------------------------------------------------------*/
FoamFile
{
    version     2.0;
    format      ascii;
    class       volScalarField;
    location    "100";
    object      xf;
}
// * * * * * * * * * * * * * * * * * * * * * * * * * * * * * * * * * * * * * //

dimensions      [0 0 0 0 0 0 0];

internalField   nonuniform List<scalar> 
6584
(
0.0538899
0.0538899
0.0538899
0.0538899
0.0538899
0.0538899
0.0538899
0.0538899
0.0538899
0.0538899
0.0538899
0.0538899
0.0538899
0.0538899
0.0538899
0.0538899
0.0538899
0.0538899
0.0538899
0.0538899
0.0538899
0.0538899
0.0538899
0.0538899
0.0538886
0.0538886
0.0538886
0.0538886
0.0538886
0.0538886
0.0538886
0.0538886
0.0538886
0.0538886
0.0538886
0.0538886
0.0538886
0.0538886
0.0538886
0.0538886
0.0538886
0.0538886
0.0538886
0.0538886
0.0538886
0.0538886
0.0538886
0.0538886
0.0538873
0.0538873
0.0538873
0.0538873
0.0538873
0.0538873
0.0538873
0.0538873
0.0538873
0.0538879
0.0538879
0.0538879
0.0538879
0.0538879
0.0538879
0.0538873
0.0538873
0.0538873
0.0538873
0.0538873
0.0538873
0.0538873
0.0538873
0.0538873
0.053886
0.053886
0.053886
0.053886
0.053886
0.053886
0.053886
0.053886
0.053886
0.0538866
0.0538866
0.0538866
0.0538866
0.0538866
0.0538866
0.0538866
0.053886
0.053886
0.053886
0.053886
0.053886
0.053886
0.053886
0.053886
0.0538847
0.0538847
0.0538847
0.0538847
0.0538847
0.0538847
0.0538847
0.0538847
0.0538853
0.0538853
0.0538853
0.0538853
0.0538853
0.0538853
0.0538853
0.0538853
0.0538853
0.0538847
0.0538847
0.0538847
0.0538847
0.0538847
0.0538847
0.0538847
0.0538834
0.0538834
0.0538834
0.0538834
0.0538834
0.0538834
0.0538834
0.053884
0.053884
0.053884
0.0538843
0.0538843
0.0538843
0.0538843
0.053884
0.053884
0.053884
0.0538834
0.0538834
0.0538834
0.0538834
0.0538834
0.0538834
0.0538834
0.0538821
0.0538821
0.0538821
0.0538821
0.0538821
0.0538821
0.0538821
0.0538827
0.0538827
0.0538827
0.053883
0.0538831
0.0538831
0.053883
0.053883
0.0538827
0.0538827
0.0538821
0.0538821
0.0538821
0.0538821
0.0538821
0.0538821
0.0538821
0.0538808
0.0538808
0.0538808
0.0538808
0.0538808
0.0538808
0.0538808
0.0538814
0.0538814
0.0538814
0.0538817
0.0538817
0.0538817
0.0538817
0.0538814
0.0538815
0.0538808
0.0538808
0.0538808
0.0538808
0.0538808
0.0538808
0.0538808
0.0538795
0.0538795
0.0538795
0.0538795
0.0538795
0.0538795
0.0538795
0.0538801
0.0538802
0.0538802
0.0538804
0.0538805
0.0538805
0.0538805
0.0538802
0.0538802
0.0538795
0.0538795
0.0538795
0.0538795
0.0538795
0.0538795
0.0538795
0.0538782
0.0538782
0.0538782
0.0538782
0.0538782
0.0538782
0.0538782
0.0538789
0.0538789
0.0538789
0.0538792
0.0538793
0.0538793
0.0538792
0.0538789
0.0538789
0.0538783
0.0538782
0.0538782
0.0538782
0.0538782
0.0538782
0.0538782
0.0538769
0.0538769
0.0538769
0.0538769
0.0538769
0.0538769
0.053877
0.0538776
0.0538776
0.0538777
0.053878
0.0538781
0.0538781
0.053878
0.0538777
0.0538777
0.053877
0.0538769
0.0538769
0.0538769
0.0538769
0.0538769
0.0538769
0.0538756
0.0538756
0.0538756
0.0538756
0.0538756
0.0538756
0.0538757
0.0538763
0.0538763
0.0538764
0.0538767
0.0538768
0.0538769
0.0538768
0.0538765
0.0538764
0.0538757
0.0538757
0.0538756
0.0538756
0.0538756
0.0538756
0.0538756
0.0538743
0.0538743
0.0538743
0.0538743
0.0538743
0.0538743
0.0538744
0.053875
0.0538751
0.0538751
0.0538754
0.0538755
0.0538756
0.0538755
0.0538752
0.0538751
0.0538745
0.0538744
0.0538743
0.0538743
0.0538743
0.0538743
0.0538743
0.053873
0.053873
0.053873
0.053873
0.053873
0.053873
0.0538731
0.0538731
0.0538738
0.0538738
0.0538741
0.0538741
0.0485776
0.053874
0.0538742
0.0538739
0.0538739
0.0538732
0.0538731
0.0538731
0.053873
0.053873
0.053873
0.053873
0.0538717
0.0538717
0.0538717
0.0538717
0.0538717
0.0538718
0.0538718
0.0538718
0.0538725
0.0538725
0.0538728
0.0538725
0.0522703
0.0538726
0.0538726
0.0538726
0.0538719
0.0538719
0.0538718
0.0538718
0.0538717
0.0538717
0.0538717
0.0538717
0.0538704
0.0538704
0.0538704
0.0538704
0.0538704
0.0538705
0.0538705
0.0538705
0.0538712
0.0538712
0.0538711
0.0538712
0.0523194
0.053871
0.0538712
0.0538713
0.0538706
0.0538706
0.0538705
0.0538705
0.0538704
0.0538704
0.0538704
0.0538704
0.0538691
0.0538691
0.0538691
0.0538691
0.0538691
0.0538692
0.0538692
0.0538692
0.0538692
0.0538699
0.0538698
0.0538654
0.0530445
0.0538696
0.0538699
0.05387
0.0538693
0.0538693
0.0538692
0.0538692
0.0538691
0.0538691
0.0538691
0.0538691
0.0538678
0.0538678
0.0538678
0.0538678
0.0538678
0.0538679
0.0538679
0.0538679
0.0538679
0.0538679
0.0538685
0.0538606
0.0530484
0.0538682
0.053868
0.053868
0.053868
0.053868
0.0538679
0.0538679
0.0538678
0.0538678
0.0538678
0.0538678
0.0538665
0.0538665
0.0538665
0.0538665
0.0538665
0.0538666
0.0538666
0.0538666
0.0538666
0.0538666
0.053866
0.0535798
0.053453
0.0538663
0.0538667
0.0538667
0.0538667
0.0538667
0.0538666
0.0538666
0.0538665
0.0538665
0.0538665
0.0538664
0.0538652
0.0538652
0.0538652
0.0538652
0.0538652
0.0538653
0.0538653
0.0538653
0.0538654
0.0538653
0.0538644
0.0535782
0.0534525
0.053865
0.0538654
0.0538654
0.0538654
0.0538654
0.0538653
0.0538653
0.0538652
0.0538652
0.0538652
0.0538651
0.0538639
0.0538639
0.0538639
0.0538639
0.0538639
0.053864
0.053864
0.053864
0.0538641
0.053864
0.0538628
0.0535766
0.0534519
0.0538636
0.053864
0.0538641
0.0538641
0.0538641
0.053864
0.0538639
0.0538639
0.0538639
0.0538639
0.0538638
0.0538626
0.0538626
0.0538626
0.0538626
0.0538627
0.0538627
0.0538627
0.0538627
0.0538628
0.0538627
0.0538613
0.053575
0.0534511
0.0538621
0.0538627
0.0538628
0.0538628
0.0538628
0.0538627
0.0538626
0.0538626
0.0538626
0.0538625
0.0538625
0.0538613
0.0538613
0.0538613
0.0538613
0.0538614
0.0538614
0.0538614
0.0538614
0.0538615
0.0538614
0.0538598
0.0535734
0.0534501
0.0538607
0.0538614
0.0538615
0.0538614
0.0538615
0.0538614
0.0538613
0.0538613
0.0538613
0.0538612
0.0538612
0.05386
0.05386
0.05386
0.05386
0.0538601
0.0538601
0.0538601
0.0538601
0.0538602
0.0538601
0.0538584
0.0535718
0.0534491
0.0538592
0.0538601
0.0538602
0.0538601
0.0538602
0.0538601
0.05386
0.05386
0.05386
0.0538599
0.0538599
0.0538587
0.0538587
0.0538587
0.0538587
0.0538588
0.0538588
0.0538589
0.0538588
0.0538589
0.0538588
0.053857
0.0535703
0.053448
0.0538577
0.0538587
0.0538588
0.0538588
0.0538589
0.0538588
0.0538587
0.0538587
0.0538586
0.0538586
0.0538586
0.0538574
0.0538574
0.0538574
0.0538574
0.0538575
0.0538575
0.0538576
0.0538575
0.0538576
0.0538575
0.0538555
0.0535687
0.0534468
0.0538562
0.0538574
0.0538575
0.0538575
0.0538576
0.0538575
0.0538574
0.0538574
0.0538573
0.0538573
0.0538573
0.0538561
0.0538561
0.0538561
0.0538561
0.0538562
0.0538562
0.0538563
0.0538563
0.0538563
0.0538562
0.0538541
0.053567
0.0534457
0.0538548
0.0538561
0.0538562
0.0538562
0.0538563
0.0538562
0.0538561
0.0538561
0.053856
0.053856
0.053856
0.0538548
0.0538548
0.0538548
0.0538548
0.0538549
0.0538549
0.053855
0.053855
0.053855
0.0538548
0.0538527
0.0535654
0.0534445
0.0538534
0.0538548
0.0538549
0.0538549
0.053855
0.0538549
0.0538548
0.0538548
0.0538547
0.0538547
0.0538547
0.0538535
0.0538535
0.0538535
0.0538535
0.0538536
0.0538536
0.0538537
0.0538537
0.0538537
0.0538535
0.0538513
0.0535638
0.0534433
0.053852
0.0538535
0.0538536
0.0538536
0.0538537
0.0538536
0.0538535
0.0538535
0.0538534
0.0538534
0.0538534
0.0538522
0.0538522
0.0538522
0.0538522
0.0538523
0.0538523
0.0538524
0.0538524
0.0538524
0.0538522
0.0538499
0.0535622
0.0534421
0.0538506
0.0538522
0.0538523
0.0538523
0.0538524
0.0538523
0.0538522
0.0538522
0.0538521
0.0538521
0.0538521
0.0538509
0.0538509
0.0538509
0.0538509
0.053851
0.053851
0.0538511
0.0538511
0.0538511
0.0538509
0.0538485
0.0535606
0.0534408
0.0538492
0.0538508
0.053851
0.053851
0.0538511
0.053851
0.0538509
0.0538509
0.0538508
0.0538508
0.0538508
0.0538496
0.0538496
0.0538496
0.0538496
0.0538497
0.0538497
0.0538498
0.0538498
0.0538498
0.0538496
0.0538471
0.053559
0.0534394
0.0538478
0.0538495
0.0538497
0.0538497
0.0538498
0.0538497
0.0538496
0.0538496
0.0538495
0.0538495
0.0538495
0.0538483
0.0538483
0.0538483
0.0538483
0.0538484
0.0538484
0.0538485
0.0538485
0.0538485
0.0538483
0.0538457
0.0535574
0.0534381
0.0538464
0.0538482
0.0538484
0.0538484
0.0538485
0.0538484
0.0538483
0.0538482
0.0538482
0.0538482
0.0538482
0.053847
0.053847
0.053847
0.053847
0.0538471
0.0538471
0.0538472
0.0538472
0.0538472
0.053847
0.0538443
0.0535559
0.0534367
0.0538449
0.0538469
0.0538471
0.0538471
0.0538472
0.0538471
0.053847
0.0538469
0.0538469
0.0538469
0.0538468
0.0538457
0.0538457
0.0538457
0.0538457
0.0538458
0.0538458
0.0538459
0.0538459
0.0538459
0.0538457
0.053843
0.0535543
0.0534353
0.0538435
0.0538456
0.0538457
0.0538458
0.0538459
0.0538458
0.0538457
0.0538456
0.0538456
0.0538456
0.0538455
0.0538444
0.0538444
0.0538444
0.0538444
0.0538445
0.0538445
0.0538446
0.0538446
0.0538446
0.0538444
0.0538416
0.0535527
0.0534339
0.0538421
0.0538443
0.0538444
0.0538445
0.0538446
0.0538445
0.0538444
0.0538443
0.0538443
0.0538443
0.0538442
0.0538806
0.0538806
0.0538817
0.0538794
0.0538794
0.0538804
0.0538782
0.0538782
0.0538793
0.053877
0.053877
0.0538781
0.0538757
0.0538758
0.0538769
0.0538743
0.051392
0.0484685
0.0538744
0.0538756
0.0538819
0.0538831
0.0538819
0.0538831
0.0538807
0.0538806
0.0538818
0.0538811
0.0538817
0.0538806
0.0538807
0.0538817
0.0538795
0.0538794
0.0538805
0.05388
0.0538799
0.0538804
0.0538797
0.0538803
0.0538794
0.0538795
0.0538804
0.0538783
0.0538782
0.0538793
0.0538788
0.0538787
0.0538792
0.0538766
0.0538787
0.0538783
0.0538783
0.0538792
0.053877
0.053877
0.0538781
0.0538776
0.0538775
0.053878
0.0538654
0.0538707
0.053877
0.0538771
0.053878
0.0538535
0.0538644
0.0538758
0.0538759
0.0538768
0.0538482
0.0538509
0.0538729
0.052133
0.0513274
0.0510192
0.0538727
0.0538742
0.0538805
0.0538811
0.0538811
0.053881
0.0538805
0.0538817
0.0538811
0.0538804
0.053881
0.0538811
0.053881
0.0538804
0.0538793
0.0538798
0.0538799
0.0538798
0.0538792
0.0538804
0.0538799
0.0538788
0.0538797
0.0538798
0.0538797
0.0538791
0.0538804
0.0538798
0.05388
0.0538781
0.0538786
0.0538787
0.0538786
0.053878
0.0538792
0.0538786
0.0538715
0.0538765
0.0538787
0.0538784
0.0538773
0.0538791
0.0538784
0.0538788
0.0538773
0.0538768
0.053878
0.0538774
0.0538645
0.0538657
0.0538775
0.0538746
0.053875
0.0538771
0.0538746
0.0538776
0.053876
0.0538754
0.0538767
0.0538761
0.0538512
0.0538533
0.0538749
0.0538739
0.0538764
0.0538745
0.0538711
0.0538753
0.0538746
0.053837
0.0538478
0.0538812
0.0538811
0.0538817
0.0538813
0.0538816
0.0538758
0.0538757
0.0538768
0.0538763
0.0538762
0.0538767
0.0537183
0.0537158
0.0538744
0.0538746
0.0538755
0.0538817
0.0538813
0.0538817
0.0538811
0.0538812
0.0538768
0.0538774
0.0538775
0.0537792
0.053777
0.0537773
0.0537764
0.0537755
0.0537776
0.0537151
0.0537097
0.0538762
0.0538737
0.0538723
0.0537766
0.0537763
0.0538721
0.0538703
0.0538751
0.0538824
0.0538824
0.0538818
0.0538818
0.0538824
0.0538824
0.0538812
0.0538813
0.0538812
0.0538816
0.0538813
0.0538814
0.05388
0.0538801
0.0538781
0.0538781
0.0538689
0.0538685
0.0538539
0.0537232
0.0538637
0.0537204
0.0537187
0.0537317
0.0537329
0.0538497
0.053881
0.0538808
0.0538807
0.053881
0.0538807
0.0538807
0.053881
0.0538813
0.0538814
0.0538813
0.053881
0.0538807
0.0538807
0.0538796
0.0538795
0.0538802
0.0538801
0.0538792
0.0538793
0.0538794
0.0538796
0.0538798
0.0538793
0.0538795
0.0538794
0.0538801
0.0538802
0.0538804
0.0538799
0.0538801
0.05388
0.0538783
0.0538783
0.0538789
0.0538789
0.0538719
0.0538729
0.0538778
0.0538784
0.0538786
0.0538781
0.0538783
0.0538776
0.0538788
0.053879
0.0538792
0.0538787
0.0538789
0.0538787
0.0537821
0.0538771
0.0538013
0.0538037
0.0538016
0.0537998
0.053877
0.0538777
0.0538066
0.0538776
0.0538653
0.0538652
0.0538758
0.0538778
0.053878
0.0538775
0.0538777
0.0538758
0.0537774
0.0537771
0.0538764
0.0538007
0.0538002
0.0538004
0.0538003
0.0538763
0.0537768
0.0537778
0.0538521
0.0537281
0.0537313
0.0537231
0.0537271
0.0538524
0.0537078
0.0537654
0.053764
0.0534655
0.0537763
0.0537657
0.0522242
0.0537135
0.0537205
0.0538815
0.0538745
0.0538743
0.0538755
0.053875
0.0538748
0.0538753
0.0508355
0.0537972
0.0538135
0.0538816
0.0538755
0.0538761
0.0538762
0.0536985
0.0536967
0.0517334
0.0537554
0.0537511
0.0536993
0.0537007
0.0536679
0.0537107
0.0467417
0.053882
0.053882
0.0538817
0.0538817
0.053882
0.053882
0.0538801
0.0538802
0.05388
0.0538799
0.0538803
0.0538802
0.0538789
0.053879
0.0538788
0.0538793
0.0538791
0.053879
0.0538775
0.0538785
0.053866
0.053868
0.0536442
0.0536356
0.0538493
0.053733
0.0537401
0.0538661
0.0538648
0.0521887
0.0538815
0.0538813
0.0538817
0.0538805
0.0538805
0.0538803
0.0538808
0.0538808
0.0538811
0.0538805
0.0538807
0.0538807
0.0538795
0.0538796
0.0538794
0.0538799
0.0538797
0.0538796
0.0538797
0.0538796
0.0538798
0.0538791
0.0538792
0.0538794
0.0538798
0.0538799
0.05388
0.053879
0.0538795
0.0538796
0.0538797
0.0538798
0.0538792
0.0538793
0.0538792
0.0538787
0.0538785
0.0538784
0.0538785
0.0538783
0.0538784
0.0538791
0.053879
0.0538791
0.0538785
0.0538786
0.0538787
0.053871
0.0538751
0.0538782
0.0538785
0.0538786
0.053878
0.0538781
0.0538775
0.0538789
0.0538791
0.0538792
0.0538786
0.0538787
0.0538786
0.0538645
0.0537952
0.0537988
0.0538117
0.0538015
0.0538656
0.0538754
0.0538772
0.0538774
0.0538769
0.0538771
0.0538753
0.0538757
0.0537996
0.0538002
0.0538112
0.0538121
0.0538756
0.0537006
0.0536995
0.053875
0.0538106
0.0538112
0.053703
0.0537012
0.0536555
0.0536463
0.0538814
0.0538815
0.0538814
0.0536492
0.0537174
0.0536627
0.0536628
0.0536668
0.0537174
0.0538815
0.0538815
0.0538816
0.0538814
0.0538815
0.0537736
0.0537765
0.0537052
0.0537002
0.0537765
0.0537155
0.0537176
0.0537162
0.0537147
0.0537761
0.053773
0.0537743
0.0537131
0.0537116
0.0537768
0.0537194
0.053718
0.0536999
0.0536987
0.0538811
0.0538811
0.0538813
0.053881
0.0538811
0.0538811
0.0538799
0.0538802
0.0538775
0.0538784
0.0538671
0.0538672
0.0537312
0.0537773
0.0537761
0.0537777
0.0537778
0.0537288
0.0537732
0.0537758
0.0537766
0.0537742
0.0537198
0.0536716
0.0536745
0.0536656
0.0536695
0.0537196
0.0536295
0.053644
0.0538808
0.0538809
0.0538807
0.053881
0.0538809
0.0538809
0.0538805
0.0538804
0.0538807
0.0538806
0.0538811
0.0538812
0.0538811
0.0538812
0.0538811
0.0538806
0.0538805
0.0538805
0.0538806
0.0538808
0.0538809
0.0538806
0.0538808
0.0538808
0.0538808
0.0538807
0.0538794
0.0538796
0.0538797
0.0538795
0.0538793
0.0538797
0.0538795
0.053879
0.0538788
0.0538793
0.0538791
0.0538794
0.0538793
0.0538794
0.0538802
0.0538801
0.0538804
0.0538803
0.0538799
0.0538798
0.0538801
0.0538799
0.05388
0.05388
0.0538801
0.053879
0.0538795
0.0538795
0.0538796
0.0538795
0.0538793
0.0538794
0.0538795
0.0538781
0.0538783
0.0538784
0.0538768
0.0538761
0.0538765
0.0538768
0.0538736
0.0538733
0.0538757
0.0538742
0.0538788
0.0538789
0.053879
0.0538785
0.0538782
0.0538788
0.0538785
0.0538775
0.0538768
0.0538781
0.0538778
0.0538788
0.0538786
0.0538788
0.05387
0.0538745
0.0538783
0.0538784
0.0538781
0.0538775
0.0538782
0.0538783
0.0538789
0.053879
0.0538789
0.0538786
0.0538788
0.0538789
0.0537915
0.0538006
0.0538685
0.0538684
0.0538688
0.0538684
0.0537973
0.0538017
0.0538678
0.0538593
0.0538681
0.0538678
0.0537998
0.0538727
0.0538701
0.0538736
0.0538734
0.0538169
0.0538702
0.0538694
0.0538696
0.05387
0.0538197
0.0537989
0.0537955
0.0538647
0.0537755
0.0537861
0.0537764
0.0537728
0.0537886
0.0538651
0.0537977
0.053797
0.0537758
0.0537132
0.0537187
0.0537175
0.0537118
0.0537759
0.0537069
0.0537751
0.0537204
0.0537758
0.0537257
0.0537784
0.0537779
0.0537787
0.0537784
0.053725
0.0537073
0.05371
0.0536998
0.0536994
0.0536999
0.0537033
0.053658
0.0536571
0.0538819
0.053882
0.053883
0.0538749
0.053872
0.0538683
0.0538818
0.0538818
0.0538816
0.0538816
0.0538818
0.0538818
0.0538824
0.0538824
0.0538818
0.0538805
0.0538803
0.0538802
0.0538798
0.0538797
0.0538797
0.0538769
0.0538786
0.0538781
0.0538778
0.0538778
0.0538595
0.0538567
0.0538699
0.0537984
0.0537961
0.0538639
0.0538807
0.0538808
0.0538806
0.0538804
0.0538806
0.0538806
0.0538809
0.0538808
0.0538809
0.0538803
0.0538803
0.0538804
0.0538789
0.0538796
0.0538796
0.0538797
0.0538791
0.0538792
0.0538791
0.0538798
0.0538799
0.0538799
0.0538783
0.0538784
0.0538782
0.0538772
0.0538774
0.0538781
0.0538719
0.0538639
0.0538622
0.0538764
0.0538783
0.0538785
0.0538785
0.053879
0.0538791
0.0538791
0.0538785
0.0538786
0.0538785
0.0538779
0.0538771
0.0538772
0.053876
0.0538779
0.0538779
0.0538745
0.0538766
0.0538768
0.0536517
0.0536506
0.0538099
0.0538105
0.0538749
0.0536539
0.0536528
0.0537401
0.0537389
0.053846
0.0538813
0.0538813
0.0537767
0.0537591
0.0537621
0.0537782
0.0537741
0.0537534
0.0537562
0.0537544
0.0537546
0.0537776
0.0536989
0.0536957
0.05371
0.053718
0.0537188
0.0537766
0.0538821
0.053882
0.0538817
0.0538812
0.0538812
0.0538812
0.0538812
0.053881
0.053881
0.0538813
0.0538815
0.0538814
0.05388
0.05388
0.05388
0.0538801
0.0538801
0.05388
0.0538778
0.0538782
0.0538509
0.0538505
0.053869
0.0538679
0.0538466
0.0538491
0.0537385
0.0537404
0.0537395
0.0537396
0.0537245
0.0537423
0.0537445
0.0538638
0.0537966
0.0537979
0.0538809
0.0538807
0.0538807
0.0538807
0.053881
0.0538809
0.0538809
0.0538804
0.0538804
0.0538807
0.0538806
0.0538806
0.0538813
0.0538812
0.0538812
0.0538812
0.0538812
0.0538813
0.053881
0.0538809
0.0538809
0.0538801
0.0538802
0.0538803
0.0538803
0.0538803
0.0538792
0.0538794
0.0538801
0.0538802
0.0538802
0.0538799
0.05388
0.0538801
0.0538782
0.0538775
0.053878
0.053871
0.0538736
0.0538788
0.0538789
0.0538788
0.0538787
0.0538788
0.0538788
0.0537853
0.0538026
0.0538294
0.0538283
0.0538264
0.0538251
0.0538006
0.0538762
0.0538769
0.0538778
0.0538344
0.0538314
0.0538529
0.053851
0.0538098
0.0538297
0.0538281
0.0538287
0.0538263
0.0538777
0.0538778
0.0538758
0.0538753
0.0538776
0.0538776
0.0537987
0.053858
0.053858
0.0538585
0.053858
0.0537979
0.0537293
0.0537699
0.0537788
0.05377
0.05377
0.05373
0.0537249
0.0537417
0.0537405
0.0537053
0.0537011
0.053716
0.0536207
0.0536525
0.0536514
0.0536642
0.0537763
0.0537207
0.0537187
0.0537196
0.0537206
0.053766
0.0535894
0.0535911
0.0536752
0.0536784
0.0537208
0.0538815
0.0538816
0.0538815
0.0536971
0.053696
0.0536574
0.0536163
0.050757
0.0537014
0.053692
0.0536941
0.0536867
0.0536893
0.0537014
0.0467001
0.0535099
0.0536522
0.0538819
0.0538818
0.0538816
0.0538798
0.0538797
0.0538798
0.0538803
0.0538803
0.0538803
0.0538802
0.0538802
0.0538772
0.0538786
0.0538208
0.0538248
0.0538174
0.0538177
0.0538689
0.053854
0.0538514
0.0536429
0.0536168
0.0536167
0.0536276
0.0536237
0.0536408
0.0538804
0.0538804
0.0538805
0.0538803
0.0538804
0.0538804
0.0538789
0.0538796
0.0538795
0.0538795
0.0538792
0.0538792
0.0538793
0.053867
0.0538657
0.0538718
0.0538757
0.0538784
0.0538784
0.0538783
0.053879
0.053879
0.053879
0.0538785
0.0538786
0.0538786
0.053809
0.0538229
0.0538206
0.0538208
0.0538223
0.0538059
0.0536495
0.0536488
0.0536583
0.053655
0.0537024
0.0536808
0.0536814
0.0536178
0.0536188
0.0536528
0.0536252
0.0536294
0.0536177
0.0536206
0.0536494
0.0538814
0.0538813
0.0538813
0.0538814
0.0538815
0.0538815
0.0538816
0.0538814
0.0538815
0.0538815
0.0536599
0.053684
0.0536837
0.0536867
0.0536852
0.0536593
0.0536764
0.0536826
0.0536804
0.053684
0.0536841
0.0536715
0.0538815
0.0538815
0.0538815
0.0538813
0.0538813
0.0538814
0.0538814
0.0537738
0.0537787
0.0537653
0.0537679
0.0537035
0.0537018
0.0537377
0.0537372
0.0537171
0.053749
0.0537509
0.053773
0.0537427
0.0537398
0.0537449
0.0537762
0.0537523
0.0537493
0.0536949
0.0536968
0.0537143
0.0536846
0.0536868
0.0536807
0.0536823
0.0537104
0.0536934
0.0536926
0.053699
0.0536814
0.0536841
0.0536762
0.0536789
0.0536984
0.0538811
0.0538811
0.0538811
0.053881
0.053881
0.0538811
0.05388
0.0538799
0.0538799
0.0538799
0.0538801
0.0538801
0.05388
0.0538801
0.0538776
0.0538783
0.0538339
0.0538373
0.0538278
0.0538307
0.0538682
0.0538492
0.0538477
0.0538491
0.0538472
0.0538674
0.05384
0.0537392
0.0537372
0.0537265
0.0537402
0.0537406
0.0537734
0.053755
0.0537526
0.0537623
0.0537583
0.0537746
0.0537768
0.0537561
0.0537558
0.053752
0.0537544
0.0537757
0.0537468
0.0536665
0.0536884
0.0536879
0.0536322
0.0536376
0.0538809
0.0538808
0.0538808
0.0538808
0.0538809
0.0538809
0.0538809
0.0538805
0.0538805
0.0538804
0.0538804
0.0538805
0.0538806
0.0538805
0.0538812
0.0538812
0.0538812
0.0538813
0.0538811
0.0538811
0.0538811
0.0538806
0.0538806
0.0538806
0.0538805
0.0538805
0.0538805
0.0538805
0.0538806
0.0538808
0.0538808
0.0538808
0.0538809
0.0538809
0.0538809
0.0538807
0.0538808
0.0538807
0.0538807
0.0538795
0.0538794
0.0538797
0.0538796
0.0538796
0.0538795
0.0538796
0.0538789
0.0538789
0.0538792
0.0538792
0.0538802
0.0538801
0.0538802
0.0538801
0.0538801
0.0538801
0.0538803
0.0538803
0.0538804
0.0538802
0.0538803
0.0538803
0.0538803
0.0538802
0.0538799
0.0538798
0.0538798
0.0538797
0.0538797
0.0538798
0.05388
0.05388
0.05388
0.0538799
0.0538799
0.05388
0.0538792
0.0538794
0.0538767
0.0538729
0.053874
0.05387
0.0538715
0.0538764
0.0538763
0.0538747
0.0538752
0.0538766
0.053873
0.0538591
0.0538615
0.0538571
0.0538572
0.0538731
0.0538753
0.0538671
0.0538686
0.0538638
0.0538656
0.0538748
0.0538784
0.0538784
0.0538787
0.0538786
0.0538772
0.053877
0.053878
0.053878
0.0538705
0.053874
0.0538789
0.0538789
0.053879
0.0538787
0.0538787
0.0538787
0.0537887
0.0538281
0.0538294
0.0538031
0.0537975
0.0538249
0.0538263
0.0538409
0.0538376
0.0538718
0.0538568
0.0538583
0.0538739
0.0538607
0.0538591
0.0538595
0.0538605
0.0538739
0.053848
0.0538443
0.0538316
0.0538311
0.0538132
0.0538259
0.0538292
0.0537982
0.0538227
0.0538231
0.0538205
0.0538216
0.0537968
0.0537789
0.053783
0.0537747
0.053767
0.0537647
0.0537722
0.0537948
0.0538192
0.0538195
0.053822
0.0538204
0.0537942
0.053715
0.0537329
0.0537323
0.0537348
0.0537339
0.0537169
0.0537151
0.0537358
0.0537372
0.0537326
0.053734
0.0537122
0.0537074
0.0537324
0.0537306
0.0537369
0.0537346
0.0537237
0.0537357
0.0537356
0.0537308
0.0537335
0.0537261
0.0537425
0.0537426
0.0537261
0.0537056
0.053713
0.0536491
0.0536495
0.0537015
0.0536786
0.0536753
0.0536818
0.0536814
0.0537028
0.0536631
0.0536617
0.0536016
0.0536082
0.0538847
0.0538847
0.0538853
0.0538846
0.0538846
0.0538853
0.0538846
0.0538846
0.0538853
0.0538846
0.0538847
0.0538853
0.0538834
0.0538833
0.053884
0.0538833
0.0538833
0.0538843
0.0538833
0.0538833
0.0538843
0.0538833
0.0538833
0.0538843
0.0538833
0.0538833
0.0538843
0.0538833
0.0538834
0.053884
0.0538821
0.053882
0.053883
0.053882
0.0538819
0.053883
0.0538826
0.0538826
0.0538831
0.0538825
0.0538825
0.0538831
0.0538826
0.0538826
0.053883
0.053882
0.0538821
0.0538827
0.0538808
0.0538808
0.0538817
0.0538814
0.0538814
0.0538817
0.0538816
0.0538816
0.0538817
0.0538812
0.0538813
0.0538818
0.0538808
0.0538808
0.0538814
0.0538795
0.0538795
0.0538804
0.0538801
0.0538801
0.0538804
0.0538803
0.0538803
0.0538805
0.05388
0.0538801
0.0538805
0.0538795
0.0538796
0.0538802
0.0538783
0.0538783
0.0538792
0.0538789
0.0538789
0.0538792
0.0538791
0.0538791
0.0538793
0.0538788
0.0538789
0.0538793
0.0538783
0.0538784
0.053879
0.053877
0.053877
0.053878
0.0538777
0.0538777
0.053878
0.0538779
0.0538779
0.0538781
0.0538777
0.0538777
0.0538781
0.0538771
0.0538771
0.0538778
0.0538758
0.0538758
0.0538767
0.0538767
0.0538767
0.0538768
0.0538764
0.0538764
0.0538769
0.0538759
0.0538759
0.0538765
0.0538745
0.0538745
0.0538754
0.0538751
0.0538752
0.0538755
0.0538746
0.0538746
0.0538753
0.0538732
0.0538731
0.0538738
0.0538731
0.053873
0.053874
0.0538736
0.0538729
0.0538736
0.0489267
0.0535962
0.0536225
0.053873
0.0538732
0.0538742
0.0538732
0.0538733
0.053874
0.0538719
0.0538718
0.0538725
0.0538718
0.0538716
0.0538726
0.0538715
0.0528489
0.0528595
0.0523108
0.0538712
0.0538723
0.0538716
0.0538719
0.0538729
0.0538719
0.053872
0.0538727
0.0538705
0.0538704
0.053871
0.0538676
0.0533146
0.0528462
0.053041
0.0538638
0.0538708
0.0538703
0.0538705
0.0538712
0.0538806
0.0538808
0.0538808
0.0538807
0.0538808
0.0538805
0.0538817
0.0538815
0.0538815
0.0538794
0.0538796
0.0538796
0.0538796
0.0538795
0.0538793
0.0538805
0.0538802
0.0538803
0.0538782
0.0538784
0.0538784
0.0538784
0.0538784
0.0538781
0.0538792
0.053879
0.0538791
0.053877
0.0538771
0.0538771
0.0538772
0.0538772
0.053877
0.0538781
0.0538778
0.0538779
0.0538759
0.0538759
0.0538757
0.0538768
0.0538766
0.0538767
0.0538738
0.0538747
0.0538748
0.0506106
0.0534709
0.0534315
0.0523694
0.0523748
0.0466875
0.0538755
0.0538754
0.0538754
0.0538818
0.0538824
0.0538824
0.0538817
0.0538817
0.0538816
0.0538831
0.0538826
0.0538825
0.0538816
0.0538817
0.0538821
0.053882
0.0538819
0.0538831
0.0538826
0.0538826
0.0538807
0.053881
0.053881
0.0538811
0.053881
0.0538807
0.0538817
0.0538813
0.0538813
0.0538811
0.0538811
0.053881
0.0538817
0.0538816
0.0538816
0.0538807
0.0538812
0.0538811
0.0538811
0.053881
0.0538807
0.0538817
0.0538814
0.0538814
0.0538795
0.0538798
0.0538798
0.0538799
0.0538798
0.0538795
0.0538804
0.0538801
0.05388
0.05388
0.0538802
0.0538802
0.05388
0.05388
0.0538799
0.0538805
0.0538804
0.0538804
0.0538803
0.0538803
0.0538803
0.0538795
0.0538799
0.0538799
0.0538798
0.0538798
0.0538795
0.0538804
0.0538801
0.0538801
0.0538783
0.0538786
0.0538786
0.0538787
0.0538786
0.0538783
0.0538792
0.0538789
0.0538788
0.0538788
0.053879
0.053879
0.0538788
0.0538788
0.0538787
0.0538792
0.0538792
0.0538791
0.0538783
0.0538787
0.0538787
0.0538786
0.0538786
0.0538784
0.0538792
0.0538789
0.0538789
0.0538771
0.0538774
0.0538773
0.0538775
0.0538774
0.0538771
0.053878
0.0538777
0.0538776
0.0538776
0.0538778
0.0538778
0.0538777
0.0538778
0.0538775
0.053878
0.053878
0.0538779
0.0538652
0.0538445
0.0538455
0.0538771
0.0538775
0.0538775
0.0538774
0.0538774
0.0538771
0.0538781
0.0538778
0.0538777
0.0538537
0.0537984
0.0537983
0.0538456
0.0538452
0.0538642
0.0538758
0.0538761
0.0538763
0.0538762
0.0538762
0.0538759
0.0538768
0.0538765
0.0538765
0.0538485
0.0538063
0.053806
0.0538081
0.0538078
0.0538505
0.0538724
0.0538727
0.0538732
0.0521711
0.0538643
0.053863
0.0537507
0.0537486
0.0511792
0.0537973
0.0537971
0.0508929
0.053873
0.0538538
0.0538613
0.0538663
0.0538544
0.0538736
0.0538806
0.0538806
0.0538805
0.0538811
0.0538809
0.0538808
0.0538809
0.0538809
0.0538811
0.053881
0.0538809
0.0538811
0.0538816
0.0538816
0.0538817
0.0538811
0.0538812
0.0538812
0.0538804
0.0538804
0.0538804
0.053881
0.053881
0.053881
0.053881
0.0538809
0.0538809
0.0538809
0.0538809
0.053881
0.0538805
0.0538805
0.0538805
0.0538794
0.0538794
0.0538793
0.0538799
0.0538798
0.0538798
0.0538797
0.0538797
0.0538799
0.0538798
0.0538798
0.0538798
0.0538792
0.0538792
0.0538793
0.0538799
0.0538799
0.0538799
0.0538798
0.0538796
0.0538797
0.0538797
0.0538797
0.0538797
0.0538802
0.0538803
0.0538804
0.0538798
0.0538798
0.0538798
0.0538801
0.0538801
0.0538799
0.0538782
0.0538782
0.0538781
0.0538786
0.0538786
0.0538785
0.0538785
0.0538785
0.0538787
0.0538786
0.0538785
0.0538786
0.053878
0.053878
0.0538781
0.0538792
0.0538791
0.0538792
0.0538786
0.0538786
0.0538787
0.0538787
0.0538784
0.0538785
0.0538779
0.0538779
0.0538775
0.053879
0.0538789
0.0538787
0.0538772
0.0538754
0.0538756
0.0538756
0.0538757
0.0538768
0.053878
0.0538779
0.053878
0.0538757
0.053876
0.0538775
0.0538645
0.0538455
0.0538457
0.0538469
0.0538479
0.053866
0.0538775
0.0538772
0.0538773
0.0538745
0.0538773
0.0538773
0.0538768
0.0538769
0.0538751
0.0538767
0.0538778
0.0538778
0.0538774
0.0538775
0.053875
0.0538778
0.0538778
0.0538775
0.0538759
0.0538743
0.0538745
0.0538735
0.0538737
0.0538755
0.0538766
0.0538752
0.0538753
0.0538746
0.0538747
0.0538762
0.0538515
0.0538086
0.0538084
0.0537983
0.0537984
0.0538531
0.0538747
0.0538766
0.0538767
0.0538763
0.0538765
0.0538743
0.0538766
0.0538765
0.0538763
0.0538742
0.0538083
0.0538096
0.0537912
0.0538026
0.0538738
0.0538752
0.0538733
0.0538734
0.0538446
0.0537365
0.0537314
0.0538812
0.0538814
0.0538814
0.0538814
0.0538815
0.0538812
0.0538817
0.0538815
0.0538815
0.0538816
0.0538815
0.0538816
0.0538762
0.0538761
0.0538758
0.0538768
0.0538764
0.0538763
0.0538763
0.0538765
0.0538765
0.0538764
0.0538764
0.0538763
0.0538767
0.0538766
0.0538765
0.0537179
0.0537021
0.053703
0.0536988
0.0537002
0.0537166
0.0538745
0.0538748
0.0538749
0.0538816
0.0538816
0.0538817
0.0538813
0.0538814
0.0538814
0.0538814
0.0538815
0.0538818
0.0538812
0.0538814
0.0538813
0.0538814
0.0538814
0.0538812
0.0538771
0.0538772
0.0538769
0.0538775
0.0538772
0.0538771
0.0538773
0.0538773
0.0538775
0.0537772
0.0537565
0.0537567
0.0537554
0.053755
0.053776
0.0537147
0.0536971
0.0536975
0.0538762
0.053876
0.0538761
0.0538731
0.0538759
0.0538762
0.0538756
0.0538759
0.0538729
0.0537769
0.0537562
0.0537558
0.0537557
0.0537557
0.0537763
0.0538713
0.0538753
0.0538754
0.0538749
0.0538751
0.0538711
0.0538752
0.0538752
0.053875
0.0538824
0.0538821
0.0538821
0.0538822
0.0538822
0.0538825
0.0538818
0.0538821
0.0538821
0.0538819
0.0538819
0.0538818
0.0538824
0.0538821
0.0538822
0.0538821
0.0538821
0.0538824
0.0538813
0.0538812
0.0538812
0.0538815
0.0538815
0.0538816
0.0538813
0.0538813
0.0538813
0.0538815
0.0538815
0.0538814
0.0537977
0.0537982
0.0538538
0.0538638
0.0538447
0.0538446
0.0537203
0.0537063
0.0537066
0.0537037
0.0537041
0.0537189
0.0537324
0.05377
0.0537701
0.0537697
0.0537698
0.0537325
0.0538501
0.0538075
0.0538072
0.0538808
0.0538809
0.0538809
0.0538807
0.0538806
0.0538807
0.053881
0.0538811
0.053881
0.0538813
0.0538813
0.0538813
0.0538813
0.0538813
0.0538814
0.0538806
0.0538806
0.0538806
0.0538808
0.0538807
0.0538807
0.0538795
0.0538796
0.0538796
0.0538795
0.0538794
0.0538795
0.0538802
0.0538802
0.0538802
0.0538801
0.0538801
0.0538801
0.0538795
0.0538795
0.0538795
0.0538797
0.0538796
0.0538796
0.0538798
0.0538797
0.0538797
0.0538794
0.0538793
0.0538793
0.0538795
0.0538794
0.0538794
0.0538793
0.0538794
0.0538794
0.0538801
0.0538801
0.0538801
0.0538803
0.0538802
0.0538802
0.0538804
0.0538803