# Force coefficients
# liftDir    : (1.218700e-01 9.925460e-01 0.000000e+00)
# dragDir    : (9.925460e-01 1.218700e-01 0.000000e+00)
# pitchAxis  : (0.000000e+00 1.000000e+00 0.000000e+00)
# magUInf    : 1.500000e+01
# lRef       : 5.000000e-01
# Aref       : 4.000000e-01
# CofR       : (0.000000e+00 0.000000e+00 0.000000e+00)
# Time       	Cm           	Cd           	Cl           	Cl(f)        	Cl(r)        
100          	2.513214e-03	1.220702e-02	8.036095e-02	4.269369e-02	3.766726e-02
200          	6.876807e-04	1.120294e-02	8.602568e-02	4.370052e-02	4.232516e-02
300          	3.436175e-05	1.062319e-02	8.625794e-02	4.316333e-02	4.309461e-02
400          	-2.289905e-04	1.032169e-02	8.579930e-02	4.267066e-02	4.312864e-02
500          	-3.754011e-04	1.016578e-02	8.563966e-02	4.244443e-02	4.319523e-02
600          	-4.898964e-04	1.012695e-02	8.619161e-02	4.260591e-02	4.358570e-02
700          	-6.008691e-04	1.020310e-02	8.765327e-02	4.322577e-02	4.442751e-02
800          	-7.212331e-04	1.030928e-02	8.943069e-02	4.399411e-02	4.543658e-02
900          	-8.377848e-04	1.037776e-02	9.087219e-02	4.459831e-02	4.627388e-02
1000         	-9.306150e-04	1.040981e-02	9.183712e-02	4.498794e-02	4.684917e-02
1100         	-9.961934e-04	1.042295e-02	9.244137e-02	4.522449e-02	4.721688e-02
1200         	-1.040511e-03	1.042768e-02	9.281591e-02	4.536745e-02	4.744847e-02
1300         	-1.070469e-03	1.042945e-02	9.305753e-02	4.545829e-02	4.759923e-02
1400         	-1.091116e-03	1.043113e-02	9.322778e-02	4.552278e-02	4.770501e-02
1500         	-1.105848e-03	1.043362e-02	9.335972e-02	4.557401e-02	4.778571e-02
1600         	-1.116905e-03	1.043636e-02	9.346588e-02	4.561603e-02	4.784984e-02
1700         	-1.125442e-03	1.043870e-02	9.354969e-02	4.564940e-02	4.790028e-02
1800         	-1.131948e-03	1.044048e-02	9.361355e-02	4.567483e-02	4.793872e-02
1900         	-1.136876e-03	1.044166e-02	9.366051e-02	4.569338e-02	4.796713e-02
2000         	-1.140514e-03	1.044242e-02	9.369427e-02	4.570662e-02	4.798765e-02
2100         	-1.143018e-03	1.044307e-02	9.371857e-02	4.571627e-02	4.800230e-02
2200         	-1.144736e-03	1.044336e-02	9.373390e-02	4.572222e-02	4.801169e-02
2300         	-1.146116e-03	1.044348e-02	9.374539e-02	4.572658e-02	4.801881e-02
2400         	-1.147025e-03	1.044365e-02	9.375369e-02	4.572982e-02	4.802387e-02
2500         	-1.147703e-03	1.044375e-02	9.375962e-02	4.573211e-02	4.802751e-02
2600         	-1.148236e-03	1.044381e-02	9.376418e-02	4.573385e-02	4.803033e-02
2700         	-1.148647e-03	1.044389e-02	9.376795e-02	4.573533e-02	4.803262e-02
2800         	-1.148966e-03	1.044398e-02	9.377103e-02	4.573655e-02	4.803448e-02
2900         	-1.149249e-03	1.044398e-02	9.377323e-02	4.573736e-02	4.803586e-02
3000         	-1.149442e-03	1.044402e-02	9.377504e-02	4.573808e-02	4.803696e-02
3100         	-1.149627e-03	1.044404e-02	9.377655e-02	4.573865e-02	4.803790e-02
3200         	-1.149736e-03	1.044409e-02	9.377783e-02	4.573918e-02	4.803865e-02
3300         	-1.149855e-03	1.044410e-02	9.377879e-02	4.573954e-02	4.803925e-02
3400         	-1.149962e-03	1.044413e-02	9.377980e-02	4.573994e-02	4.803986e-02
3500         	-1.150028e-03	1.044413e-02	9.378037e-02	4.574015e-02	4.804021e-02
3600         	-1.150080e-03	1.044416e-02	9.378099e-02	4.574041e-02	4.804057e-02
