/*--------------------------------*- C++ -*----------------------------------*\
| =========                 |                                                 |
| \\      /  F ield         | OpenFOAM: The Open Source CFD Toolbox           |
|  \\    /   O peration     | Version:  5.x                                   |
|   \\  /    A nd           | Web:      www.OpenFOAM.org                      |
|    \\/     M anipulation  |                                                 |
\*---------------------------------------------------------------------------*/
FoamFile
{
    version     2.0;
    format      ascii;
    class       volScalarField;
    location    "500";
    object      p;
}
// * * * * * * * * * * * * * * * * * * * * * * * * * * * * * * * * * * * * * //

dimensions      [0 2 -2 0 0 0 0];

internalField   nonuniform List<scalar> 
6584
(
20.9986
19.1741
17.3491
15.5245
13.6999
11.8754
10.0509
8.22687
6.4031
4.57925
2.75481
0.929174
-0.898019
-2.72664
-4.55608
-6.38569
-8.21494
-10.0437
-11.8721
-13.7002
-15.5279
-17.355
-19.1812
-21.0063
21.0001
19.1784
17.3548
15.5305
13.7061
11.8806
10.0538
8.22823
6.40426
4.58069
2.75652
0.931072
-0.896182
-2.7251
-4.55495
-6.38536
-8.21597
-10.0463
-11.8765
-13.7058
-15.5339
-17.361
-19.186
-21.0076
21.0005
19.1817
17.3614
15.5386
13.7147
11.8891
10.0602
8.2312
6.40595
5.03812
3.2153
1.39095
-0.435875
-2.26527
-4.09623
-6.38912
-8.22426
-10.0566
-11.8868
-13.7154
-15.5422
-17.3674
-19.1888
-21.0086
21.0005
19.1823
17.3637
15.5438
13.7214
11.8971
10.0684
8.23802
6.4101
5.04043
3.21934
1.39674
-0.429878
-2.26185
-4.10141
-5.9402
-8.24028
-10.0708
-11.8985
-13.7248
-15.5493
-17.3708
-19.1903
-21.0094
21.0002
19.1822
17.3639
15.5455
13.7257
11.9031
10.0776
8.25288
6.87528
5.04526
3.225
1.40504
-0.420864
-2.26568
-4.12069
-5.96419
-7.79716
-10.0836
-11.9087
-13.7324
-15.5535
-17.3728
-19.1914
-21.0101
20.9998
19.1818
17.3636
15.5456
13.7271
11.9072
10.0862
8.72011
6.8968
5.07296
3.47046
1.64781
-0.173821
-2.04954
-4.1448
-5.98325
-7.81134
-10.0944
-11.9172
-13.7375
-15.5562
-17.3745
-19.1926
-21.0107
20.9994
19.1814
17.3633
15.5451
13.7268
11.908
10.0884
8.7224
6.90329
5.08775
3.5044
1.8023
-0.0133246
-2.07245
-3.93871
-6.00289
-7.82596
-10.1042
-11.9235
-13.741
-15.5585
-17.376
-19.1936
-21.0114
20.999
19.1809
17.3627
15.5444
13.7259
11.9069
10.0879
8.72271
6.90054
5.07963
3.49226
1.80864
-2.02698
-3.97625
-6.0231
-7.83909
-10.1107
-11.9277
-13.7438
-15.5604
-17.3772
-19.1944
-21.0118
20.9987
19.1805
17.3622
15.5437
13.7249
11.9053
10.0853
8.7201
6.89413
5.06381
3.4585
1.71916
-2.14481
-4.01698
-6.03904
-7.84633
-10.1127
-11.9293
-13.7456
-15.5617
-17.378
-19.1949
-21.0119
20.9984
19.1802
17.3618
15.5431
13.7241
11.9043
10.0837
8.71691
6.88756
5.05251
3.43802
1.68239
-2.1969
-4.03883
-6.04569
-7.84832
-10.1108
-11.927
-13.7447
-15.5619
-17.3782
-19.195
-21.0118
20.9983
19.1799
17.3615
15.5427
13.7237
11.9039
10.0831
8.71543
6.88561
5.05171
3.43995
1.69866
-2.17214
-4.02885
-6.03817
-7.84234
-10.1046
-11.9211
-13.74
-15.56
-17.3779
-19.1947
-21.0114
20.9983
19.1798
17.3614
15.5427
13.7238
11.9043
10.0837
8.71581
6.88805
5.0593
3.45728
1.74081
-2.10118
-3.9945
-6.01879
-7.82906
-10.0943
-11.9123
-13.7324
-15.5545
-17.3756
-19.1939
-21.0107
20.9984
19.1799
17.3616
15.543
13.7243
11.9055
10.0853
8.71789
6.89287
5.06973
3.4776
1.78407
-2.02471
-3.95122
-5.99335
-7.81104
-10.0804
-11.9008
-13.7227
-15.5466
-17.3714
-19.1926
-21.0097
20.9986
19.1801
17.3618
15.5434
13.725
11.9066
10.0869
8.26484
6.897
5.07508
3.48329
1.77879
0.0680855
-2.06871
-3.91126
-5.96501
-7.79057
-10.0639
-11.8873
-13.7112
-15.5383
-17.3655
-19.1894
-21.0085
20.9987
19.1803
17.3621
15.5437
13.7255
11.9071
10.0863
8.26036
6.8927
5.05882
3.46118
1.64916
-0.1709
-2.03299
-4.10697
-5.94138
-8.22616
-10.0524
-11.8782
-13.7029
-15.5307
-17.3578
-19.1827
-21.0057
20.9988
19.1804
17.3621
15.5437
13.7254
11.9065
10.0836
8.2521
6.87669
5.05035
3.22989
1.63655
-0.19293
-2.25812
-4.09806
-5.93278
-8.21927
-10.0464
-11.8724
-13.7004
-15.5263
-17.3521
-19.1772
-21.0028
20.9989
19.1804
17.362
15.5435
13.7248
11.9049
10.0792
8.2468
6.41626
5.04832
3.22514
1.40016
-0.425319
-2.26021
-4.09601
-5.92775
-8.21281
-10.0397
-11.8668
-13.6948
-15.5219
-17.3483
-19.1757
-21.0013
20.9989
19.1802
17.3617
15.5429
13.7237
11.9017
10.0737
8.24214
6.41451
4.59068
3.22185
1.39744
-0.432824
-2.26248
-4.55097
-6.38076
-8.20887
-10.036
-11.8633
-13.6907
-15.5176
-17.3444
-19.1717
-20.9991
20.9988
19.18
17.3612
15.5422
13.7225
11.8983
10.0684
8.2388
6.41259
4.58838
2.76058
0.937155
-0.89044
-2.72271
-4.54965
-6.37899
-8.20648
-10.0337
-11.8606
-13.6878
-15.5146
-17.3417
-19.1686
-20.997
20.9987
19.1797
17.3606
15.5414
13.7213
11.8955
10.0649
8.23702
6.41119
4.58677
2.75948
0.934903
-0.892405
-2.7224
-4.54892
-6.37769
-8.20467
-10.0318
-11.8585
-13.6855
-15.5125
-17.3395
-19.1661
-20.9954
20.9985
19.1793
17.3599
15.5404
13.72
11.8935
10.0626
8.23572
6.41016
4.58551
2.75853
0.933078
-0.893934
-2.72234
-4.54856
-6.37674
-8.20335
-10.0304
-11.8569
-13.6837
-15.5107
-17.3375
-19.1641
-20.9941
20.9983
19.1789
17.3592
15.5394
13.7186
11.8921
10.0611
8.23469
6.40905
4.58451
2.75768
0.932004
-0.89473
-2.72241
-4.5484
-6.37611
-8.2024
-10.0294
-11.8556
-13.6823
-15.5092
-17.3359
-19.1624
-20.9929
20.998
19.1784
17.3584
15.5384
13.7173
11.8908
10.0599
8.23348
6.40809
4.58371
2.75711
0.931297
-0.895254
-2.72244
-4.5483
-6.37563
-8.20169
-10.0285
-11.8546
-13.6813
-15.508
-17.3346
-19.1609
-20.992
20.9977
19.1779
17.3577
15.5374
13.7161
11.8895
10.0588
8.23236
6.40724
4.58287
2.75665
0.930796
-0.895632
-2.72248
-4.54824
-6.37525
-8.20117
-10.0279
-11.8538
-13.6804
-15.507
-17.3334
-19.1597
-20.9911
20.9975
19.1774
17.3569
15.5364
13.7149
11.8883
10.0578
8.23133
6.40628
4.58205
2.75629
0.93041
-0.895896
-2.72249
-4.54819
-6.37498
-8.20076
-10.0273
-11.8531
-13.6796
-15.5061
-17.3325
-19.1587
-20.9904
20.9972
19.1769
17.3562
15.5354
13.7137
11.8872
10.0569
8.23037
6.40531
4.58127
2.75546
0.929717
-0.896455
-2.72276
-4.54837
-6.37495
-8.20066
-10.0271
-11.8529
-13.6794
-15.5056
-17.3318
-19.1578
-20.9897
20.9969
19.1764
17.3555
15.5346
13.7126
11.8861
10.0559
8.22952
6.40439
4.57983
2.75401
0.928348
-0.897661
-2.72381
-4.54938
-6.37579
-8.20143
-10.0278
-11.8536
-13.6799
-15.5058
-17.3319
-19.1578
-20.9896
20.9966
19.1759
17.3548
15.5337
13.7116
11.8851
10.0551
8.22869
6.40312
4.57806
2.75229
0.926605
-0.899371
-2.72543
-4.55096
-6.37723
-8.20281
-10.0291
-11.8548
-13.681
-15.5068
-17.3329
-19.1586
-20.9899
20.9963
19.1754
17.3542
15.5329
13.7106
11.8842
10.0543
8.22748
6.40145
4.57634
2.75059
0.924906
-0.901043
-2.72703
-4.55251
-6.37866
-8.20418
-10.0304
-11.856
-13.6821
-15.5079
-17.3339
-19.1596
-20.9902
20.996
19.175
17.3536
15.5321
13.7097
11.8832
10.0531
8.22579
6.3998
4.57464
2.74893
0.923242
-0.902678
-2.72858
-4.55406
-6.38009
-8.20557
-10.0317
-11.8573
-13.6833
-15.5089
-17.3349
-19.1606
-20.9906
20.9958
19.1746
17.3529
15.5314
13.7087
11.8818
10.0512
8.2241
6.39815
4.57296
2.74728
0.921605
-0.904287
-2.73013
-4.55557
-6.38153
-8.20697
-10.033
-11.8585
-13.6845
-15.5101
-17.3359
-19.1616
-20.9909
20.9955
19.1742
17.3524
15.5307
13.7072
11.8794
10.0492
8.22241
6.39652
4.57131
2.74565
0.919989
-0.905875
-2.73165
-4.55708
-6.38294
-8.20837
-10.0343
-11.8598
-13.6857
-15.5112
-17.3371
-19.1627
-20.9914
20.9953
19.1738
17.3519
15.5297
13.7047
11.8765
10.0472
8.22072
6.3949
4.56964
2.74405
0.918393
-0.907446
-2.73317
-4.55856
-6.38438
-8.20975
-10.0356
-11.861
-13.6869
-15.5124
-17.3382
-19.1637
-20.9917
20.9951
19.1735
17.3514
15.5281
13.7017
11.8737
10.0452
8.21903
6.39328
4.56801
2.74243
0.916812
-0.909006
-2.73466
-4.56005
-6.38579
-8.21115
-10.0369
-11.8623
-13.6881
-15.5136
-17.3393
-19.1648
-20.9921
20.9949
19.1732
17.351
15.5266
13.6989
11.8709
10.0432
8.21733
6.39163
4.56635
2.7408
0.915249
-0.910553
-2.73613
-4.56153
-6.38716
-8.21255
-10.0382
-11.8636
-13.6893
-15.5148
-17.3404
-19.1659
-20.9925
20.9948
19.1729
17.3507
15.5255
13.697
11.8686
10.0412
8.21566
6.39007
4.56472
2.73918
0.913699
-0.912101
-2.73759
-4.56299
-6.38857
-8.21395
-10.0396
-11.865
-13.6906
-15.516
-17.3416
-19.167
-20.993
1.72797
-1.91616
-1.79512
1.68375
-1.9833
-1.9297
1.69453
-1.96366
-1.98568
1.73497
-1.89044
-1.95625
1.77964
-1.80737
-1.88
1.79185
0.195513
0.0727286
-1.73587
-1.79753
1.81799
0.216848
-1.77787
-1.70976
3.46663
1.96227
2.03133
-1.0366
-0.891613
-2.13285
-3.56143
-3.52169
3.44095
1.92038
1.95427
1.69829
0.919565
0.948503
-1.21071
-1.16659
-2.19445
-3.59616
-3.57298
3.43756
1.92806
1.91906
1.68319
0.9084
0.903795
-1.24663
-1.25097
-2.17904
-3.59295
-3.59909
3.45217
1.96386
1.93171
1.71292
0.961352
0.937065
-1.13448
-1.18936
-2.11085
-3.55762
-3.58637
-1.00788
-1.08352
-2.0339
-3.50912
-3.54598
-0.906745
-0.949755
1.6533
0.166374
0.185173
-0.061844
-1.56538
-1.72749
0.953817
1.0051
1.75993
0.886506
0.832999
0.993829
0.896288
-1.16311
-1.07767
-1.86898
-1.1579
-1.21613
0.90424
0.91642
1.69334
0.827094
0.811968
0.8279
0.828181
-1.24658
-1.21606
-1.96814
-1.26924
-1.28886
-1.21901
-1.26542
-1.9606
0.933532
0.911357
1.68516
0.818605
0.845853
0.812482
0.816183
-1.19486
-1.24262
-1.98061
-1.28431
-1.24958
-1.29191
-1.28786
-1.98404
0.849183
0.878145
0.848347
0.845357
-1.08684
-1.13321
-1.92038
-1.1887
-1.17075
-1.24506
-1.19074
-1.93005
0.920395
0.94359
0.882156
0.9157
-0.95614
-1.0015
-1.16443
-1.11975
-1.84825
0.967825
0.942851
0.945803
0.965657
-0.852006
-0.902108
1.77204
1.01524
1.10131
-0.541958
-0.389535
3.47285
2.00423
1.96913
1.75861
1.02753
0.996136
-0.498145
-0.523263
-1.96631
-3.46294
-3.4968
0.616413
0.492754
-1.01396
-1.14351
-1.85075
0.992198
0.965115
1.71819
0.429958
0.449661
0.519782
0.526071
0.447304
0.465095
-0.52713
-0.551374
-1.83795
-1.11342
-1.0694
0.527729
0.538794
-1.06331
-1.02166
-1.76892
0.222802
0.953965
1.00599
-0.872996
-0.746453
0.095384
-0.569572
-0.978888
-0.620606
-0.459898
-0.601687
-0.957707
-1.18849
-1.19007
-1.2599
-1.25984
-1.1636
-1.16144
-1.02656
-0.63468
-1.05913
-0.47243
-0.495513
-0.581576
-0.557216
-0.930513
0.426715
0.859275
0.464646
0.48365
0.466809
0.85162
0.486642
0.545283
0.935368
0.478388
0.42556
-1.12787
-1.12334
0.814261
0.814545
0.839802
0.838709
-1.22033
-1.21711
-1.26207
-1.61114
-1.60084
-1.62197
-1.61408
-1.26524
-1.24016
-1.57648
-1.55678
-1.59675
-1.58193
-1.24072
0.832202
0.834183
0.811477
0.812309
-1.20464
-1.20933
-1.25389
-1.6096
-1.61993
-1.59159
-1.60538
-1.24959
-1.3005
-1.62681
-1.6238
-1.62255
-1.62659
-1.3005
0.433806
0.860939
0.485907
0.464213
0.504969
0.484332
0.865067
0.829527
0.467945
0.833208
-1.1098
-1.11221
-1.21754
-1.57025
-1.58615
-1.54799
-1.56484
-1.21655
0.503888
0.518839
0.895691
0.522271
0.504799
0.555661
0.524941
0.900472
0.46677
0.50049
-0.975486
-0.60725
-0.585081
-0.627452
-0.606845
-0.982138
-0.544751
0.528742
0.541422
0.200044
0.540649
0.525184
-0.0136211
-0.416468
-0.46955
-0.0507036
3.48723
2.13203
2.00833
1.79561
1.12955
1.11468
-0.025302
-0.739257
-0.786811
0.428444
1.05499
1.03183
1.76433
0.291488
0.283374
0.176649
0.527364
0.509914
0.291898
0.309331
-0.362581
-0.400801
0.0368276
0.310707
0.621905
0.628993
-0.367762
-0.273668
0.176277
0.928985
1.29071
1.27979
-1.19382
-1.02972
-1.17486
0.904302
1.26637
1.26838
1.26626
1.2649
0.903733
-1.25486
-1.25587
-1.14725
-1.16887
-0.233748
-0.237405
-0.9243
-0.554219
-0.561092
0.88578
0.875666
0.205341
0.950115
0.55743
0.667175
-1.14599
-0.98872
-1.02262
-1.19791
-1.51316
-1.47884
-1.54919
-1.52233
-1.20866
0.906657
1.27015
1.26578
1.27818
1.27064
0.907892
0.819011
0.624083
0.650408
0.62232
0.621122
0.813367
0.652845
0.651694
0.832841
-1.23767
-1.20922
-1.26568
-1.42351
-1.39535
-1.44456
-1.43867
-1.2803
1.2708
1.27558
0.921134
0.825044
0.648192
0.624447
0.81137
0.622067
0.622675
0.619959
0.618318
0.813796
-1.19218
-1.2304
-1.27285
-1.43488
-1.44058
-1.3766
-1.41118
-1.24893
-1.29717
-1.44908
-1.44488
-1.44341
-1.44682
-1.29565
-1.09609
-0.923729
-0.921432
-0.986168
-0.968189
-1.12584
-1.19693
-1.52484
-1.54223
-1.50163
-1.51888
-1.19085
0.932204
0.57223
0.559004
0.60961
0.604342
0.935272
0.330453
0.332972
0.954266
0.621382
0.612565
0.328083
0.330113
-0.22473
-0.226932
-0.487421
-0.158117
-0.463372
-0.277916
-0.510426
-0.339868
-0.314602
-0.351142
-0.515174
0.556628
0.381267
0.483023
0.358762
0.537014
0.422896
0.43454
0.310692
0.296516
0.522113
0.349947
0.358517
0.348076
0.346366
0.522238
0.443745
0.449274
-0.534928
-0.53603
0.532401
0.364419
0.355414
0.307422
0.30415
-0.665179
-0.819118
-0.778883
-0.861946
-0.830912
-0.685823
-1.18893
-1.17962
-1.25702
-1.25851
-1.15311
-1.1629
-0.667511
-0.820553
-0.830585
-0.80814
-0.818948
-0.663302
-0.840754
-0.863656
-0.83542
-0.837151
-0.482283
-0.301389
-0.294056
-0.32178
-0.302927
-0.485024
-0.242255
-0.272713
0.455043
0.651385
0.642181
0.674058
0.655865
0.455679
0.619793
0.619999
0.637632
0.621521
0.511953
0.699474
0.67949
0.45334
0.448391
-0.971879
-0.981567
-1.14225
-0.928745
-0.893313
-0.871667
-0.917764
-0.900261
-1.10494
-0.950861
-0.964478
0.617586
0.619052
0.817761
0.557968
0.557375
0.59517
0.560073
0.56143
0.563325
0.558657
0.56225
0.812983
0.621123
0.618555
0.591255
0.583659
0.619375
0.600473
0.591295
0.596393
0.584934
0.589422
0.833428
0.650906
0.649357
-1.2347
-1.20926
-1.42945
-1.42367
-1.26108
-1.2772
-1.43781
-1.43053
0.655884
0.65152
0.827689
0.597232
0.59838
0.553673
0.591966
0.591363
0.603006
0.59736
0.593162
0.620867
0.622056
0.812008
0.562906
0.560992
0.563925
0.562792
0.557504
0.554962
0.560652
0.55898
0.812661
0.619185
0.620451
-1.19195
-1.22444
-1.42419
-1.43151
-1.26782
-1.24477
-1.41388
-1.42069
-1.45075
-1.44872
-1.29892
-1.2976
-1.4489
-1.44957
0.433419
0.469756
0.652332
0.658959
0.641246
0.648957
0.456766
0.498075
0.672389
0.648521
0.661118
0.669219
0.49038
0.620523
0.619342
0.612048
0.620092
0.476681
0.63412
0.639857
0.620026
0.631113
0.471306
-0.948564
-0.930341
-1.10007
-0.879841
-0.906329
-0.867677
-0.87042
-0.910082
-1.12131
-0.958831
-0.942267
0.509722
0.33895
0.348757
0.356879
0.335628
0.511818
0.31303
0.475425
0.348973
0.48237
-0.627514
-0.796742
-0.804774
-0.782547
-0.793255
-0.619551
-0.566588
-0.577051
0.336054
0.349594
0.308823
0.326339
-0.197066
-0.222422
-2.01263
-3.5088
-3.47784
-1.76023
-1.07101
-1.03649
0.36138
0.493033
0.4805
-0.0216111
0.0215381
0.292748
-1.74228
-1.00121
-0.997353
1.30827
1.29359
0.932938
-1.20484
-1.16141
-1.16814
-1.25085
-1.25268
1.28879
1.29664
0.94689
-1.14596
-1.13828
-1.18285
-0.918633
-0.901452
-1.0728
0.972264
1.33074
1.31253
0.680083
0.684177
0.838293
-0.92193
-0.944508
-1.09935
0.849629
0.663236
0.678412
-1.24316
-1.17533
-1.18141
-1.21963
-1.34393
-1.34151
-1.28587
-1.39076
-1.38453
-1.251
0.924017
1.27863
1.28542
0.664047
0.655298
0.840265
-1.19886
-1.15834
-1.15213
-1.23866
-1.28075
-1.33747
-1.34038
-1.2939
-1.34801
-1.34616
-1.34322
-1.34575
-1.29127
0.823443
0.677252
0.669048
-1.22873
-1.36683
-1.37317
-1.14497
-1.47795
-1.49567
0.219672
0.21838
0.635076
0.624818
0.956729
0.221739
0.220685
-0.554877
-0.534696
-0.885108
-0.52956
-0.47961
0.426166
0.397983
0.401505
0.450506
0.44456
0.389316
0.39378
0.409166
0.406446
0.462748
-0.503813
-0.494852
-0.54722
0.364797
0.36406
0.533676
-0.830484
-0.419243
-0.440057
-0.588696
-0.632863
-0.685849
-0.670977
-0.764051
-0.747643
-0.765909
-0.726298
-0.543693
-1.13257
-1.1346
-1.18629
-1.18863
-1.13587
-1.13809
-1.26133
-1.25994
-1.11078
-1.1086
-1.16257
-1.15872
-1.10458
-1.10454
-0.71054
-0.719498
-0.690078
-0.696867
-0.644282
-0.72929
-0.73802
-1.06932
-0.897725
-0.891311
0.428532
0.462252
0.519793
0.520153
0.547662
0.541333
0.479467
0.50053
0.503013
0.517224
0.500681
0.461421
0.69928
0.705253
0.51933
0.466517
0.4013
0.404503
0.427815
-0.793281
-0.782054
0.649253
0.656875
0.84758
0.504633
0.506076
-1.22453
-1.21401
-1.36877
-1.36291
-1.23129
-1.24666
-1.37843
-1.37342
0.83825
0.655197
0.65591
-1.19906
-1.21392
-1.35348
-1.35331
-1.30039
-1.30073
-1.35325
-1.35337
0.4371
0.486297
0.541051
0.542292
0.520075
0.518845
0.459905
0.680957
0.678703
0.826224
0.503389
0.499812
0.510887
0.517528
0.47167
0.52383
0.522188
0.495869
0.493173
-1.3548
-1.36019
-1.22367
-1.20648
-1.34366
-1.34979
0.510862
0.661017
0.666523
0.651262
0.655329
0.506727
-0.596073
-0.74202
-0.779502
-0.729531
-0.736051
-0.593648
-0.625566
-0.686437
-0.686434
-0.54818
-0.508659
-0.590824
0.192528
0.228182
0.241128
0.219774
0.549904
0.379827
0.368311
0.386383
0.381998
0.522048
-0.058235
-0.0882709
-0.28888
-0.283183
-0.457756
0.399193
0.428059
0.365347
0.286678
0.283258
0.33239
0.333247
0.172523
0.307109
0.262739
0.258236
0.258094
0.261126
0.309978
0.107802
-0.147458
-0.185261
-0.330214
-0.0698614
-0.112372
-1.14966
-1.15524
-1.19918
-1.03314
-1.06254
-1.06622
-1.07277
-1.06603
-1.25366
-1.25399
-1.03219
-1.03979
-1.01842
-1.02425
-1.17573
-1.12985
-1.1217
-0.241459
-0.187505
-0.176699
-0.198914
-0.19562
-0.245274
-0.998998
-1.04461
-1.03724
-1.0622
-1.05381
-1.01098
-1.24004
-1.21841
-1.18336
-1.18233
-1.28298
-1.33914
-1.33663
-1.16737
-1.16361
-1.19887
-1.23583
-1.33084
-1.33435
-1.27735
-1.35082
-1.3494
-1.29546
-1.29386
-1.3479
-1.3495
-0.982908
-1.02424
-1.01751
-1.0156
-1.0216
-0.97569
0.216669
0.214986
0.22353
0.221782
0.328977
0.273366
0.273867
-0.121069
-0.12368
-0.223652
-0.160626
-0.168651
-0.167622
-0.161168
-0.223406
-0.434791
-0.451838
-0.510128
-0.377711
-0.195457
-0.274903
-0.234688
-0.340862
-0.316496
-0.247369
-0.328756
-0.385291
-0.393907
-0.378112
-0.379709
-0.319763
-0.364695
-0.400804
-0.40425
-0.402785
-0.407873
-0.360834
0.395038
0.462686
0.432766
0.378778
0.373499
0.395574
0.388138
0.422721
0.448347
0.403181
0.39821
0.306378
0.301522
0.411185
0.411011
0.356804
0.381493
0.38484
0.442664
0.360361
0.358579
0.355401
0.457204
0.390533
0.381285
-0.472651
-0.479397
-0.534921
-0.431722
-0.436712
-0.412169
-0.422149
-0.540633
-0.484934
-0.476565
0.305172
0.251089
0.254696
0.244988
0.247567
0.303526
-0.715777
-0.700029
-0.643723
-0.703423
-0.738982
-0.730567
-1.10493
-1.1856
-1.13756
-1.14365
-1.08782
-1.08054
-1.10116
-1.0952
-1.25954
-1.26018
-1.06449
-1.07126
-1.04822
-1.05667
-1.1585
-1.10272
-1.09556
-1.11423
-1.10786
-1.15905
-1.07517
-0.701847
-0.704019
-0.6544
-0.704259
-0.708407
-0.847816
-0.796101
-0.786218
-0.815873
-0.806716
-0.856242
-0.838003
-0.782912
-0.778979
-0.778885
-0.776506
-0.837316
-0.742477
-0.316606
-0.374749
-0.378212
-0.251083
-0.262283
0.423041
0.518543
0.518213
0.457968
0.463452
0.531903
0.523278
0.493799
0.497118
0.559157
0.557412
0.619886
0.493892
0.491956
0.397961
0.396991
0.457503
0.365322
0.432657
0.392548
0.398515
-0.977997
-1.02984
-1.02477
-1.03396
-1.03256
-0.977088
-0.948189
-0.939294
-0.885631
-0.83412
-0.848424
-0.822728
-0.826767
-0.879414
-0.907708
-0.860261
-0.867608
-0.900974
0.557108
0.556383
0.589983
0.539048
0.540435
0.528245
0.565425
0.561971
0.562703
0.55989
0.561146
0.585213
0.52236
0.526086
0.523443
0.521908
0.583254
0.616873
0.559651
0.560199
0.533994
0.554958
0.611148
0.505635
0.496282
0.593209
0.536497
0.533959
0.541281
0.538918
0.595004
0.586674
0.528398
0.525468
0.531372
0.529174
0.587842
-1.22901
-1.21014
0.599067
0.547415
0.549342
0.543551
0.545145
0.599138
0.557368
0.548057
0.539922
0.574162
0.591303
0.529852
0.533014
0.530694
0.52811
0.59504
0.596186
0.540177
0.541938
0.536168
0.538555
0.594885
0.563089
0.562838
0.564445
0.56288
0.556909
0.555929
0.56041
0.560613
-1.19414
-1.21904
-1.30015
-1.35299
-1.35202
-1.35109
-1.35236
-1.2995
0.438688
0.535304
0.539458
0.483944
0.456353
0.520695
0.527188
0.509989
0.506753
0.620149
0.561717
0.563958
0.616675
0.561666
0.54613
0.565177
0.564983
0.618699
0.516925
0.513236
0.521727
0.524014
0.475016
0.493298
0.507858
-0.945187
-0.999435
-1.0017
-0.988582
-0.99446
-0.938292
-0.889976
-0.89864
-0.86154
-0.828579
-0.824424
-0.863514
-0.949981
-1.00243
-1.00839
-1.00071
-0.999776
-0.943653
0.342979
0.394887
0.393305
0.396956
0.396471
0.346421
0.344014
0.404823
0.409667
0.393689
0.397919
0.335154
0.309065
0.350512
0.351534
0.355343
0.352375
0.347092
0.389804
0.395247
0.356818
0.372315
0.336673
-0.683602
-0.686775
-0.632143
-0.556382
-0.58638
0.214958
0.217977
0.316455
0.255443
0.245522
0.273455
0.269931
0.322857
0.22556
0.225479
-0.101832
-0.11374
3.23127
2.09561
2.31488
1.64258
0.27814
0.493429
-0.179303
-1.57166
-1.339
-2.04303
-3.20599
-3.19486
5.08563
3.95416
4.16216
3.50008
2.13534
2.10131
1.68064
0.207458
0.283975
-0.0218256
-1.58733
-1.57914
-2.06149
-3.47083
-3.44674
-3.93216
-5.07732
-5.06577
5.085
3.95026
3.95623
3.49845
2.03927
2.14688
1.82771
1.16303
1.12813
0.0167837
-0.744416
-0.750893
-1.97315
-2.55855
-2.54543
-3.96636
-5.10216
-5.0887
5.07216
3.92504
3.94543
3.48443
3.02916
3.03952
1.79756
1.5736
1.58716
-2.07409
-2.74934
-2.72059
-4.00776
-5.12723
-5.11468
5.05699
3.90333
3.91841
3.45132
2.98786
2.99647
1.7112
1.47483
1.48347
-2.17301
-2.81864
-2.79581
-4.03644
-5.1458
-5.13805
5.05076
3.89931
3.90072
3.43647
2.97163
2.9729
1.68177
1.44423
1.44463
-2.19671
-2.83819
-2.83618
-4.03435
-5.14705
-5.14901
5.05481
3.91047
3.90106
3.44329
2.9822
2.97767
1.70307
1.47026
1.46519
-2.14795
-2.80442
-2.82045
-4.00462
-5.12933
-5.14024
5.0645
3.92737
3.9146
1.74675
1.519
1.51217
-2.07177
-2.74413
-2.7678
-3.96217
-5.1003
-5.11559
5.07413
3.94031
3.93137
-1.99786
-2.57303
-2.58829
-3.92068
-5.06826
-5.08429
5.06924
4.15265
4.16281
3.46249
2.10458
2.11962
1.77087
1.09903
1.10655
0.0354124
-0.304471
-0.348353
-2.0338
-3.42426
-3.45262
-4.11841
-5.03505
-5.0522
5.05246
4.14184
4.14497
3.23188
2.09468
2.10198
1.63924
0.269146
0.288359
-0.188834
-1.56895
-1.56682
-2.02885
-3.18003
-3.41864
-4.10058
-5.02053
-5.02499
3.22729
2.31695
2.31965
1.40124
0.492325
0.264309
-0.422048
-1.34391
-1.56988
-2.25866
-3.17894
-3.17779
1.49325
1.50424
1.73782
-1.90074
-1.63075
-1.65498
-1.56015
-1.58104
-1.81329
1.44594
1.44823
1.68609
-1.97953
-1.71739
-1.72404
-1.66201
-1.68117
-1.94147
1.46039
1.45599
1.6909
-1.97025
-1.70799
-1.69667
-1.72516
-1.72706
-1.98662
1.50567
1.49958
1.72924
-1.90021
-1.62838
-1.66872
-1.69208
-1.67759
-1.94813
-1.81743
-1.59168
-1.58115
-1.65863
-1.64705
-1.8693
1.11079
1.13428
1.79822
0.167449
0.301338
0.294878
-0.059073
-0.0901348
0.105912
-1.57068
-1.55998
-1.78766
1.11178
1.17296
1.82856
0.420905
0.453262
0.478644
0.89992
0.940455
0.263669
0.259992
0.353341
-1.7637
-1.52396
-1.53996
-0.993778
-0.993907
-1.73365
3.00655
3.01771
3.4755
1.99102
2.56088
2.54677
2.58884
2.57547
2.00136
-1.01935
-0.883026
-0.912898
-0.766224
-0.791005
-0.912442
-2.78834
-2.75891
-2.08985
-3.54863
-3.09868
-3.11502
-3.065
-3.08152
-3.53518
2.976
2.98101
3.44546
1.93001
2.51546
2.50974
2.53415
2.52363
1.93461
1.46096
1.46734
1.70432
0.922504
1.04305
1.03998
1.0687
1.06341
0.943638
-1.11758
-1.11794
-1.16901
-2.83582
-2.82265
-2.18003
-3.5906
-3.15189
-3.15876
-3.12975
-3.14221
-3.58291
2.97423
2.97212
3.43638
1.9205
2.50655
2.50963
2.50642
2.50542
1.91887
1.44635
1.44481
1.68212
0.906467
1.02798
1.02961
1.02535
1.025
0.903531
-2.8264
-2.83496
-2.19399
-3.59739
-3.16057
-3.15516
-3.1625
-3.1631
-3.59959
2.99364
2.98764
3.44748
1.94891
2.52721
2.53478
2.5143
2.52026
1.94413
1.48137
1.47569
1.7079
0.950467
1.30015
1.30891
1.05436
1.05741
0.939984
-1.13725
-1.07641
-1.07443
-2.77594
-2.79694
-2.13903
-3.56846
-3.12564
-3.11275
-3.14724
-3.13732
-3.57819
-1.01424
-0.875614
-0.865956
-1.02826
-1.02464
-1.08012
-2.6046
-2.61965
-2.0623
-3.52148
-3.07089
-3.05673
-3.09904
-3.08491
-3.53387
-0.912435
-0.79757
-0.791711
-0.836506
-0.829885
-0.943291
1.20128
1.0959
1.65606
0.19486
0.871439
0.86248
0.506675
0.501283
0.152296
-0.746077
-0.738386
-0.0351543
-1.57033
-0.976029
-1.09695
-1.0241
-0.983907
-1.70083
0.959415
1.07988
1.07408
1.35848
1.33652
0.979507
1.74838
1.51634
1.52977
0.876173
0.719364
0.735002
0.980003
0.870562
0.887845
0.776055
0.78847
0.907779
-1.158
-1.10769
-1.11419
-1.02572
-1.03439
-1.08642
-1.64819
-1.66759
-1.88592
-1.17284
-1.27862
-1.26477
-1.3401
-1.33205
-1.22773
0.904874
1.02663
1.02582
1.03717
1.03436
0.912822
1.68919
1.45144
1.45569
0.824142
0.763522
0.766814
0.749313
0.749457
0.812841
0.768856
0.770315
0.830318
-1.70449
-1.71485
-1.97446
-1.27163
-1.3192
-1.3161
-1.22777
-1.35611
-1.34878
-1.31395
-1.30954
-1.2606
-1.95174
-1.68638
-1.70074
0.93009
1.04796
1.05109
1.03179
1.03417
0.914995
1.68769
1.45208
1.44885
0.820286
0.758717
0.755246
0.786236
0.783765
0.844025
0.811639
0.749187
0.74937
0.752556
0.750996
0.815424
-1.7203
-1.71173
-1.97597
-1.29995
-1.30264
-1.25256
-1.98605
-1.72643
-1.72276
0.853246
0.708318
0.701483
0.762052
0.758493
0.874193
0.850329
0.790887
0.788832
0.699651
0.693928
0.841625
-1.08967
-1.0336
-1.03123
-1.07615
-1.07799
-1.1321
-1.65101
-1.63428
-1.91043
-1.1812
-1.31887
-1.32466
-1.28125
-1.28746
-1.17712
-1.23993
-1.29154
-1.29557
-1.3304
-1.33682
-1.20164
-1.93936
-1.67234
-1.65659
0.924766
0.814097
0.809352
0.832696
0.830117
0.940857
0.88649
0.771032
0.766247
0.804141
0.798424
0.910676
-0.96259
-0.849757
-0.843118
-0.862688
-0.853696
-0.995106
-1.15781
-1.26863
-1.27499
-1.45445
-1.47193
-1.13878
-1.85871
-1.63565
-1.62453
0.975207
0.649935
0.638849
0.616996
0.645745
0.971961
0.948789
0.837848
0.835182
-0.879969
-0.524067
-0.49422
1.54419
1.55904
1.78479
1.05081
1.38999
1.36591
1.36817
1.35157
1.06386
-0.313333
-0.344256
-0.413869
1.99018
2.55875
2.56615
2.54275
2.55082
1.98507
1.53239
1.52575
1.75271
1.01362
1.29907
1.30665
1.28365
1.29136
1.0091
-0.501361
-0.441477
-0.438621
-0.463713
-0.46261
-0.520686
-2.54501
-2.5588
-1.98965
0.596784
0.546468
0.57006
0.423044
0.434545
0.505641
-1.07136
-1.41563
-1.38057
-1.46714
-1.42871
-1.09114
-1.83199
-1.6036
-1.62626
0.98058
1.32573
1.27733
1.31254
1.32204
0.976739
1.72361
1.4933
1.48726
0.521183
0.465639
0.46482
0.468264
0.465957
0.52419
-0.531859
-0.474926
-0.468168
-1.61349
-1.60255
-1.82764
-1.09436
-1.43108
-1.44866
-1.3543
-1.42548
-1.08805
0.529526
0.473156
0.470843
0.481981
0.480134
0.536753
-1.04462
-1.33216
-1.34379
-1.31076
-1.3211
-1.03872
-1.77811
-1.54971
-1.53996
0.571108
0.608864
0.28518
1.02316
0.711152
0.676572
0.70632
0.719788
1.02319
-0.85704
-0.72482
-0.743973
-0.426465
-0.414564
-0.820973
0.153428
-0.274184
-0.298068
-0.835347
-0.872135
-0.999661
-0.522744
-0.664993
-0.63639
-0.65473
-0.638049
-0.583517
-0.935492
-0.817421
-0.841477
-0.887509
-0.8779
-1.02057
-1.06287
-1.00736
-1.00435
-0.476264
-0.417569
-0.41399
-0.436699
-0.433638
-0.492418
-0.572444
-0.716107
-0.722754
-0.702389
-0.709271
-0.568538
-0.936897
-0.823241
-0.816577
0.704254
0.715134
0.867207
0.844357
0.686603
0.700067
0.492911
0.558974
0.55277
0.611009
0.600249
0.534701
0.921
0.803264
0.817757
-1.07622
-1.08109
-1.1337
-1.11677
-1.06502
-1.07083
0.749855
0.750342
0.815518
0.813552
0.749723
0.749832
0.777685
0.779631
0.842588
0.836335
0.775013
0.776346
-1.32102
-1.31831
-1.25946
-1.60789
-1.50337
-1.50655
-1.49683
-1.4995
-1.60447
-1.6196
-1.51494
-1.51712
-1.50952
-1.51238
-1.61705
-1.26903
-1.32731
-1.32401
-1.29302
-1.28986
-1.23815
-1.5704
-1.46686
-1.47281
-1.45319
-1.46034
-1.56394
-1.59207
-1.48812
-1.49279
-1.47812
-1.48319
-1.58721
-1.2415
-1.29582
-1.2935
0.773525
0.772272
0.831142
0.835215
0.775917
0.77483
0.748714
0.74889
0.812064
0.811913
0.748837
0.748825
-1.3152
-1.31908
-1.25832
-1.61339
-1.50509
-1.50083
-1.51259
-1.50907
-1.61696
-1.59642
-1.48943
-1.48715
-1.49659
-1.49288
-1.6011
-1.2456
-1.30766
-1.31129
-1.62627
-1.52097
-1.52121
-1.51889
-1.52022
-1.62536
-1.62445
-1.51798
-1.51563
-1.52077
-1.51976
-1.62592
0.745668
0.710836
0.857346
0.504054
0.559597
0.561453
0.543008
0.543958
0.483149
0.869594
0.753802
0.749152
0.837488
0.691304
0.682438
-1.05555
-1.05281
-1.10736
-1.11432
-1.0588
-1.05718
-1.27162
-1.27249
-1.21808
-1.57551
-1.46837
-1.46271
-1.48115
-1.47457
-1.58086
-1.55368
-1.44576
-1.43986
-1.45726
-1.45164
-1.55937
-1.21454
-1.26827
-1.26976
0.50632
0.451257
0.449923
0.463344
0.460646
0.517086
0.781309
0.776189
0.89106
0.519451
0.578581
0.581315
0.562557
0.563694
0.504375
0.541109
0.685707
0.692595
0.671912
0.678344
0.535601
0.905511
0.79239
0.786617
0.468367
0.407889
0.408778
0.446874
0.441734
0.496038
-0.862872
-0.856413
-0.968971
-0.604523
-0.661885
-0.664638
-0.642529
-0.646208
-0.588907
-0.666313
-0.668649
-0.607559
-0.988731
-0.875693
-0.86945
0.532773
0.392488
0.387473
0.405602
0.395469
0.537246
0.543211
0.486272
0.484088
-0.425425
-0.280894
-0.262835
-0.410568
-0.407257
-0.465553
2.13506
2.58347
2.58412
2.57285
2.57875
2.01909
1.12448
1.34642
1.35083
1.33705
1.34174
1.11919
-0.261685
-0.257289
-0.0185547
-0.749429
-0.498
-0.497651
-0.485823
-0.513289
-0.768586
1.04637
1.32665
1.3321
1.31393
1.32062
1.04323
1.7698
1.54483
1.5388
0.22595
0.235968
0.202693
0.519892
0.409771
0.388071
0.403123
0.406408
0.513925
-0.373894
-0.24094
-0.219601
-0.251951
-0.254433
-0.383821
0.118257
-0.0146449
-0.0446709
0.422774
0.48556
0.334173
0.631619
0.537814
0.522602
0.510871
0.532623
0.630997
-0.349074
-0.267376
-0.287592
-0.125144
-0.0699469
-0.279275
0.266327
0.0160389
0.0276889
1.04989
1.04625
0.925544
1.28607
1.16659
1.17039
1.16026
1.16345
1.28385
-1.17131
-1.11774
-1.1196
1.02583
1.02667
0.905158
1.2661
1.14678
1.14611
1.14941
1.14809
1.26806
1.26483
1.14524
1.14574
1.14541
1.14536
1.26578
0.903522
1.02502
1.02521
-1.08823
-1.08164
-1.14179
-0.809961
-0.803593
-0.9182
-0.57347
-0.689161
-0.695701
-0.67661
-0.682791
-0.567396
0.88394
0.663373
0.614309
0.653188
0.658224
0.879953
0.214396
0.433148
0.427869
0.834284
0.852286
0.965223
0.599783
0.740883
0.718503
0.783994
0.763686
0.616554
-1.09335
-1.10023
-1.15256
-1.30255
-1.29105
-1.18603
-1.5015
-1.39593
-1.40726
-1.37142
-1.38421
-1.49126
-1.54105
-1.43674
-1.44521
-1.41769
-1.42767
-1.53235
-1.21836
-1.32283
-1.31307
1.02877
1.02753
0.905661
1.26772
1.14803
1.14951
1.14614
1.14715
1.26772
1.27465
1.15497
1.15768
1.15089
1.15294
1.2736
0.909814
1.03205
1.03015
0.755535
0.759417
0.822181
0.632788
0.696177
0.690379
0.707725
0.703186
0.64453
0.621901
0.68582
0.685932
0.685647
0.685659
0.621432
0.812406
0.749425
0.74965
0.65303
0.711146
0.710151
0.711667
0.711465
0.652475
0.830878
0.771174
0.772159
-1.31785
-1.31947
-1.2704
-1.42141
-1.37293
-1.37244
-1.442
-1.38872
-1.39064
-1.38506
-1.3871
-1.44142
1.27162
1.15324
1.15136
1.15777
1.15558
1.27436
0.918255