/*--------------------------------*- C++ -*----------------------------------*\
| =========                 |                                                 |
| \\      /  F ield         | OpenFOAM: The Open Source CFD Toolbox           |
|  \\    /   O peration     | Version:  5.x                                   |
|   \\  /    A nd           | Web:      www.OpenFOAM.org                      |
|    \\/     M anipulation  |                                                 |
\*---------------------------------------------------------------------------*/
FoamFile
{
    version     2.0;
    format      ascii;
    class       volScalarField;
    location    "500";
    object      p_rgh;
}
// * * * * * * * * * * * * * * * * * * * * * * * * * * * * * * * * * * * * * //

dimensions      [0 2 -2 0 0 0 0];

internalField   nonuniform List<scalar> 
6584
(
0.00495014
0.00534764
0.00582421
0.00653544
0.00744226
0.00860548
0.0100052
0.0116481
0.0133439
0.0149569
0.0159672
0.0158248
0.0141442
0.0110457
0.00711766
0.00305634
-0.000597665
-0.00369583
-0.00616185
-0.00806815
-0.00948635
-0.0105393
-0.011224
-0.0117689
0.00481028
0.00524529
0.00569377
0.00639909
0.00728635
0.00845233
0.00987419
0.0116098
0.0134471
0.0152888
0.0165349
0.0165494
0.0148121
0.0114556
0.00723197
0.00286056
-0.000930265
-0.00407564
-0.00651615
-0.00837507
-0.00973439
-0.0107523
-0.0113833
-0.0119653
0.00450993
0.00495267
0.00534792
0.0060167
0.0068533
0.00801136
0.00948959
0.0114861
0.0136521
0.0156547
0.0181578
0.0191947
0.0178402
0.0139963
0.00881305
0.0021734
-0.00194629
-0.00517523
-0.00752392
-0.00922608
-0.0104218
-0.0113163
-0.0118317
-0.012386
0.00411565
0.00452593
0.00484257
0.00543059
0.00616733
0.00725545
0.00876712
0.011033
0.0140518
0.0169633
0.0211155
0.023829
0.0226689
0.0170139
0.00961103
0.00295594
-0.0036827
-0.00699156
-0.00911356
-0.0105167
-0.011443
-0.0121229
-0.0124704
-0.0129225
0.00365834
0.00399606
0.00420402
0.00464892
0.00520785
0.00609089
0.00747858
0.00979838
0.0126631
0.0179624
0.0246998
0.0309821
0.0305433
0.0209525
0.00925866
0.000496338
-0.00502329
-0.00979591
-0.0114098
-0.0122311
-0.0127499
-0.0131065
-0.013235
-0.0135157
0.00316531
0.00339057
0.00345779
0.00368335
0.00395672
0.00437597
0.00533796
0.00681954
0.0106202
0.0165906
0.0264723
0.0429497
0.0486696
0.0294041
0.00609513
-0.00500587
-0.0100994
-0.0134956
-0.0142808
-0.0142856
-0.0142653
-0.0141962
-0.0140619
-0.0141083
0.00267642
0.00275668
0.00266195
0.00260638
0.00251204
0.00229232
0.00252955
0.00337474
0.00518934
0.00996656
0.0229994
0.054205
0.0949098
0.0307317
-0.00221012
-0.0155939
-0.0174602
-0.0182318
-0.0175964
-0.0165384
-0.0158566
-0.0152836
-0.014862
-0.0146277
0.0022369
0.00215633
0.00190031
0.0015394
0.00103252
7.77671e-05
-0.000785827
-0.00108799
-0.00269568
-0.00373971
0.000453622
0.0213948
-0.0136329
-0.0316663
-0.0319129
-0.0270413
-0.0234205
-0.0209625
-0.0187193
-0.0173246
-0.0162281
-0.0155287
-0.0149964
0.00188886
0.00165557
0.0012682
0.000637795
-0.000240232
-0.00184542
-0.00383412
-0.00566344
-0.0111161
-0.020512
-0.0344071
-0.0713934
-0.127559
-0.0721327
-0.0493965
-0.0364395
-0.0279169
-0.0236899
-0.0204301
-0.0184179
-0.0168732
-0.0159528
-0.0151448
0.00166313
0.00131141
0.000852679
5.6128e-05
-0.00103806
-0.00297353
-0.00564822
-0.00862041
-0.0162084
-0.0301681
-0.0535834
-0.107898
-0.17954
-0.096232
-0.0593467
-0.0420298
-0.0303575
-0.0250468
-0.0212683
-0.0188993
-0.0170814
-0.0160425
-0.0150233
0.00157152
0.00115526
0.000701486
-0.00011822
-0.00120823
-0.00303917
-0.00568917
-0.00891484
-0.0158758
-0.0281508
-0.0484921
-0.0889037
-0.158342
-0.0916837
-0.0573396
-0.0416442
-0.0299372
-0.0246387
-0.0210121
-0.0186385
-0.016779
-0.0157496
-0.014614
0.00160315
0.00118234
0.000803866
9.66428e-05
-0.000787435
-0.00215194
-0.00414529
-0.006736
-0.0109825
-0.017409
-0.0272531
-0.0423407
-0.0946421
-0.065975
-0.0457038
-0.035901
-0.0268852
-0.022608
-0.0197099
-0.0176658
-0.0159843
-0.0150845
-0.0139369
0.00172797
0.00135425
0.00109656
0.000589741
2.94735e-05
-0.000705677
-0.00174134
-0.00320719
-0.00427214
-0.00437538
-0.00320518
0.00595783
-0.0300165
-0.0348371
-0.0304899
-0.027394
-0.0222526
-0.0195392
-0.0176498
-0.0161507
-0.0148048
-0.0141121
-0.0130448
0.00190598
0.00161322
0.00148955
0.00120917
0.000986677
0.00084637
0.000678495
0.00147847
0.00144952
0.0056718
0.0122512
0.0333466
0.0949913
0.011755
-0.0109516
-0.0171667
-0.018904
-0.017274
-0.0161274
-0.0152234
-0.0143336
-0.0133809
-0.0129312
-0.0120076
0.00209735
0.00189948
0.00189575
0.00181744
0.00187089
0.00215047
0.00260576
0.00384644
0.00512453
0.0100006
0.0171238
0.0308502
0.040508
0.0178978
-0.00036276
-0.00837267
-0.0115761
-0.0127804
-0.0129032
-0.0127781
-0.0124388
-0.0118576
-0.0116457
-0.0108987
0.00226967
0.00216458
0.00225146
0.0023261
0.00256487
0.00308356
0.00384328
0.00539944
0.00686635
0.0107071
0.016299
0.021187
0.0205604
0.0127611
0.00343525
-0.00354739
-0.00781236
-0.00938543
-0.0101931
-0.0105532
-0.0106322
-0.0103629
-0.0103483
-0.0097866
0.00240128
0.00237701
0.00252104
0.00269636
0.00303058
0.00365431
0.00445981
0.00605047
0.00783617
0.00968206
0.0125763
0.0142909
0.0163157
0.0104173
0.00393107
-0.00114351
-0.00490676
-0.00685264
-0.00799351
-0.00864425
-0.00900337
-0.00896485
-0.00910059
-0.00871178
0.00248084
0.00252122
0.00269182
0.00292324
0.00327914
0.00390843
0.00460891
0.00592248
0.00727805
0.00933168
0.00979188
0.0120935
0.0093814
0.00745983
0.00273824
-0.000656669
-0.00296854
-0.00506484
-0.0062648
-0.00707032
-0.00758849
-0.00771084
-0.0079461
-0.007707
0.00250537
0.00259415
0.00276753
0.00302318
0.00335223
0.00393569
0.004471
0.00553414
0.00617266
0.00795113
0.00630125
0.00919831
0.00871469
0.00310428
0.00264476
-0.000471281
-0.00208401
-0.00390794
-0.00497354
-0.00581737
-0.0063944
-0.00661935
-0.00690888
-0.00679329
0.00247767
0.002601
0.00276134
0.0030228
0.00330026
0.00382819
0.00418966
0.0051098
0.00527375
0.00690142
0.00576236
0.00723398
0.00661326
0.0028197
0.0024239
-0.000345537
-0.00146884
-0.00309405
-0.00399823
-0.00482617
-0.00539927
-0.00568554
-0.00599521
-0.00597788
0.00240382
0.00255103
0.00268908
0.00294733
0.00316233
0.00364005
0.00384277
0.00465843
0.00454759
0.0058654
0.00489663
0.00529561
0.00474549
0.0022874
0.00201534
-0.000285425
-0.00104258
-0.00250536
-0.00324791
-0.00403897
-0.00457306
-0.00489435
-0.0052004
-0.00525943
0.00229133
0.00245474
0.00256587
0.00281736
0.00296743
0.0034017
0.00347004
0.0041865
0.00390662
0.00493201
0.00404655
0.00406171
0.00361657
0.00175583
0.00159848
-0.000288031
-0.000782808
-0.0020844
-0.00267066
-0.00341363
-0.00388866
-0.00422786
-0.00451465
-0.00463191
0.00214816
0.00232256
0.0024055
0.00264975
0.00273842
0.00313636
0.00309964
0.00372958
0.00335815
0.00417297
0.00339295
0.00320152
0.00283048
0.00135183
0.00125598
-0.000308996
-0.000623251
-0.00177578
-0.0022236
-0.00291457
-0.00332142
-0.00366752
-0.00392563
-0.00408654
0.001982
0.00216412
0.00221986
0.002458
0.00249237
0.00286091
0.00274687
0.00330446
0.00289175
0.00354819
0.0028628
0.00253639
0.00222485
0.00102737
0.000972836
-0.000333806
-0.000521489
-0.00154118
-0.00187234
-0.00251193
-0.00284928
-0.00319556
-0.00342013
-0.00361318
0.00179991
0.00198775
0.00201865
0.00225229
0.00224084
0.00258577
0.00241753
0.00291435
0.00249054
0.00302484
0.00242455
0.00201725
0.00175592
0.00076256
0.00073798
-0.000357985
-0.000455326
-0.00135725
-0.00159178
-0.00218254
-0.00245335
-0.00279556
-0.00298495
-0.00320118
0.00160813
0.00180048
0.00180952
0.00204017
0.00199153
0.00231751
0.00211351
0.00255958
0.00214355
0.00258407
0.00205622
0.00160517
0.00139014
0.000550616
0.000546752
-0.000377878
-0.000410426
-0.00120852
-0.00136382
-0.00190853
-0.00211791
-0.00245327
-0.00260799
-0.00284033
0.00141203
0.00160804
0.00159839
0.00182721
0.00174941
0.00205995
0.00183454
0.0022385
0.00184202
0.00221363
0.00174621
0.00127882
0.0011064
0.000380858
0.000392377
-0.000392242
-0.000377544
-0.00108377
-0.00117437
-0.00167633
-0.00183018
-0.00215687
-0.00227846
-0.00252094
0.00121618
0.00141504
0.00138973
0.00161729
0.00151733
0.00181501
0.00157913
0.00194851
0.00157744
0.0018993
0.00148617
0.00101724
0.000876174
0.000238332
0.000268854
-0.000398644
-0.000348232
-0.000973405
-0.00101144
-0.00147373
-0.00157853
-0.00189495
-0.00198593
-0.00223376
0.00102446
0.00122508
0.00118682
0.00141296
0.00129688
0.00158327
0.00134506
0.00168655
0.00134299
0.00162809
0.00126351
0.000799661
0.000687862
0.000124382
0.000171869
-0.00039757
-0.000319277
-0.000872573
-0.000867377
-0.00129246
-0.00135418
-0.00165883
-0.00172177
-0.00197085
0.000840185
0.001041
0.000992096
0.0012159
0.00108852
0.00136426
0.00112938
0.00144789
0.0011335
0.00139158
0.00107076
0.000617033
0.000532861
3.41255e-05
9.7045e-05
-0.000388666
-0.000288103
-0.000777035
-0.000736174
-0.0011257
-0.0011497
-0.00144077
-0.00147815
-0.00172455
0.000666191
0.000864799
0.000807164
0.00102674
0.000892104
0.00115739
0.000928981
0.00122699
0.000942871
0.00118141
0.000901056
0.000462168
0.000404358
-3.6191e-05
4.11963e-05
-0.000371224
-0.0002528
-0.000683092
-0.000612852
-0.000967813
-0.000959003
-0.00123415
-0.00124844
-0.00148792
0.000505207
0.000698025
0.000633464
0.000845418
0.000707482
0.000960718
0.000741994
0.00102041
0.000766662
0.000990434
0.000748387
0.000329517
0.000296757
-8.90595e-05
1.66837e-06
-0.000344746
-0.00021241
-0.000588
-0.000494275
-0.000814347
-0.000777582
-0.00103365
-0.0010273
-0.00125495
0.000359488
0.000540782
0.000471572
0.000670756
0.000533265
0.000769337
0.000565
0.000821708
0.000599369
0.000810254
0.000606249
0.000215206
0.000206456
-0.00012413
-2.26663e-05
-0.000307205
-0.000166396
-0.000488435
-0.000377924
-0.00066049
-0.00060136
-0.000833189
-0.000809063
-0.00101824
0.000232943
0.000395234
0.000324532
0.000503978
0.000371997
0.000584049
0.000399639
0.000629373
0.00044047
0.000636544
0.000469206
0.000116593
0.000129202
-0.000141702
-3.4438e-05
-0.000258718
-0.000116978
-0.000384207
-0.000265535
-0.000506179
-0.000431973
-0.000633044
-0.000595259
-0.000778016
0.000123141
0.000248265
0.000184534
0.000325194
0.00021383
0.000380686
0.000232832
0.000414118
0.000270987
0.000435953
0.000317113
3.8161e-05
6.67682e-05
-0.000127819
-3.01302e-05
-0.000185789
-6.24851e-05
-0.00025915
-0.000151077
-0.000331374
-0.000256932
-0.000408849
-0.000365966
-0.000503535
5.30581e-05
0.000142189
9.09016e-05
0.000193527
0.000108291
0.000230837
0.00012226
0.000256196
0.000154857
0.00028356
0.000173486
-2.77942e-05
-8.94675e-07
-0.000107116
-2.69853e-05
-0.000123376
-2.54785e-05
-0.000159573
-7.12297e-05
-0.000196843
-0.000132337
-0.000238788
-0.000199233
-0.000294449
-0.0624957
-0.125733
-0.00918732
-0.106696
-0.191952
-0.13893
-0.0935122
-0.174964
-0.19442
-0.0487957
-0.108168
-0.168171
0.000908174
-0.0357961
-0.0987966
0.0319601
0.105926
0.0988587
0.0147117
-0.0277227
0.0320201
0.0956099
0.00627038
0.0417849
-0.0263169
-0.0549825
0.0170369
-0.0986063
0.0405344
-0.11589
-0.0704348
-0.0317976
-0.051153
-0.0966351
-0.0630322
-0.0924191
-0.135386
-0.105563
-0.238194
-0.198524
-0.176949
-0.106367
-0.0820151
-0.0518064
-0.086416
-0.0977848
-0.106392
-0.143705
-0.149759
-0.267916
-0.271591
-0.164582
-0.10752
-0.110023
-0.0333687
-0.0463359
-0.0822764
-0.0731783
-0.0899253
-0.115607
-0.173554
-0.217586
-0.103177
-0.0798941
-0.102539
-0.0730934
-0.117513
-0.0374064
-0.0428116
-0.0707461
0.0168178
-0.0204222
0.0338773
0.0324
0.0969852
0.0335953
0.0254914
0.0171176
-0.100019
-0.0476167
-0.0299037
-0.0527882
-0.107331
0.0595097
-0.0427272
-0.194681
-0.11072
-0.0797695
-0.105724
-0.190676
-0.149236
-0.138132
-0.0973449
-0.143006
-0.155379
-0.112903
-0.142323
-0.269022
-0.24017
-0.176813
-0.239074
-0.258231
-0.193797
-0.237197
-0.169355
-0.119071
-0.141094
-0.104104
-0.1468
-0.121428
-0.154991
-0.148807
-0.219956
-0.265769
-0.190413
-0.254345
-0.220435
-0.259729
-0.256278
-0.19345
-0.0887598
-0.0581208
-0.119222
-0.0929741
-0.120857
-0.169791
-0.135197
-0.166741
-0.120201
-0.217717
-0.169982
-0.144046
-0.0133323
0.0121209
-0.0537412
-0.0183051
-0.0261224
-0.0671835
-0.114104
-0.0726609
-0.0707223
0.0393625
0.0576042
0.0146614
0.0368937
0.0460872
0.0206477
-0.0173972
-0.0371831
0.0529813
-0.0494688
0.109355
-0.00876359
-0.00103353
-0.0404498
-0.0226466
-0.0191975
-0.0526622
0.00668696
-0.0164125
0.00939437
-0.0123834
-0.0340447
0.112271
-0.0130475
0.0320811
-0.0917977
-0.062184
-0.0569019
-0.0859084
-0.0673474
-0.0825649
-0.0658865
0.00929604
0.0186093
-0.0635212
-0.0465011
-0.0200466
-0.0443738
-0.061739
-0.0668575
-0.0274465
0.0195982
0.0309562
-0.0221141
0.0134007
-0.00557878
0.158157
0.105635
0.073337
0.0573066
0.0986798
0.158142
-0.0678741
-0.042568
-0.0650364
0.0980889
-0.0470973
-0.022292
-0.226337
-0.22313
-0.273855
-0.274017
-0.195383
-0.198332
-0.090798
-0.075561
-0.0945747
0.0325692
0.00971947
-0.0172196
0.0052446
-0.00359046
-0.0881138
-0.0805246
-0.111831
-0.0841408
-0.113763
-0.0879504
-0.0786644
-0.0189854
-0.00237074
-0.0267831
-0.0827396
-0.161709
-0.157047
-0.151164
-0.151149
-0.128582
-0.129971
-0.261224
-0.261133
-0.249293
-0.216074
-0.205493
-0.226127
-0.218868
-0.250062
-0.216415
-0.181747
-0.162377
-0.201517
-0.187211
-0.219739
-0.137113
-0.134778
-0.155672
-0.154599
-0.24958
-0.25104
-0.239712
-0.215447
-0.224706
-0.197924
-0.211526
-0.237876
-0.262817
-0.230686
-0.227809
-0.227039
-0.230535
-0.262724
-0.0845546
-0.0764422
-0.0851347
-0.101133
-0.0656477
-0.0825427
-0.0719498
-0.108848
-0.102959
-0.104535
-0.143017
-0.14642
-0.196361
-0.177825
-0.192744
-0.156678
-0.172595
-0.192474
-0.00710273
0.00913846
-0.0393967
-0.0453783
-0.0628792
-0.0120759
-0.042311
-0.0343763
-0.0435252
-0.0108961
-0.0435941
-0.0449884
-0.0206099
-0.0721623
-0.0474342
-0.0496774
-0.0467833
0.05041
0.0658545
0.0790978
0.0328321
0.0459021
0.0914944
0.056362
0.0351991
0.207478
0.00975871
0.0242464
0.00363298
0.0192992
0.0315288
0.014664
0.0650907
0.046051
0.0485486
0.163657
0.0108483
-0.0145886
-0.0163092
0.0162229
0.016915
0.0802031
0.0656787
0.0790145
0.0184089
0.023782
0.0704785
0.0614581
0.0850917
0.238844
0.171331
0.126596
0.129392
0.173161
0.241387
-0.125226
-0.103467
-0.114485
-0.233693
-0.218229
-0.210725
-0.148785
-0.127403
-0.125005
-0.127836
-0.128971
-0.149602
-0.271488
-0.272374
-0.183458
-0.208991
0.0396719
0.0327808
0.00176677
0.00822783
0.0280228
0.058849
0.0519376
0.0664093
0.0129754
-0.0069721
0.10505
-0.181673
-0.204847
-0.216308
-0.145493
-0.119856
-0.0865748
-0.154994
-0.128819
-0.156469
-0.146133
-0.124051
-0.128351
-0.116096
-0.123578
-0.144679
-0.147829
-0.161945
-0.154971
-0.167839
-0.167006
-0.153469
-0.153518
-0.150383
-0.137254
-0.266938
-0.248829
-0.244699
-0.227664
-0.226054
-0.246061
-0.241601
-0.255406
-0.12245
-0.117216
-0.132778
-0.143471
-0.151891
-0.156853
-0.156221
-0.16927
-0.168059
-0.160331
-0.165838
-0.151777
-0.232944
-0.260623
-0.248939
-0.238482
-0.242528
-0.208428
-0.216399
-0.229142
-0.261476
-0.249298
-0.245981
-0.244898
-0.247237
-0.260137
-0.130445
-0.133729
-0.124329
-0.178915
-0.168199
-0.159227
-0.145924
-0.134975
-0.151246
-0.113512
-0.129421
-0.139317
-0.000595145
0.00569054
-0.00861319
0.0166071
0.00946587
0.00278801
0.0525935
0.0603641
0.0242307
0.028795
0.0192508
0.0416329
0.0499832
0.0526335
0.0433355
0.012531
0.154089
0.0375049
0.00986117
-0.00388746
-0.00335473
0.0116737
-0.00581245
-0.00723785
0.05225
0.050848
0.154479
0.023958
0.0334859
-0.0779174
-0.0721968
0.01536
0.0160266
0.0131514
0.0148604
0.0131504
0.0195903
0.01541
0.0142038
-0.055554
-0.0514472
-0.0295245
-0.0331748
0.0232187
0.0237372
0.0214382
0.0257088
0.0316749
-0.104506
-0.0836889
-0.0444619
-0.12444
-0.0947659
-0.114915
-0.232194
-0.214185
-0.272754
-0.273962
-0.186424
-0.206186
-0.0884623
-0.0854041
-0.0951966
-0.0728381
-0.0823689
-0.0841558
-0.110805
-0.120496
-0.0984303
-0.107167
0.0227008
0.0298025
0.0378451
0.0126005
0.0257097
0.0198406
0.0248304
0.0137788
-0.102074
-0.0858825
-0.0974416
-0.0655055
-0.0814719
-0.0984698
-0.113766
-0.121984
-0.100949
-0.111027
-0.0565276
-0.0402361
-0.0601309
-0.0577992
-0.0654137
-0.180169
-0.201592
-0.17817
-0.190778
-0.15716
-0.133627
-0.187013
-0.16353
-0.13803
-0.157881
-0.175712
-0.164402
-0.162471
-0.148116
-0.163711
-0.16782
-0.158561
-0.163761
-0.171316
-0.171789
-0.168173
-0.169366
-0.153602
-0.166053
-0.164729
-0.139783
-0.147348
-0.124892
-0.13643
-0.155318
-0.157342
-0.149247
-0.154326
-0.13634
-0.149115
-0.143886
-0.266368
-0.257098
-0.23522
-0.228801
-0.246563
-0.254401
-0.241316
-0.235834
-0.145987
-0.152522
-0.141613
-0.155134
-0.148636
-0.168396
-0.15634
-0.139641
-0.127509
-0.146567
-0.141085
-0.169096
-0.169148
-0.155538
-0.173563
-0.174156
-0.171921
-0.173817
-0.170859
-0.167695
-0.173422
-0.171296
-0.153306
-0.166539
-0.16863
-0.240903
-0.257481
-0.230343
-0.23575
-0.246282
-0.231458
-0.220033
-0.227367
-0.250501
-0.248739
-0.262381
-0.261274
-0.249072
-0.249328
-0.0907507
-0.0911356
-0.0853166
-0.0805731
-0.096396
-0.0874186
-0.0978135
-0.068568
-0.0661208
-0.0622684
-0.0778334
-0.068852
-0.0717667
-0.122084
-0.114895
-0.124503
-0.12459
-0.107243
-0.104855
-0.0992837
-0.112203
-0.104899
-0.109356
-0.14653
-0.137188
-0.133891
-0.14199
-0.15017
-0.123763
-0.138382
-0.155554
-0.155848
-0.165263
-0.150961
0.00292345
0.00948809
0.0024934
0.0131958
0.0101423
0.00551019
0.0151741
-0.0288875
-0.00252626
-0.0228255
-0.0617669
-0.0607629
-0.0696626
-0.0477991
-0.0578437
-0.0585033
-0.0606439
-0.0630512
0.0634297
0.0751686
0.0344224
0.0394067
0.0726942
0.0557227
-0.000659359
-0.0199029
0.00311976
0.000596037
0.0185159
0.0361838
0.319356
0.245586
0.215837
0.228021
0.261377
0.325747
0.0340683
0.0791605
0.0469657
-0.0856648
-0.100531
-0.121026
-0.236393
-0.246999
-0.248612
-0.270316
-0.271862
-0.103039
-0.0944737
-0.105022
-0.226995
-0.224201
-0.214966
-0.121266
-0.111288
-0.107877
-0.0810767
-0.0628382
-0.0813203
-0.118569
-0.109713
-0.101233
-0.126733
-0.1508
-0.132273
-0.119061
-0.131693
-0.121413
-0.267823
-0.251082
-0.253522
-0.242227
-0.257585
-0.256444
-0.257064
-0.22215
-0.217659
-0.231178
-0.129553
-0.113999
-0.106612
-0.12679
-0.135342
-0.127127
-0.222613
-0.231638
-0.228815
-0.263751
-0.252513
-0.252973
-0.254582
-0.260433
-0.259584
-0.258688
-0.256247
-0.257678
-0.258171
-0.116294
-0.12233
-0.125199
-0.209447
-0.201103
-0.20571
-0.0959492
-0.0918869
-0.108038
0.0543449
0.0566717
0.0435263
0.0324778
0.0270385
0.0490913
0.0517115
0.0337549
0.049837
0.0340197
-0.0386596
-0.0333615
-0.0807108
-0.0652645
-0.0673887
-0.0683649
-0.061305
-0.0613297
-0.0632083
-0.0479581
-0.0499201
-0.0473575
-0.0445251
-0.0418296
-0.0412736
0.0319458
0.0256157
0.0247999
0.0902629
0.147998
0.116154
-0.0813158
-0.0825504
-0.0715888
-0.056065
-0.13941
-0.130654
-0.0315935
0.00791932
0.0148345
-0.231641
-0.240113
-0.229196
-0.220105
-0.222287
-0.225239
-0.275544
-0.274412
-0.195704
-0.192143
-0.192428
-0.200917
-0.208715
-0.201911
-0.094039
-0.0966922
-0.0730691
-0.0763559
-0.0785372
-0.0994277
-0.102685
-0.104597
-0.107638
-0.0974449
-0.0920999
-0.1078
-0.104155
-0.107434
-0.0766771
-0.0821964
-0.0889
-0.126217
-0.129492
-0.110001
-0.115046
-0.117053
-0.0103881
-0.0343069
-0.048319
-0.0380549
-0.0412964
-0.0384473
-0.0758717
-0.157061
-0.148979
-0.141919
-0.134757
-0.120818
-0.133083
-0.13594
-0.262206
-0.260833
-0.201368
-0.195245
-0.207293
-0.228954
-0.212718
-0.20723
-0.12951
-0.13759
-0.143805
-0.247038
-0.252641
-0.262044
-0.262028
-0.262943
-0.263171
-0.261947
-0.261892
-0.0865387
-0.0876503
-0.0867421
-0.0843518
-0.100406
-0.0978669
-0.100136
-0.112683
-0.119834
-0.113063
-0.120797
-0.119335
-0.129785
-0.12749
-0.10467
-0.104956
-0.1026
-0.118619
-0.117981
-0.189706
-0.195589
-0.206339
-0.18246
-0.177359
-0.183532
-0.0504695
-0.0469995
-0.0424806
-0.0580657
-0.0525199
-0.0537367
-0.034219
-0.0361049
-0.0445587
-0.0236852
-0.0301517
-0.0305909
-0.0667195
-0.0669705
-0.0697024
-0.0536721
-0.0489552
-0.0698159
0.0692699
0.0698496
0.0777422
0.0360112
0.0417721
0.0386807
0.0343025
0.048854
0.0408175
0.0420209
0.0891533
0.0696865
0.0415104
0.0508982
0.0465706
0.126075
0.216058
0.0818722
0.0162432
0.0162472
0.0724913
0.0989899
0.107039
0.0208676
0.0220645
0.0209824
0.0246779
0.023073
0.0220586
0.105028
0.0951216
0.0763387
0.159689
0.233849
0.201603
-0.245529
-0.246001
-0.234975
-0.222685
-0.214693
-0.208162
-0.227122
-0.222981
-0.271494
-0.271802
-0.187868
-0.189711
-0.180315
-0.184509
-0.211939
-0.220771
-0.21755
0.0361327
0.0381402
0.0415056
0.0332879
0.0362821
0.0338132
-0.20822
-0.197447
-0.194017
-0.204913
-0.201136
-0.212106
-0.266986
-0.243879
-0.254152
-0.257849
-0.256096
-0.255456
-0.254387
-0.244036
-0.235599
-0.225528
-0.263296
-0.249462
-0.251328
-0.251142
-0.260806
-0.260138
-0.26083
-0.259411
-0.258866
-0.259683
-0.173266
-0.168408
-0.173378
-0.162373
-0.165105
-0.16978
0.0584885
0.059964
0.0424774
0.0451008
0.0443308
0.0440222
0.0413946
0.0551698
0.0519947
0.0502806
0.052506
0.054384
0.0444156
0.0476077
0.0470762
0.003705
-0.0107508
-0.0118606
0.0164579
0.125214
0.106296
0.14329
0.0449386
0.0633463
0.0857018
-0.000148898
0.00131684
-0.00273794
0.00948005
0.00574003
0.00384638
-0.0109369
-0.00948839
-0.015747
-0.00620567
-0.00870203
-0.00820944
0.0673338
0.0741361
0.0459691
-0.00971098
-0.0248333
0.0169402
0.00870757
-0.0797492
-0.0699335
-0.0693747
-0.0719452
0.015512
0.0157603
0.0121441
0.0127505
0.0137212
-0.0586203
-0.0598284
-0.0588909
-0.0497127
-0.0478767
-0.0522137
-0.0482694
-0.054048
-0.0572131
-0.0277258
-0.025866
-0.0270235
-0.0254602
-0.0297627
-0.0191888
-0.0222889
-0.0374206
-0.038747
-0.0347722
0.0275768
0.0283021
0.0265456
0.0309289
0.0298082
0.029462
-0.0982707
-0.0855321
-0.0919425
-0.127416
-0.122516
-0.109334
-0.240963
-0.230426
-0.241993
-0.244333
-0.23105
-0.229859
-0.234763
-0.23264
-0.274455
-0.275009
-0.198107
-0.201959
-0.192351
-0.195213
-0.189356
-0.188905
-0.185877
-0.214628
-0.211452
-0.203518
-0.208998
-0.0851418
-0.0911779
-0.0811844
-0.0795375
-0.0824248
-0.114308
-0.118298
-0.114758
-0.123201
-0.121281
-0.117543
-0.101443
-0.10068
-0.0975498
-0.110799
-0.104104
-0.103995
-0.107708
0.0159745
0.0149271
0.0115798
0.0208741
0.0171507
-0.0974413
-0.0976974
-0.101128
-0.105017
-0.0951595
-0.0882599
-0.0933552
-0.12155
-0.123743
-0.126596
-0.123796
-0.119106
-0.115883
-0.11925
-0.0601141
-0.0522956
-0.0492277
-0.0373326
-0.0735435
-0.0752375
-0.0675543
-0.185063
-0.180897
-0.175405
-0.191048
-0.186593
-0.193327
-0.203015
-0.19466
-0.150106
-0.15931
-0.167695
-0.140363
-0.150955
-0.142572
-0.181752
-0.172935
-0.178551
-0.172449
-0.165055
-0.167222
-0.159274
-0.165848
-0.164887
-0.170326
-0.168116
-0.171607
-0.171652
-0.168583
-0.168954
-0.1429
-0.146389
-0.142941
-0.151386
-0.149213
-0.14533
-0.128035
-0.132063
-0.129396
-0.142561
-0.134733
-0.131356
-0.138607
-0.144169
-0.15616
-0.160634
-0.159834
-0.162082
-0.161477
-0.156885
-0.150875
-0.154692
-0.153461
-0.159036
-0.157771
-0.152927
-0.263495
-0.258667
-0.152961
-0.153899
-0.154236
-0.150901
-0.152914
-0.150729
-0.166428
-0.155531
-0.157751
-0.15884
-0.137061
-0.141499
-0.14228
-0.138168
-0.140601
-0.132633
-0.144568
-0.146872
-0.148828
-0.143233
-0.144741
-0.142646
-0.173186
-0.173087
-0.17202
-0.173815
-0.169406
-0.168393
-0.17253
-0.171129
-0.24385
-0.254908
-0.263043
-0.261965
-0.26141
-0.260655
-0.261424
-0.262484
-0.0882469
-0.0860648
-0.0866822
-0.0889869
-0.0995626
-0.0941182
-0.0892766
-0.124406
-0.122555
-0.119704
-0.12138
-0.123254
-0.125775
-0.128549
-0.130469
-0.12559
-0.127646
-0.126421
-0.126354
-0.126039
-0.108096
-0.107306
-0.106121
-0.117141
-0.109382
-0.14334
-0.143764
-0.146733
-0.137387
-0.140651
-0.140408
-0.14505
-0.14703
-0.127717
-0.131802
-0.126624
-0.134367
-0.161613
-0.155971
-0.159304
-0.149468
-0.15249
-0.157597
0.00813147
0.00463918
0.00686552
-0.00196358
0.0017784
0.0058279
0.0129049
0.0130799
0.0127395
0.00902709
0.0113842
0.0107161
0.0145035
-0.0384503
-0.0329873
-0.0455222
-0.0424058
-0.00785779
-0.0111544
-0.00660198
-0.0261791
-0.0168153
-0.0157242
-0.062006
-0.0648494
-0.0645872
-0.0576057
-0.0658485
0.0618508
0.0644551
0.036913
0.0356225
0.0323785
0.039144
0.0375417
0.0381699
0.0383852
0.0405013
0.0623736
0.0570284
0.0264091
0.0358451
0.0281072
0.0394886
0.0442131
0.0320449
0.0431944
0.0330118
0.0266613
0.0276977
0.0151904
0.0150246
0.0139439
0.0206287
0.0214643
0.0253179
0.0450806
0.0383865
0.0551425
0.0863777
0.0497673
0.0856758
0.0449966
0.0357482
0.0322989
0.00739293
0.0128247
0.00184345
-0.00540737
-0.00038716
0.00402248
0.00549673
0.0183473
0.00820717
0.0260472
0.045314
0.0545622
0.087431
0.0750894
0.13654
0.09497
0.0769657
0.0295328
0.0132377
0.0193963
-0.0223179
-0.0216367
-0.0121923
-0.0124013
-0.022476
-0.000826356
-0.00831218
-0.00908617
0.00216973
0.00928963
0.0123741
0.0270166
-0.0585996
-0.0530474
-0.0257766
-0.0627457
-0.0460237
-0.0333463
-0.0267187
-0.0431998
-0.0290067
-0.0414539
-0.0506292
-0.0421125
-0.0794356
-0.0891902
-0.0804352
-0.155429
-0.121521
-0.098641
-0.0930329
-0.0667874
-0.0577667
-0.0305758
-0.044508
-0.0452915
-0.0545056
-0.0651952
-0.0645532
-0.108332
-0.119459
-0.119222
-0.180191
-0.143093
-0.139905
-0.0955602
-0.0725045
-0.071862
-0.02349
-0.0297037
-0.0418557
-0.0442125
-0.0510725
-0.0565983
-0.0840073
-0.0905643
-0.0961219
-0.13636
-0.11505
-0.128632
-0.0736251
-0.061857
-0.068899
-0.0107754
-0.00917914
-0.0246386
-0.0357752
-0.0372855
-0.0447246
-0.0690836
-0.0643876
-0.0840059
-0.0423705
-0.0421852
-0.0525395
0.0011556
0.00691618
-0.00445551
-0.00959825
-0.0196156
-0.0308291
-0.0156859
-0.0226152
-0.0319169
0.00840632
0.0120805
0.00913099
0.0171786
0.0288341
0.0279339
0.0354974
0.047335
0.051659
0.0652126
0.0711347
0.0690021
0.0184489
0.00254481
-0.007238
-0.00414457
-0.00887455
-0.0149332
0.0107081
0.0141247
0.0136718
0.0174833
0.0220175
0.0271506
0.0233673
0.0245531
0.0411493
0.0245869
0.0177444
0.023409
0.0151541
0.00743487
0.00379219
0.0024455
-0.00224463
-0.00493094
0.0143077
0.0172648
0.0193579
0.0151215
0.0197772
0.0200074
0.0198568
0.0118717
0.0158745
0.0117158
0.00699177
0.00779967
-0.0705421
-0.0593909
-0.0525242
-0.110609
-0.123903
-0.147549
-0.00169921
-0.0211616
-0.0262559
-0.118026
-0.115822
-0.104458
-0.18814
-0.2088
-0.215234
-0.154361
-0.17312
-0.150466
-0.101375
-0.106192
-0.0975817
-0.18101
-0.200904
-0.190164
-0.216321
-0.218266
-0.195512
-0.0518551
-0.0585559
-0.0551176
-0.116932
-0.126381
-0.111615
-0.185849
-0.172269
-0.160675
-0.044237
-0.0431921
-0.0342428
-0.102538
-0.0920352
-0.0892349
0.0494666
0.0368101
0.0224743
0.103556
0.0963634
0.0913785
0.0940119
0.0827113
0.100707
-0.0255192
-0.016842
-0.0198636
0.0648046
0.0890945
0.0518623
0.374591
0.331285
0.33971
0.0825115
0.10149
0.13716
0.369654
0.387527
0.0181846
0.0295957
0.0162145
0.0679612
0.0784397
0.0387571
-0.032032
-0.0207921
-0.01741
-0.0257303
-0.0234346
-0.0377338
0.00607626
-0.00835943
-0.0150234
-0.081831
-0.0888227
-0.117809
0.0515761
0.0283246
0.0209912
-0.0912455
-0.0622872
-0.0738302
-0.0577007
-0.0616323
-0.0777578
-0.0294932
-0.0451325
-0.0446955
-0.0619375
-0.05727
-0.0470287
-0.0873138
-0.0688487
-0.074291
-0.0503724
-0.0608429
-0.0827666
-0.103176
-0.0967504
-0.0863651
-0.132362
-0.124848
-0.127937
-0.0986591
-0.104021
-0.110403
-0.205765
-0.209494
-0.202703
-0.139276
-0.125639
-0.162418
-0.100274
-0.115021
-0.122299
-0.0924255
-0.105007
-0.092172
-0.0609842
-0.0639295
-0.0538224
-0.0952581
-0.0757107
-0.0717708
-0.0771757
-0.0775985
-0.0972226
-0.116838
-0.118643
-0.107742
-0.145857
-0.138704
-0.136949
-0.142075
-0.142403
-0.150051
-0.133816
-0.140395
-0.177897
-0.110519
-0.126748
-0.122712
-0.126665
-0.12815
-0.111491
-0.037569
-0.044639
-0.0390716
-0.0630466
-0.0511787
-0.0424842
-0.0661314
-0.0591616
-0.0683731
-0.078485
-0.0846522
-0.0786993
-0.10111
-0.090717
-0.081225
-0.111403
-0.108183
-0.112632
-0.177173
-0.177543
-0.174147
-0.090903
-0.108535
-0.128309
-0.0884144
-0.0984139
-0.0877863
-0.116328
-0.108087
-0.096122
-0.0790771
-0.0819045
-0.072796
-0.118729
-0.115581
-0.114385
-0.043443
-0.0551036
-0.0609725
-0.0519332
-0.0541702
-0.0433539
-0.0765912
-0.0651684
-0.0613318
0.0119472
0.0152727
0.0204224
-0.0190526
-0.0131182
-0.014731
0.0383753
0.0450881
0.03549
0.0574255
0.0487627
0.042561
0.076977
0.0740968
0.0674489
0.0378789
0.0434375
0.0567944
0.0256024
0.0381403
0.0320271
0.0396825
0.0393494
0.0237784
-0.0941082
-0.0871784
-0.09313
-0.0343689
-0.0569116
-0.0738221
-0.0417018
-0.0469797
-0.0332425
-0.063276
-0.0767881
-0.061979
0.0445305
0.0489361
0.0675773
-0.0492458
-0.0366154
-0.0308939
-0.190643
-0.197936
-0.202092
-0.115825
-0.124474
-0.119376
-0.0857065
-0.10447
-0.0961978
-0.120404
-0.112691
-0.0992132
-0.172574
-0.165144
-0.175535
-0.148422
-0.140737
-0.141588
-0.130611
-0.133136
-0.140759
-0.101442
-0.112665
-0.108439
-0.145129
-0.148928
-0.147271
-0.159418
-0.159007
-0.154365
-0.145933
-0.144463
-0.140221
-0.19599
-0.206322
-0.183076
-0.241295
-0.23412
-0.230747
-0.204376
-0.188646
-0.181185
-0.229604
-0.226799
-0.235086
-0.160583
-0.178269
-0.192326
-0.12264
-0.118109
-0.114799
-0.134807
-0.132594
-0.138355
-0.10121
-0.110478
-0.11405
-0.145962
-0.148389
-0.150211
-0.123315
-0.125325
-0.123091
-0.155917
-0.15994
-0.15959
-0.152178
-0.153761
-0.149553
-0.212227
-0.204397
-0.186217
-0.215616
-0.218645
-0.223356
-0.195171
-0.217715
-0.214483
-0.0843995
-0.0865901
-0.0941764
-0.0613769
-0.0650766
-0.062323
-0.117486
-0.120159
-0.121483
-0.0967606
-0.102104
-0.0967061
-0.123944
-0.124978
-0.121877
-0.171167
-0.168458
-0.16617
-0.14735
-0.131831
-0.126156
-0.157485
-0.153576
-0.159409
-0.118086
-0.123946
-0.126443
-0.215179
-0.209704
-0.212187
-0.165328
-0.171305
-0.17925
-0.152572
-0.167277
-0.15255
-0.00866137
-0.00668744
-0.0117439
0.0138515
0.010938
0.00904967
-0.0490471
-0.0512079
-0.0565808
-0.017175
-0.0230187
-0.023582
-0.0319197
-0.0312385
-0.0250924
-0.0697186
-0.0607905
-0.0613018
-0.108031
-0.106314
-0.112208
-0.0706645
-0.0864167
-0.0902473
-0.0798942
-0.0818262
-0.0719124
0.0484317
0.0610334
0.0478012
0.0723495
0.0635563
0.0501572
0.0180166
0.0196221
0.0166262
0.0366749
0.0545789
0.0621485
-0.0183795
-0.00292421
-0.00412825
-0.00043738
-0.00166423
-0.0267249
0.0351679
0.0174303
0.013152
0.125517
0.0965415
0.0862896
-0.01692
-0.0150646
-0.00655266
-0.0333649
-0.0241117