/*--------------------------------*- C++ -*----------------------------------*\
| =========                 |                                                 |
| \\      /  F ield         | OpenFOAM: The Open Source CFD Toolbox           |
|  \\    /   O peration     | Version:  5.x                                   |
|   \\  /    A nd           | Web:      www.OpenFOAM.org                      |
|    \\/     M anipulation  |                                                 |
\*---------------------------------------------------------------------------*/
FoamFile
{
    version     2.0;
    format      ascii;
    class       surfaceScalarField;
    location    "500";
    object      phi;
}
// * * * * * * * * * * * * * * * * * * * * * * * * * * * * * * * * * * * * * //

dimensions      [0 3 -1 0 0 0 0];

internalField   nonuniform List<scalar> 
13181
(
8.75516e-06
0.00915663
8.45504e-06
0.0091673
7.34657e-06
0.00916761
6.14104e-06
0.00916771
4.20362e-06
0.00916894
-3.22034e-06
0.00917392
-7.78126e-06
0.00917121
-8.32024e-06
0.00916724
-6.81433e-06
0.00916514
-1.66241e-06
0.0091615
7.59438e-06
0.00915744
1.91757e-05
0.00915507
2.97296e-05
0.0091561
3.60163e-05
0.00916041
3.69899e-05
0.00916568
3.36325e-05
0.00917001
2.7624e-05
0.00917271
2.03455e-05
0.00917393
8.87436e-06
0.00917797
-9.58066e-07
0.00917683
-1.35525e-05
0.00917909
-1.8678e-05
0.00917163
-1.96902e-05
0.00916801
0.00914527
1.25114e-05
0.00914127
3.53899e-05
0.00914442
3.57727e-05
0.00916723
3.52939e-05
0.00916818
2.93442e-05
0.00917489
1.02721e-05
0.009193
-1.46358e-05
0.00919612
-2.22704e-05
0.00917487
-2.06596e-05
0.00916353
-1.05927e-05
0.00457561
0.00457582
8.15968e-06
0.00456929
0.0045694
3.25344e-05
0.00456514
0.00456556
5.48018e-05
0.00456643
0.0045674
6.79187e-05
0.00457305
0.00457424
6.97036e-05
0.00458137
0.00458252
5.50057e-05
0.00918471
3.27201e-05
0.00919499
1.06096e-05
0.00919604
-1.25516e-05
0.00920113
-2.07308e-05
0.00918501
-2.14214e-05
0.00917979
-2.24731e-05
0.00917268
-4.6804e-07
0.00914601
0.00914096
-3.6315e-06
0.00914027
-4.40671e-07
0.00914123
1.95526e-05
0.00914723
1.77452e-05
0.00916999
1.8983e-05
0.00917365
2.05186e-05
0.00919146
-1.20059e-05
0.00922864
-3.32026e-05
0.00919607
-1.73644e-05
0.00916954
-2.18423e-05
0.00457231
-1.4067e-05
0.00456384
-4.34532e-06
9.79708e-06
-2.84164e-06
0.00455688
1.11005e-05
-2.00991e-05
0.00455791
2.86105e-05
-3.58884e-05
0.0045676
4.13421e-05
-4.41754e-05
0.00458133
4.42094e-05
4.42897e-05
0.00461085
-3.44718e-05
-4.5617e-05
0.00460965
5.60561e-06
0.00923368
-7.56377e-06
0.00920921
-6.57129e-06
0.00920014
-8.2046e-06
0.00918665
-9.85122e-06
0.00918143
7.51771e-06
0.00915531
8.36423e-06
0.00914516
0.00914318
-9.45121e-06
0.00914338
-1.22233e-05
0.009144
-1.24847e-05
0.00914749
1.4484e-06
0.00915606
-2.85307e-06
0.00917795
-2.23437e-06
0.00919084
-6.15599e-06
0.00923256
-2.57642e-05
0.00921568
-3.24555e-05
0.0046144
-3.52652e-05
0.00459709
0.00456677
-2.8602e-05
-0.00457062
0.00454913
-1.54828e-05
-0.00455712
2.34772e-05
3.64922e-06
0.00453036
1.15836e-05
-0.00454559
-2.87463e-05
0.00452958
4.51939e-05
-0.00454602
-5.73955e-05
0.00456287
5.62669e-05
-0.00456174
-3.92029e-05
0.00461196
1.79201e-05
-0.00459067
-3.76046e-06
0.00461399
6.2214e-07
3.36207e-05
0.00461361
-1.46918e-05
-3.25852e-06
0.0046044
2.64431e-05
0.00921639
1.7692e-05
0.00920889
6.71502e-06
0.00919762
1.80267e-05
0.00917012
1.72243e-05
0.00915611
1.18888e-05
0.0091505
0.00914696
-1.12309e-05
0.0091468
-1.56691e-05
0.00914844
-2.08756e-05
0.0091527
-2.25534e-05
0.00915774
-1.57761e-05
0.00917117
-1.8808e-05
0.00919387
1.49755e-05
0.00919878
2.22425e-05
0.00458902
1.02291e-05
0.00460917
0.00464166
-5.01999e-06
0.00457379
-3.07355e-05
-0.00456742
2.43609e-05
0.00454603
-3.74239e-05
-0.00454224
3.36333e-05
2.09878e-05
6.1021e-06
-0.00451005
0.0022412
0.00224176
-3.93352e-05
7.18616e-05
-0.00450704
0.0022373
0.00223721
-8.25128e-05
4.65996e-05
-0.0045806
0.00230217
0.00231434
-5.69243e-05
0.00461267
5.79223e-05
-0.00461367
-4.92166e-05
0.00462227
4.90261e-05
-0.00462208
-4.66824e-05
0.00461493
4.5355e-05
5.20448e-05
0.00924492
-4.31499e-05
-3.74314e-05
3.17008e-05
0.00922924
3.33612e-05
0.00919596
2.78188e-05
0.00917566
1.95897e-05
0.00916434
1.37264e-05
0.00915636
0.00915122
-1.22392e-05
0.00915017
-1.69065e-05
0.00915311
-2.30178e-05
0.00915881
-3.16292e-05
0.00916635
-3.64832e-05
0.00917603
-3.89294e-05
0.00919632
-2.46135e-05
0.00921754
-3.30766e-05
0.00459797
-3.35648e-05
0.00460329
4.09946e-06
-0.00463559
2.82083e-05
0.00457979
2.37781e-05
-0.00458281
-2.07604e-05
-0.00228203
-2.43494e-06
0.00228719
-2.72339e-06
-0.00222813
1.179e-05
0.00222979
-1.34464e-05
-0.00221391
-2.45976e-05
0.00220076
3.77441e-05
-0.00229156
-3.15608e-05
0.00226326
5.98618e-05
-4.41331e-05
0.000109022
-0.00462008
-4.81833e-05
0.00229746
0.00230591
-0.000104401
0.00463926
8.95303e-05
-0.00462439
-7.31647e-05
-0.00462559
0.00463947
5.92848e-05
6.56931e-05
0.00928196
-5.35112e-05
-4.92167e-05
5.18556e-05
0.00924307
4.03599e-05
0.00920746
2.82447e-05
0.00918778
2.01138e-05
0.00917247
1.4038e-05
0.00916244
0.0091553
-1.28058e-05
0.00915359
-1.7651e-05
0.00915795
-2.34143e-05
0.00916458
-3.13555e-05
0.00917429
-4.2939e-05
0.00918761
-5.38208e-05
0.0092072
-3.5519e-05
0.0092347
-3.54637e-05
-0.00460679
0.00461639
-4.51234e-05
-0.00460466
0.00461949
-7.20406e-05
5.72053e-05
-0.0045902
0.0046145
9.12264e-05
-5.4421e-05
-6.11042e-05
-0.00227451
5.54425e-05
0.00227533
-5.62705e-05
-0.00111047
1.85127e-05
0.00110639
-1.44333e-05
-1.49978e-05
-0.00105585
0.00105016
2.068e-05
-4.96406e-05
-0.00228242
9.71885e-05
-3.6085e-05
0.00112251
0.00114845
-0.000108143
-0.00231228
0.00232479
9.56282e-05
-0.000143127
-0.00466385
0.00469367
0.000113306
-8.91357e-05
-0.00465542
0.00467499
6.95587e-05
7.4372e-05
0.00931388
-5.26338e-05
-5.36613e-05
5.4677e-05
0.00926277
3.65799e-05
0.00922555
2.47178e-05
0.00919964
1.69306e-05
0.00918026
1.15859e-05
0.00916778
0.00915751
-1.1872e-05
0.0091562
-1.63226e-05
0.0091624
-2.14123e-05
0.00916966
-2.93287e-05
0.00918221
-3.99245e-05
0.00919821
-5.54464e-05
0.00922272
-3.40714e-05
0.00925225
-3.89239e-05
-0.00462657
0.00463727
-4.47732e-05
-0.00463873
0.00465755
-7.77603e-05
5.89388e-05
-0.00464859
0.00468627
0.000104036
-6.93838e-05
-7.23357e-05
-0.00231075
9.76279e-05
0.00233117
-0.000118053
-0.0011243
0.000104275
0.00113797
-0.000117945
-0.000147587
-0.00116151
0.00117573
0.000133366
-0.000149625
-0.0023721
0.00239447
0.000127246
-0.000164852
-0.0047325
0.00477054
0.000126812
-9.84787e-05
-0.00469824
0.00471884
7.78786e-05
6.85071e-05
0.00936033
-5.41125e-05
-6.0848e-05
3.91567e-05
0.00929212
2.54818e-05
0.00923923
1.65714e-05
0.00920855
1.15033e-05
0.00918533
8.84669e-06
0.00917044
0.00915876
-1.0543e-05
0.00915823
-1.31075e-05
0.00916497
-1.67884e-05
0.00917335
-2.13826e-05
0.0091868
-2.77877e-05
0.00920461
-3.68789e-05
0.00923182
-2.88128e-05
0.00926719
-2.30067e-05
-0.00463996
0.00464853
-3.73831e-05
-0.00467975
0.00469429
-6.68987e-05
5.23545e-05
-0.00472303
0.00474965
8.5745e-05
-5.93265e-05
-5.30331e-05
-0.00239024
8.39335e-05
0.00240567
-9.93586e-05
-0.00122768
8.92096e-05
0.00123671
-9.82415e-05
-0.000123398
-0.00127888
0.00128992
0.000112361
-0.000113559
-0.00245697
0.00247519
9.534e-05
-0.000112178
-0.00480606
0.00483275
8.54938e-05
-6.50387e-05
-0.00473709
0.00475076
5.13623e-05
4.64229e-05
0.00937985
-2.708e-05
-3.88604e-05
2.19924e-05
0.00931655
8.92527e-06
0.0092523
5.43318e-06
0.00921204
3.73343e-06
0.00918703
3.03487e-06
0.00917114
0.00915713
-8.09153e-06
0.00915909
-1.00205e-05
0.0091669
-1.14098e-05
0.00917473
-1.35085e-05
0.0091889
-1.45602e-05
0.00920566
-1.57345e-05
0.00923299
-1.15305e-05
0.00926779
-4.80239e-06
-0.00465606
0.00466355
-1.90224e-05
-0.00470321
0.00470614
-2.47847e-05
2.18482e-05
-0.00476487
0.0047673
2.71467e-05
-1.89534e-05
-1.06305e-05
-0.00243308
2.47344e-05
0.00243523
-2.68837e-05
-0.00126873
1.96191e-05
0.00126922
-2.01061e-05
-2.38904e-05
-0.0013322
0.00133337
2.27241e-05
-2.43371e-05
-0.00250735
0.00251043
2.12585e-05
-1.86283e-05
-0.00484799
0.00485031
1.63168e-05
-1.44147e-05
-0.00475939
0.00476205
1.17583e-05
8.78394e-06
0.00937607
3.11346e-06
-8.11355e-06
1.16165e-05
0.00931372
-4.17577e-06
0.00926809
-8.27411e-06
0.00921614
-5.00876e-06
0.00918376
-2.84825e-06
0.00916897
0.00915346
-5.90663e-06
0.00915937
-6.24189e-06
0.00916723
-5.94151e-06
0.00917443
-4.20584e-06
0.00918716
-2.26605e-06
0.00920372
4.524e-06
0.0092262
4.97367e-06
0.00925875
8.59366e-06
-0.00466571
0.00466582
4.86877e-06
-0.00470328
0.0046951
1.83444e-05
-1.01661e-05
-0.00475777
0.00473912
-3.12973e-05
2.14512e-05
2.85002e-05
-0.00242285
-3.33293e-05
0.00241374
4.24407e-05
-0.00124852
-4.11549e-05
0.00124329
4.63816e-05
7.00677e-05
-0.00130725
0.00129976
-6.25774e-05
6.46808e-05
-0.00249565
0.00248475
-5.37776e-05
7.20031e-05
-0.00484043
0.00482101
-5.25775e-05
3.68867e-05
-0.00475772
0.00474815
-2.73157e-05
-2.83201e-05
0.00935322
2.95982e-05
2.15713e-05
-1.23474e-05
0.00929774
-2.9779e-06
0.00925872
-2.1605e-05
0.00923477
-1.50601e-05
0.00917722
-9.13701e-06
0.00916305
0.00914793
-3.38058e-06
0.00915882
-1.94303e-06
0.0091658
1.79133e-08
0.00917247
3.65832e-06
0.00918352
1.05067e-05
0.00919688
2.2587e-05
0.00921412
1.64971e-05
0.00924531
1.95296e-05
-0.00465982
0.00465328
2.30377e-05
-0.00468348
0.00466995
4.64687e-05
-3.29404e-05
-0.00471407
0.00468687
-6.57807e-05
4.55007e-05
4.74815e-05
-0.00237798
-6.5474e-05
0.00236476
7.86971e-05
-0.00119905
-6.91353e-05
0.00119202
7.6162e-05
0.000111246
-0.00123773
0.00122876
-0.000102281
0.00011399
-0.00243905
0.00242212
-9.70624e-05
0.000128641
-0.00479252
0.00475887
-9.4988e-05
7.21553e-05
-0.00473397
0.00471741
-5.55966e-05
-5.32055e-05
0.0093165
4.68162e-05
4.31077e-05
-3.03322e-05
0.00927487
-1.49042e-05
0.00924329
-7.11213e-06
0.00922698
-2.37863e-05
0.00919389
-1.56535e-05
0.00915492
0.00914051
-1.32384e-06
0.00915779
8.93328e-07
0.00916358
3.75626e-06
0.00916961
9.04782e-06
0.00917823
1.66994e-05
0.00918922
2.98698e-05
0.00920095
2.38137e-05
0.00922698
2.43813e-05
-0.00464518
0.00463723
3.1764e-05
-0.00465576
0.00464255
5.43567e-05
-4.11501e-05
-0.00465999
0.00463663
-7.17879e-05
4.85335e-05
4.66148e-05
-0.00232722
-6.63547e-05
0.00231673
7.68407e-05
-0.00114737
-6.21396e-05
0.00114278
6.67335e-05
0.000104426
-0.00116652
0.00115841
-9.63205e-05
0.000114827
-0.00237244
0.00235792
-0.000100312
0.000135225
-0.00472225
0.00469177
-0.000104746
8.21079e-05
-0.00470035
0.00468388
-6.56318e-05
-6.2841e-05
0.00927891
5.00291e-05
5.04033e-05
-3.81971e-05
0.00925023
-2.09571e-05
0.00922605
-1.69428e-05
0.00922296
-2.73693e-05
0.00920432
-2.1359e-05
0.00914891
0.00913177
6.03693e-07
0.00915613
2.58737e-06
0.00916159
6.11605e-06
0.00916608
1.08986e-05
0.00917345
1.80799e-05
0.00918204
2.84485e-05
0.00919058
4.19532e-05
0.00921348
3.64104e-05
0.00924222
2.69335e-05
-0.00463028
-0.00463333
-0.00463159
0.00462413
4.38673e-05
-0.00461834
0.00462497
3.93888e-05
-4.60195e-05
-0.00230167
-8.10538e-06
0.00232683
-1.70539e-05
-0.00114745
3.42407e-05
0.00112899
-1.57792e-05
-0.000315529
9.36699e-06
0.000328235
-2.20721e-05
4.17869e-05
-0.00112371
0.00225851
-8.422e-05
3.63954e-05
-0.00112876
-0.00232636
8.15828e-05
0.00232142
-7.66356e-05
0.000103703
-0.00466819
0.00465019
-8.57073e-05
7.04764e-05
-0.00467138
0.00466656
-6.56567e-05
-5.91584e-05
0.00925038
4.1482e-05
4.62007e-05
-3.78127e-05
0.00922888
-2.22185e-05
0.00921046
-3.25005e-05
0.00923324
-4.3722e-06
0.00917619
-2.34269e-05
0.00916796
0.00912487
8.76814e-07
0.00915511
2.70645e-06
0.00915976
5.33912e-06
0.00916345
8.83163e-06
0.00916996
1.44834e-05
0.00917639
1.9873e-05
0.00918519
1.3939e-05
0.00921941
-6.58212e-06
0.00929167
-2.89372e-05
-0.00463367
0.00465156
-2.44712e-05
-0.00463527
0.00461557
-3.17466e-06
2.28716e-05
-0.00229315
-1.63882e-05
0.0022894
2.01394e-05
-0.00225861
-1.05288e-05
0.00226576
3.37478e-06
-0.000924734
3.59546e-05
0.00196153
-6.09169e-05
-0.00101184
-0.00228488
7.0375e-05
0.00227928
-6.4772e-05
-0.00461333
7.56252e-05
0.00462303
-0.000137067
5.17364e-05
0.00012733
-0.00464009
0.00462745
-0.000114697
-0.000142583
0.0092399
7.27357e-05
0.000104908
-0.00468132
-0.00459365
-0.000113371
0.00922117
-9.1181e-05
0.00920669
-7.11776e-05
0.00919045
-1.52845e-05
0.00917735
-4.40998e-06
0.00916531
4.23744e-06
0.00915932
0.00914884
1.07823e-06
0.00915444
1.96726e-06
0.00915888
3.37341e-06
0.00916204
5.69908e-06
0.00916763
7.9069e-06
0.00917418
6.13362e-06
0.00918696
-1.81871e-05
0.00924373
-2.94974e-05
0.00929465
8.33499e-06
-0.00464825
0.00461946
-7.05327e-07
-0.00460328
0.00460316
1.43482e-05
-1.42318e-05
-0.00458727
0.00459641
1.29939e-06
-1.044e-05
-0.0022821
5.00319e-06
0.00228539
-8.29966e-06
-0.00200957
2.59634e-05
0.0020262
-4.25973e-05
-0.00227883
4.35336e-05
0.0045719
-9.60222e-05
-0.00228209
4.15116e-05
-0.00461356
0.000105614
0.0046068
-9.88575e-05
-0.00461958
9.37384e-05
0.00461294
-8.71014e-05
-0.000107706
0.00920147
6.84248e-05
7.77127e-05
-7.72128e-05
0.00919068
-6.53908e-05
0.00919487
-5.83403e-05
0.0091834
-5.10314e-05
0.00917004
-4.28509e-05
0.00915713
-3.18979e-05
0.00914836
0.00913915
3.29934e-07
0.00915472
1.13282e-06
0.00915807
1.68448e-06
0.00916149
2.26327e-06
0.00916705
2.07617e-06
0.00917437
-9.04656e-06
0.00919809
-2.5708e-05
0.0092604
4.31233e-06
0.00926463
3.05173e-06
0.0092319
-0.00461831
-0.00461191
-4.25082e-07
-0.00460608
0.00460775
1.37436e-06
-0.00460406
0.00461054
-8.96968e-06
2.48664e-06
-0.00458326
1.77416e-05
0.00458775
-2.22272e-05
-0.00426845
4.10546e-05
0.00428941
-6.20092e-05
-0.00458174
6.80338e-05
0.00458597
-7.22659e-05
-0.00460144
7.22436e-05
0.0045989
-6.97057e-05
-0.00460849
6.78302e-05
0.00460523
-6.45704e-05
-0.000104162
0.00918882
5.69452e-05
5.98654e-05
-8.69823e-05
0.0091735
-6.92016e-05
0.00917709
-5.09034e-05
0.0091651
-3.45204e-05
0.00915366
-2.70648e-05
0.00914968
-2.41823e-05
0.00914548
0.00913902
-2.31191e-07
0.00915548
-5.54877e-07
0.0091584
-1.34237e-06
0.00916228
-1.88674e-06
0.0091676
-6.14902e-06
0.00917863
-2.83727e-05
0.00922031
-2.79706e-05
0.00925999
-6.7061e-06
0.00924336
-1.3162e-05
0.00923836
-1.15502e-05
0.00923464
-0.00461026
-0.00461132
-1.4669e-05
-0.00461632
0.00462101
-1.62485e-05
-0.00458835
2.41446e-05
0.00457979
-1.55833e-05
-0.00430649
3.71673e-05
0.00432525
-5.59301e-05
-0.00459025
4.89638e-05
0.00459428
-5.2997e-05
-0.000102414
0.00919914
-0.00459887
-0.00459961
4.89546e-05
5.28034e-05
-9.8287e-05
0.00920053
-0.00460288
-0.00460178
-8.99062e-05
0.00918044
-8.21313e-05
0.00916572
-6.67357e-05
0.00916169
-5.3245e-05
0.00915161
-4.1816e-05
0.00914223
-3.238e-05
0.00914024
-1.95021e-05
0.0091326
0.00914467
-9.88537e-07
0.00915671
-2.40137e-06
0.00915981
-3.42112e-06
0.0091633
-4.87412e-06
0.00916905
-8.28764e-06
0.00918205
-2.52785e-05
0.0092373
-1.75099e-05
0.00925222
-9.87197e-06
0.00923573
-1.84084e-05
0.00924689
-3.01053e-05
0.00924633
-3.92168e-05
0.00925937
-0.00462773
-0.00462253
-6.18686e-05
0.00888682
-0.00454041
-0.00432376
-8.27434e-05
0.00890889
-0.00436112
-0.0045269
-8.67286e-05
0.00921073
-0.00460004
-0.00460671
-8.65371e-05
0.00919895
-8.41814e-05
0.00919817
-7.83539e-05
0.00917461
-7.22722e-05
0.00915964
-6.12181e-05
0.00915064
-5.15916e-05
0.00914199
-4.44426e-05
0.00913508
-3.34746e-05
0.00912927
-2.41811e-05
0.00912331
0.00914621
-1.85215e-06
0.00915835
-3.27477e-06
0.00916123
-5.39614e-06
0.00916542
-7.54112e-06
0.00917119
-1.12598e-05
0.00918576
-2.10037e-05
0.00924705
-1.68792e-05
0.0092481
-1.47233e-05
0.00923357
-2.12083e-05
0.00925338
-3.07395e-05
0.00925587
-3.82086e-05
0.00926684
-5.2811e-05
0.00890142
-6.65642e-05
0.00892265
-7.12327e-05
0.0092154
-7.38577e-05
0.00920158
-7.27631e-05
0.00919708
-6.89393e-05
0.00917079
-6.40534e-05
0.00915476
-5.61298e-05
0.00914271
-4.84028e-05
0.00913426
-4.13307e-05
0.00912801
-3.31516e-05
0.00912109
-2.5437e-05
0.00911559
0.00914664
-2.76012e-06
0.00916034
-5.10409e-06
0.00916358
-7.69134e-06
0.00916801
-1.03414e-05
0.00917384
-1.3087e-05
0.00918851
-1.67717e-05
0.00925073
-1.68414e-05
0.00924817
-1.77564e-05
0.00923449
-2.33114e-05
0.00925893
-3.13477e-05
0.0092639
-3.66299e-05
0.00927212
-4.73059e-05
0.0089121
-5.73615e-05
0.0089327
-6.08387e-05
0.00921888
-6.3996e-05
0.00920473
-6.34383e-05
0.00919652
-6.08634e-05
0.00916822
-5.74251e-05
0.00915132
-5.16183e-05
0.00913691
-4.53919e-05
0.00912803
-3.91546e-05
0.00912177
-3.21163e-05
0.00911406
-2.54037e-05
0.00910888
0.00914691
-3.67278e-06
0.00916261
-6.34372e-06
0.00916625
-8.77044e-06
0.00917043
-1.17708e-05
0.00917684
-1.48383e-05
0.00919158
-1.62621e-05
0.00925215
-1.84008e-05
0.00925031
-2.28628e-05
0.00923895
-2.44886e-05
0.00926056
-3.117e-05
0.00927058
-3.53976e-05
0.00927635
-4.31843e-05
0.00891989
-5.02426e-05
0.00893976
-5.33147e-05
0.00922195
-5.60433e-05
0.00920746
-5.58287e-05
0.00919631
-5.41784e-05
0.00916657
-5.18562e-05
0.009149
-4.67647e-05
0.00913182
-4.27052e-05
0.00912397
-3.65691e-05
0.00911563
-3.10067e-05
0.00910849
-2.5681e-05
0.00910356
0.00914644
-5.06914e-06
0.00916559
-6.97753e-06
0.00916816
-1.01403e-05
0.0091736
-1.28654e-05
0.00917957
-1.61e-05
0.00919481
-1.76243e-05
0.00925368
-1.98762e-05
0.00925256
-2.40351e-05
0.00924311
-2.49429e-05
0.00926147
-3.05134e-05
0.00927615
-3.39322e-05
0.00927977
-3.97449e-05
0.0089257
-4.47588e-05
0.00894477
-4.73296e-05
0.00922452
-4.96674e-05
0.0092098
-4.95793e-05
0.00919622
-4.84543e-05
0.00916544
-4.62524e-05
0.00914679
-4.306e-05
0.00912862
-3.94124e-05
0.00912033
-3.41564e-05
0.00911038
-2.94134e-05
0.00910375
-2.43631e-05
0.00909851
0.00914664
-5.4344e-06
0.00916822
-8.51037e-06
0.00917123
-1.13168e-05
0.0091764
-1.41752e-05
0.00918243
-1.74672e-05
0.0091981
-1.84921e-05
0.0092547
-2.07929e-05
0.00925486
-2.45967e-05
0.00924691
-2.74697e-05
0.00926434
-2.97662e-05
0.00927845
-3.24177e-05
0.00928242
-3.68346e-05
0.00893012
-4.04236e-05
0.00894836
-4.25666e-05
0.00922666
-4.44967e-05
0.00921173
-4.44632e-05
0.00919619
-4.36459e-05
0.00916462
-4.19899e-05
0.00914514
-3.8966e-05
0.0091256
-3.60076e-05
0.00911737
-3.24568e-05
0.00910683
-2.83805e-05
0.00909967
-2.44843e-05
0.00909461
0.00914592
-6.27048e-06
0.00917093
-8.94566e-06
0.00917391
-1.23289e-05
0.00917979
-1.52496e-05
0.00918535
-1.80238e-05
0.00920088
-1.89884e-05
0.00925567
-2.1365e-05
0.00925724
-2.48014e-05
0.00925035
-2.8329e-05
0.00926787
-2.88376e-05
0.00927896
-3.09576e-05
0.00928454
-3.4156e-05
0.00893331
-3.69537e-05
0.00895116
-3.8415e-05
0.00922812
-4.01944e-05
0.00921351
-4.01818e-05
0.00919617
-3.96689e-05
0.00916411
-3.84449e-05
0.00914391
-3.6405e-05
0.00912356
-3.39729e-05
0.00911494
-2.99927e-05
0.00910285
-2.64577e-05
0.00909614
-2.31023e-05
0.00909125
0.00914568
-7.07774e-06
0.00917368
-9.80063e-06
0.00917663
-1.2701e-05
0.00918269
-1.56318e-05
0.00918828
-1.88473e-05
0.00920409
-1.9716e-05
0.00925654
-2.16125e-05
0.00925913
-2.47457e-05
0.00925348
-2.79099e-05
0.00927103
-3.37188e-05
0.00928477
-3.38391e-05
0.00928466
-3.57033e-05
0.00893518
-3.67445e-05
0.0089522
-3.78841e-05
0.00922926
-3.89175e-05
0.00921454
-3.88444e-05
0.0091961
-3.86393e-05
0.00916391
-3.79788e-05
0.00914325
-3.7292e-05
0.00912287
-3.27723e-05
0.00911042
-2.92444e-05
0.00909932
-2.56406e-05
0.00909254
-2.22307e-05
0.00908784
0.00914533
-7.86e-06
0.00917643
-1.05875e-05
0.00917936
-1.29645e-05
0.00918506
-1.63707e-05
0.00919169
-1.89928e-05
0.00920672
-2.0249e-05
0.00925779
-2.17314e-05
0.00926062
-2.45826e-05
0.00925633
-2.99229e-05
0.00927637
-3.48592e-05
0.0092897
-3.61588e-05
0.00928596
-3.8319e-05
0.00893734
-3.97774e-05
0.00895366
-4.1051e-05
0.00923054
-4.19965e-05
0.00921549
-4.18528e-05
0.00919596
-4.14385e-05
0.00916349
-4.00264e-05
0.00914184
-3.86019e-05
0.00912145
-3.68305e-05
0.00910865
-3.41268e-05
0.00909662
-3.18355e-05
0.00909024
-2.87739e-05
0.00908478
0.00913737
-8.61904e-06
0.00917914
-1.13182e-05
0.00918206
-1.41447e-05
0.00918789
-1.64944e-05
0.00919404
-1.90115e-05
0.00920923
-2.0146e-05
0.00925893
-2.17885e-05
0.00926226
-2.68059e-05
0.00926135
-3.14131e-05
0.00928098
-3.41772e-05
0.00929247
-3.50613e-05
0.00928685
-3.68097e-05
0.00893909
-3.78339e-05
0.00895468
-3.87588e-05
0.00923146
-3.95146e-05
0.00921624
-3.93611e-05
0.0091958
-3.89579e-05
0.00916309
-3.8087e-05
0.00914097
-3.63497e-05
0.00911971
-3.47811e-05
0.00910708
-3.28285e-05
0.00909466
-3.02846e-05
0.0090877
-2.7982e-05
0.00908248
0.00912914
-9.35698e-06
0.00918178
-1.14991e-05
0.0091842
-1.42496e-05
0.00919064
-1.65331e-05
0.00919632
-1.94399e-05
0.00921214
-2.04582e-05
0.00925995
-2.4142e-05
0.00926594
-2.89996e-05
0.00926621
-3.11715e-05
0.00928315
-3.35035e-05
0.0092948
-3.4239e-05
0.00928758
-3.55697e-05
0.00894042
-3.62155e-05
0.00895533
-3.6992e-05
0.00923224
-3.75501e-05
0.0092168
-3.73314e-05
0.00919558
-3.69107e-05
0.00916267
-3.60444e-05
0.0091401
-3.49234e-05
0.00911859
-3.29967e-05
0.00910515
-3.0738e-05
0.00909241
-2.93547e-05
0.00908632
-2.67522e-05
0.00907988
0.00912106
-9.56943e-06
0.00918382
-1.26415e-05
0.00918727
-1.47966e-05
0.0091928
-1.75091e-05
0.00919903
-1.9301e-05
0.00921393
-2.32297e-05
0.00926387
-2.72177e-05
0.00926993
-2.89888e-05
0.00926798
-3.09812e-05
0.00928514
-3.306e-05
0.00929688
-3.34982e-05
0.00928802
-3.45843e-05
0.0089415
-3.48805e-05
0.00895563
-3.54858e-05
0.00923284
-3.59789e-05
0.00921729
-3.56384e-05
0.00919524
-3.52356e-05
0.00916226
-3.43389e-05
0.00913921
-3.32985e-05
0.00911755
-3.1458e-05
0.00910331
-2.98275e-05
0.00909077
-2.7562e-05
0.00908405
-2.55876e-05
0.0090779
0.00911309
-1.07562e-05
0.00918624
-1.27352e-05
0.00918925
-1.47865e-05
0.00919485
-1.74255e-05
0.00920167
-2.26356e-05
0.00921914
-2.8987e-05
0.00927023
-2.73172e-05
0.00926826
-2.8956e-05
0.00926962
-3.07632e-05
0.00928695
-3.27072e-05
0.00929882
-3.30468e-05
0.00928836
-3.3843e-05
0.0089423
-3.39499e-05
0.00895573
-3.44056e-05
0.0092333
-3.46518e-05
0.00921754
-3.43349e-05
0.00919493
-3.38927e-05
0.00916182
-3.29367e-05
0.00913825
-3.14468e-05
0.00911606
-3.0641e-05
0.0091025
-2.86033e-05
0.00908874
-2.68917e-05
0.00908234
-2.49977e-05
0.00907601
0.00910466
-1.08963e-05
0.00918801
-1.32838e-05
0.00919164
-1.57213e-05
0.00919729
-1.72897e-05
0.00920324
-3.24646e-05
0.00923432
-2.86835e-05
0.00926644
-2.74674e-05
0.00926704
-2.90235e-05
0.00927117
-3.07358e-05
0.00928866
-3.251e-05
0.0093006
-3.275e-05
0.0092886
-3.33426e-05
0.00894289
-3.32105e-05
0.0089556
-3.35688e-05
0.00923366
-3.37379e-05
0.00921771
-3.32769e-05
0.00919447
-3.27915e-05
0.00916134
-3.18027e-05
0.00913726
-3.08375e-05
0.00911509
-2.90453e-05
0.00910071
-2.80576e-05
0.00908775
-2.58607e-05
0.00908014
-2.40056e-05
0.00907416
0.0090962
-1.19773e-05
0.00919011
-1.32703e-05
0.00919293
-1.55825e-05
0.0091996
-2.61651e-05
0.00921382
-3.31814e-05
0.00924133
-2.93732e-05
0.00926264
-2.75608e-05
0.00926523
-2.90935e-05
0.0092727
-3.07458e-05
0.00929031
-3.24905e-05
0.00930234
-3.26392e-05
0.00928875
-3.30926e-05
0.00894335
-3.28611e-05
0.00895537
-3.30039e-05
0.0092338
-3.30535e-05
0.00921776
-3.2531e-05
0.00919394
-3.20117e-05
0.00916082
-3.09089e-05
0.00913616
-2.99721e-05
0.00911416
-2.86442e-05
0.00909938
-2.67089e-05
0.00908581
-2.49764e-05
0.00907841
-2.26377e-05
0.00907182
0.00908817
-1.19634e-05
0.00919152
-1.41899e-05
0.00919516
-1.58614e-05
0.00920127
-2.89528e-05
0.00922691
-3.23256e-05
0.00924471
-2.90416e-05
0.00925935
-2.76878e-05
0.00926388
-2.92169e-05
0.00927423
-3.08378e-05
0.00929193
-3.26559e-05
0.00930416
-3.2904e-05
0.009289
-3.31095e-05
0.00894355
-3.27632e-05
0.00895502
-3.26858e-05
0.00923372
-3.26272e-05
0.0092177
-3.19559e-05
0.00919327
-3.14296e-05
0.00916029
-3.02255e-05
0.00913496
-2.93363e-05
0.00911327
-2.79363e-05
0.00909798
-2.65479e-05
0.00908443
-2.4247e-05
0.00907611
-2.24022e-05
0.00906997
0.00907951
-1.22887e-05
0.00919269
-1.40109e-05
0.00919688
-1.5497e-05
0.00920275
-2.56555e-05
0.00923707
-3.08522e-05
0.0092499
-2.97189e-05
0.00925822
-2.76909e-05
0.00926185
-2.94475e-05
0.00927599
-3.10157e-05
0.0092935
-3.31055e-05
0.00930625
-3.35739e-05
0.00928946
-3.34617e-05
0.00894344
-3.30153e-05
0.00895458
-3.2632e-05
0.00923334
-3.2498e-05
0.00921757
-3.15435e-05
0.00919232
-3.11628e-05
0.00915991
-3.02186e-05
0.00913401
-2.89644e-05
0.00911201
-2.74117e-05
0.00909643
-2.56415e-05
0.00908266
-2.41895e-05
0.00907466
-2.18924e-05
0.00906767
0.00907067
-1.29922e-05
-1.47381e-05
-1.55427e-05
-2.07814e-05
-2.37749e-05
-2.98678e-05
-2.77139e-05
-2.96247e-05
-3.10708e-05
-3.36295e-05
-3.46008e-05
-3.40671e-05
-3.35639e-05
-3.26862e-05
-3.241e-05
-3.12743e-05
-3.10034e-05
-2.93647e-05
-2.87561e-05
-2.70381e-05
-2.58874e-05
-2.32971e-05
-2.20409e-05
9.6504e-05
-0.000106533
-0.00121765
0.00128557
0.000132971
-0.00127167
-7.22463e-05
-7.46277e-05
-0.00115162
-0.000163399
0.00116743
2.88427e-05
-3.01969e-05
-0.00126738
0.00134283
3.73182e-05
-0.0013406
-1.84137e-05
-2.11351e-05
0.00129773
-6.6716e-05
-6.8846e-05
-3.51794e-05
4.0096e-05
-0.00125344
0.00131316
-6.08551e-05
-0.0013206
3.51674e-05
3.31257e-05
0.00134363
-1.10024e-05
-1.36937e-05
-6.74983e-05
7.43561e-05
-0.0012059
0.00123797
-0.000109542
-0.00124807
0.000119645
0.00130508
3.99931e-05
3.81589e-05
-6.43393e-05
6.97871e-05
-0.00115282
0.00116041
-0.00010756
-0.00116952
0.000116663
0.000121861
0.00122736
3.58573e-05
-5.0467e-05
-0.00113284
-8.88795e-06
0.0003276
-2.71113e-06
-0.000167774
-0.000148227
-2.81259e-05
-0.000125548
-0.000170744
0.00111558
-6.01698e-05
-0.00111508
5.96681e-05
0.000111981
0.00115286
9.79575e-05
-0.000108346
-0.00111392
-0.00104902
-2.51311e-06
0.00103654
0.000136965
-0.0011381
-0.000150487
-0.0011124
-5.54983e-05
0.00111825
9.41357e-05
-0.000112713
-0.00237166
0.00122262
-0.00121374
8.76244e-05
-0.00113616
9.36538e-05
0.00114679
0.000309917
0.000126009
-0.000611835
0.000311167
-6.68628e-05
-6.83952e-05
0.000114497
-0.000538355
-0.000124249
0.000548107
0.000120568
-0.00126648
0.00247228
0.000130141
-0.00244752
-0.000154908
-0.00236663
-0.000176235
0.00239324
4.10513e-05
-4.66289e-05
-0.0024275
0.00126098
-0.0012596
2.74688e-05
8.09659e-05
0.00123086
0.00125688
6.50563e-05
-7.06068e-05
-0.00125133
0.000644109
-2.2323e-05
-0.000642494
4.19269e-05
-2.12187e-05
-0.000628887
-6.65877e-05
6.37373e-05
0.000631737
0.000329636
9.87923e-06
-0.000338121
-1.39408e-06
-0.000331536
5.18967e-05
-5.70134e-05
0.000336652
3.49155e-05
-0.0013298
0.00253127
4.89562e-05
-0.00252387
-5.63555e-05
-0.0001354
0.00249413
-2.05487e-05
2.76578e-05
-0.00242996
0.00124441
-0.00124874
-3.08467e-05
1.88336e-05
0.00126176
0.00126499
-6.50894e-06
8.68982e-06
-0.00126717
0.000657272
8.89982e-06
-0.000658784
-1.06027e-05
3.2151e-06
-0.00065734
-6.93824e-06
1.17247e-05
0.000656998
-4.44505e-06
0.000308222
1.36823e-07
-0.000307728
-6.30604e-07
-0.000308769
3.73745e-07
0.000309197
-8.02565e-07
-5.39606e-05
-0.00131414
0.00251328
-4.45315e-05
-0.00252424
5.54883e-05
-2.68731e-05
0.00253381
-6.06295e-05
7.34748e-05
-0.00239083
0.00119915
-0.00120552
-6.11245e-05
-3.65292e-05
0.00123979
0.00122556
-5.56863e-05
6.19236e-05
-0.00123179
4.31117e-05
0.000618861
-0.000620951
-4.10214e-05
-0.000635714
1.68931e-05
-3.12502e-05
0.000632633
1.7438e-05
0.000340792
-4.36357e-05
-0.000349259
5.21022e-05
-0.000322421
-9.60242e-06
2.01448e-06
0.000330009
-9.97432e-05
-0.00124752
0.00244416
-0.000104792
-0.00246409
0.000124721
7.85634e-05
0.0024994
0.000590304
-7.95381e-05
-0.000593116
4.15085e-05
4.08415e-05
-0.000308949
-3.95218e-05
4.04052e-05
0.000308065
-9.92077e-05
-0.00117487
0.00236606
-0.000118372
-0.00238447
0.000136786
0.000133919
0.00242423
0.000541916
-5.99784e-05
-0.000544374
6.2437e-05
-0.000564754
-7.28532e-05
7.59192e-05
0.000561688
-1.79969e-05
9.96638e-06
-0.00225058
-1.98827e-05
0.000886817
-0.000861348
-5.58702e-06
8.08239e-08
0.000336886
-4.40259e-05
-0.00090059
-7.73164e-05
0.00227516
-0.00228398
8.61393e-05
3.80814e-05
0.00111929
-6.78594e-05
-0.000627169
6.61417e-05
-8.98671e-05
-0.000596703
8.42912e-05
0.000602279
-0.00118122
0.00011116
0.00119412
-0.000124053
-0.000597725
0.000604128
-4.84897e-05
-4.77805e-05
0.000629916
-0.000630899
-3.36968e-05
-3.31795e-05
8.5234e-05
-0.000535731
0.000542863
-9.23656e-05
9.18165e-05
-9.75883e-05
-0.000591953
4.61806e-05
-0.000333632
-4.40842e-05
6.27524e-05
-6.45823e-05
0.000311747
-0.00122318
0.000153877
-0.000171033
0.00124034
-0.000617468
-6.19646e-05
0.000625241
0.000116944
0.000333019
4.62373e-05
-0.000333075
-5.72514e-06
-0.000657821
1.47694e-05
-8.56339e-06
-2.25147e-05
4.04583e-05
0.000649583
-2.3418e-05
5.60754e-05
0.00126147
-6.06718e-05
-0.00032047
0.000323222
-2.52663e-05
0.000334741
-6.19386e-06
-0.000334272
0.000317115
0.000317351
-3.43003e-05
-3.68367e-05
-2.27808e-05
-0.000320012
-1.34182e-06
-0.000310535
3.10845e-06
1.62571e-05
-5.88044e-06
0.000319259
-0.00132516
7.66187e-05
0.00133173
-4.03144e-05
-4.28738e-05
-0.00033349
0.00032697
2.27771e-05
0.000338733
1.42812e-06
-0.000341503
0.000336807
4.81087e-05
1.74921e-05
-0.000341103
8.92448e-05
-0.00131749
-4.71756e-05
-4.97379e-05
1.71287e-05
-0.000638655
-2.93457e-05
1.51587e-05
8.02146e-06
-1.51818e-05
0.000651314
1.31186e-05
-1.43002e-05
0.00126166
1.76296e-05
-0.00033929
0.000335238
1.20731e-05
0.000320423
1.86832e-05
-0.000321977
0.000333577
-5.77388e-06
8.26208e-06
-0.000338652
-1.61066e-05
-0.000313347
7.03267e-06
-6.27348e-07
0.000308391
4.57957e-07
-0.00133748
-2.79955e-05
0.00133286
1.74529e-05
1.51655e-05
-0.000338457
0.000340177
-2.34682e-06
0.000327598
-2.17042e-05
-0.000322001
0.000337337
1.77021e-06
-1.81724e-06
-0.000336503
-1.56566e-05
-0.00134086
1.07029e-05
8.33553e-06
-0.000617707
-4.40164e-05
0.000616674
2.16908e-05
2.33582e-05
0.00059949
-5.03059e-05
5.22342e-05
-0.000601418
0.000317933
1.93827e-05
-0.00061901
2.2246e-05
2.21696e-05
-4.09545e-05
-0.000310898
4.29038e-05
-4.75573e-05
6.00936e-05
0.000328256
-0.00127767
-9.74105e-05
0.00126784
5.39641e-05
5.32693e-05
-0.000335954
0.000328729
-4.0332e-05
0.00061759
4.04536e-05
-7.61098e-05
-0.000622888
0.000334256
-1.62602e-05
-3.85652e-05
-0.000341024
-9.20558e-05
-0.00128721
5.14036e-05
5.01971e-05
-0.000578012
-5.03525e-05
0.000575589
5.27762e-05
0.00056303
-4.4166e-05
4.58041e-05
-0.000564668
-5.11113e-05
0.000598179
5.24214e-05
-5.11234e-05
5.39601e-05
-0.000580849
-7.35418e-05