/*--------------------------------*- C++ -*----------------------------------*\
| =========                 |                                                 |
| \\      /  F ield         | OpenFOAM: The Open Source CFD Toolbox           |
|  \\    /   O peration     | Version:  5.x                                   |
|   \\  /    A nd           | Web:      www.OpenFOAM.org                      |
|    \\/     M anipulation  |                                                 |
\*---------------------------------------------------------------------------*/
FoamFile
{
    version     2.0;
    format      ascii;
    class       volScalarField;
    location    "500";
    object      pSat;
}
// * * * * * * * * * * * * * * * * * * * * * * * * * * * * * * * * * * * * * //

dimensions      [0 2 -2 0 0 0 0];

internalField   nonuniform List<scalar> 
6584
(
697.948
697.948
697.948
697.948
697.948
697.948
697.948
697.948
697.948
697.948
697.948
697.948
697.948
697.948
697.948
697.948
697.948
697.948
697.948
697.948
697.948
697.948
697.948
697.948
697.948
697.948
697.948
697.948
697.948
697.948
697.948
697.948
697.948
697.948
697.948
697.948
697.948
697.948
697.948
697.948
697.948
697.948
697.948
697.948
697.948
697.948
697.948
697.948
697.948
697.948
697.948
697.948
697.948
697.948
697.948
697.948
697.948
697.948
697.948
697.948
697.948
697.948
697.948
697.948
697.948
697.948
697.948
697.948
697.948
697.948
697.948
697.948
697.948
697.948
697.948
697.948
697.948
697.948
697.948
697.948
697.948
697.948
697.948
697.948
697.948
697.948
697.948
697.948
697.948
697.948
697.948
697.948
697.948
697.948
697.948
697.948
697.948
697.948
697.948
697.948
697.948
697.948
697.948
697.948
697.948
697.948
697.948
697.948
697.948
697.948
697.948
697.948
697.948
697.948
697.948
697.948
697.948
697.948
697.948
697.948
697.948
697.948
697.948
697.948
697.948
697.948
697.948
697.948
697.948
697.948
697.948
697.948
697.948
697.948
697.948
697.948
697.948
697.948
697.948
697.948
697.948
697.948
697.948
697.948
697.948
697.948
697.948
697.948
697.948
697.948
697.948
697.948
697.948
697.948
697.948
697.948
697.948
697.948
697.948
697.948
697.948
697.948
697.948
697.948
697.948
697.948
697.948
697.948
697.948
697.948
697.948
697.948
697.948
697.948
697.948
697.948
697.948
697.948
697.948
697.948
697.948
697.948
697.948
697.948
697.948
697.948
697.948
697.948
697.948
697.948
697.948
697.948
697.948
697.948
697.948
697.948
697.948
697.948
697.948
697.948
697.948
697.948
697.948
697.948
697.948
697.948
697.948
697.948
697.948
697.948
697.948
697.948
697.948
697.948
697.948
697.948
697.948
697.948
697.948
697.948
697.948
697.948
697.948
697.948
697.948
697.948
697.948
697.948
697.948
697.948
697.948
697.948
697.948
697.948
697.948
697.948
697.948
697.948
697.948
697.948
697.948
697.948
697.948
697.948
697.948
697.948
697.948
697.948
697.948
697.948
697.948
697.948
697.948
697.948
697.948
697.948
697.948
697.948
697.948
697.948
697.948
697.948
697.948
697.948
697.948
697.948
697.948
697.948
697.948
697.948
697.948
697.948
697.948
697.948
697.948
697.948
697.948
697.948
697.948
697.948
697.948
697.948
697.948
697.948
697.948
697.948
697.948
697.948
697.948
697.948
697.948
697.948
697.948
697.948
697.948
697.948
697.948
697.948
697.948
697.948
697.948
697.948
697.948
697.948
697.948
697.948
697.948
697.948
697.948
697.948
697.948
697.948
697.948
697.948
697.948
697.948
697.948
697.948
597.434
697.948
697.948
697.948
697.948
697.948
697.948
697.948
697.948
697.948
697.948
697.948
697.948
697.948
697.948
697.948
697.948
697.948
697.948
697.948
697.948
697.948
697.948
697.948
669.123
697.948
697.948
697.948
697.948
697.948
697.948
697.948
697.948
697.948
697.948
697.948
697.948
697.948
697.948
697.948
697.948
697.948
697.948
697.948
697.948
697.948
697.948
697.946
671.408
697.948
697.948
697.948
697.948
697.948
697.948
697.948
697.948
697.948
697.948
697.948
697.948
697.948
697.948
697.948
697.948
697.948
697.948
697.948
697.948
697.948
697.948
697.546
685.196
697.948
697.948
697.948
697.948
697.948
697.948
697.948
697.948
697.948
697.948
697.948
697.948
697.948
697.948
697.948
697.948
697.948
697.948
697.948
697.948
697.948
697.948
697.304
685.509
697.948
697.948
697.948
697.948
697.948
697.948
697.948
697.948
697.948
697.948
697.948
697.948
697.948
697.948
697.948
697.948
697.948
697.948
697.948
697.948
697.948
697.88
683.775
691.959
697.948
697.948
697.948
697.948
697.948
697.948
697.948
697.948
697.948
697.948
697.948
697.948
697.948
697.948
697.948
697.948
697.948
697.948
697.948
697.948
697.948
697.82
683.819
692.001
697.947
697.948
697.948
697.948
697.948
697.948
697.948
697.948
697.948
697.948
697.948
697.948
697.948
697.948
697.948
697.948
697.948
697.948
697.948
697.948
697.947
697.763
683.858
692.037
697.946
697.948
697.948
697.948
697.948
697.948
697.948
697.948
697.948
697.948
697.948
697.948
697.948
697.948
697.948
697.948
697.948
697.948
697.948
697.948
697.946
697.708
683.893
692.067
697.945
697.948
697.948
697.948
697.948
697.948
697.948
697.948
697.948
697.948
697.948
697.948
697.948
697.948
697.948
697.948
697.948
697.948
697.948
697.948
697.945
697.655
683.925
692.094
697.945
697.948
697.948
697.948
697.948
697.948
697.948
697.948
697.948
697.948
697.948
697.948
697.948
697.948
697.948
697.948
697.948
697.948
697.948
697.948
697.944
697.605
683.954
692.118
697.944
697.948
697.948
697.948
697.948
697.948
697.948
697.948
697.948
697.948
697.948
697.948
697.948
697.948
697.948
697.948
697.948
697.948
697.948
697.948
697.943
697.558
683.98
692.14
697.943
697.948
697.948
697.948
697.948
697.948
697.948
697.948
697.948
697.948
697.948
697.948
697.948
697.948
697.948
697.948
697.948
697.948
697.948
697.948
697.941
697.507
684.007
692.161
697.943
697.948
697.948
697.948
697.948
697.948
697.948
697.948
697.948
697.948
697.948
697.948
697.948
697.948
697.948
697.948
697.948
697.948
697.948
697.948
697.939
697.452
684.037
692.184
697.942
697.948
697.948
697.948
697.948
697.948
697.948
697.948
697.948
697.948
697.948
697.948
697.948
697.948
697.948
697.948
697.948
697.948
697.948
697.948
697.937
697.4
684.065
692.206
697.941
697.948
697.948
697.948
697.948
697.948
697.948
697.948
697.948
697.948
697.948
697.948
697.948
697.948
697.948
697.948
697.948
697.948
697.948
697.948
697.935
697.349
684.092
692.227
697.94
697.948
697.948
697.948
697.948
697.948
697.948
697.948
697.948
697.948
697.948
697.948
697.948
697.948
697.948
697.948
697.948
697.948
697.948
697.948
697.933
697.299
684.119
692.247
697.94
697.948
697.948
697.948
697.948
697.948
697.948
697.948
697.948
697.948
697.948
697.948
697.948
697.948
697.948
697.948
697.948
697.948
697.948
697.948
697.93
697.251
684.144
692.266
697.939
697.948
697.948
697.948
697.948
697.948
697.948
697.948
697.948
697.948
697.948
697.948
697.948
697.948
697.948
697.948
697.948
697.948
697.948
697.948
697.928
697.203
684.169
692.285
697.938
697.948
697.948
697.948
697.948
697.948
697.948
697.948
697.948
697.948
697.948
697.948
697.948
697.948
697.948
697.948
697.948
697.948
697.948
697.948
697.925
697.156
684.194
692.303
697.938
697.948
697.948
697.948
697.948
697.948
697.948
697.948
697.948
697.948
697.948
697.948
697.948
697.948
697.948
697.948
697.948
697.948
697.948
697.948
697.922
697.109
684.218
692.322
697.937
697.948
697.948
697.948
697.948
697.948
697.948
697.948
697.948
697.948
697.948
697.948
697.948
697.948
697.948
697.948
697.948
697.948
697.948
697.948
697.919
697.061
684.243
692.34
697.936
697.948
697.948
697.948
697.948
697.948
697.948
697.948
697.948
697.948
697.948
697.948
697.948
697.948
697.948
697.948
697.948
697.948
697.948
697.948
697.916
697.012
684.269
692.358
697.936
697.948
697.948
697.948
697.948
697.948
697.948
697.948
697.948
697.948
697.948
697.948
697.948
697.948
697.948
697.948
697.948
697.948
697.948
697.948
697.948
697.948
697.948
697.948
697.948
697.948
697.948
590.768
593.35
697.948
697.948
697.948
697.948
697.948
697.948
697.948
697.948
697.948
697.948
697.948
697.948
697.948
697.948
697.948
697.948
697.948
697.948
697.799
697.921
697.473
697.884
697.948
697.948
697.948
697.948
697.948
697.948
697.948
697.364
697.424
692.267
695.141
697.948
697.948
697.948
697.948
697.948
697.948
697.948
697.577
697.468
696.345
693.735
697.948
697.948
697.948
697.648
697.569
697.948
697.948
697.948
697.875
697.819
697.948
617.095
591.086
647.648
697.948
697.948
697.93
697.948
697.948
697.947
697.871
697.948
697.948
697.896
697.948
697.948
697.948
697.93
697.454
697.762
697.948
697.304
695.934
697.834
697.376
695.342
697.454
697.948
697.697
697.181
697.923
697.709
697.948
697.452
697.371
697.948
695.696
696.372
695.879
695.663
693.632
692.122
697.948
696.974
697.189
697.173
696.986
697.948
696.167
696.755
696.421
696.07
697.537
696.495
697.948
697.604
697.827
697.203
697.58
697.948
697.266
697.492
696.825
697.223
697.807
697.676
697.836
697.886
697.948
697.663
697.481
697.518
697.65
697.9
697.881
697.948
697.948
697.948
697.935
697.948
697.948
697.948
697.948
697.948
697.787
697.71
690.354
686.4
697.948
697.948
697.948
697.948
697.939
697.948
697.948
697.948
697.697
697.593
697.948
582.658
599.933
659.295
668.903
600.95
622.592
685.643
678.604
697.948
697.891
697.916
670.094
676.276
697.919
697.931
697.948
697.948
697.948
697.948
697.948
697.948
697.948
697.928
697.948
697.939
697.948
697.942
697.948
697.622
697.726
694.023
694.151
695.438
695.14
697.547
678.588
697.724
693.433
690.802
691.173
693.574
697.848
696.064
697.939
692.225
697.311
691.072
697.931
697.45
697.938
697.948
697.91
696.586
697.937
697.94
696.506
696.421
697.713
697.68
696.221
696.332
697.217
697.942
697.945
697.94
697.942
697.213
697.846
697.947
697.948
697.945
697.947
697.811
696.023
696.062
695.622
695.603
690.143
690.437
696.861
697.94
697.939
697.941
697.94
696.859
697.113
697.939
697.94
697.939
697.939
697.104
584.192
696.441
603.125
583.898
626.474
604.399
696.524
695.66
585.867
695.761
697.216
697.145
697.38
697.942
697.941
697.943
697.943
697.419
645.251
657.307
697.016
646.52
628.12
662.492
648.658
697.073
624.884
643.287
697.762
686.54
690.714
679.398
685.709
697.744
676.897
676.265
678.4
605.514
676.985
675.421
617.444
693.511
693.682
697.946
697.948
697.948
697.948
697.948
697.895
697.886
640.548
697.671
697.83
697.947
697.843
697.796
697.948
597.449
600.251
579.316
676.037
675.923
603.853
610.493
692.714
693.475
544.233
697.948
697.948
697.948
697.948
697.948
697.948
697.869
697.947
697.946
697.488
697.302
697.815
697.362
697.94
697.94
697.941
697.94
697.369
693.141
694.765
695.963
693.99
666.031
660.599
697.856
693.83
695.516
696.915
696.938
613.649
697.948
697.945
697.948
697.915
697.576
697.373
697.946
697.948
697.948
697.948
697.948
697.945
697.57
697.943
697.941
697.946
697.944
697.614
696.946
681.014
690.592
675.224
676.505
696.122
691.569
692.599
697.525
695.697
696.721
697.42
697.903
697.906
697.87
697.876
697.196
697.94
697.94
697.4
695.857
672.79
667.755
695.74
673.366
674.874
666.839
667.598
695.597
692.231
691.097
696.903
697.871
697.867
697.861
697.888
697.062
697.151
697.865
697.868
697.866
697.864
697.045
697.421
690.585
692.129
688.498
687.658
696.815
697.781
697.945
697.944
697.946
697.945
697.794
697.377
672.476
663.988
681.474
678.813
697.409
630.128
633.519
697.584
684.48
682.306
625.956
629.125
672.83
667.481
697.946
697.947
697.948
660.223
688.887
662.716
665.781
664.453
688.378
697.948
697.942
697.948
697.927
697.947
584.914
590.47
600.099
598.168
663.837
609.828
607.521
616.317
610.569
665.08
606.567
610.714
683.016
681.83
673.152
625.797
619.457
611.358
615.065
697.906
697.945
697.948
697.932
697.944
697.891
697.497
697.803
693.28
694.632
695.867
694.152
680.204
692.903
691.779
694.091
693.258
679.89
689.223
688.166
691.428
689.818
692.501
674.286
677.767
668.122
672.592
692.113
657.72
659.197
694.763
697.78
697.618
697.919
697.825
695.411
696.485
696.074
697.485
696.655
697.856
697.945
697.93
697.796
697.676
697.825
697.617
697.921
697.672
697.879
697.926
697.713
697.857
697.945
697.906
697.839
678.222
679.657
696.812
664.588
658.648
682.12
665.778
650.359
645.118
656.867
652.731
696.195
676.972
677.889
690.288
688.268
695.85
692
686.072
684.154
687.921
686.58
697.567
692.836
693.508
695.818
696.661
697.888
697.899
697.306
697.201
697.878
697.886
674.263
673.676
695.905
639.918
640.189
617.551
637.127
638.3
645.298
639.734
638.411
671.162
672.873
695.703
636.838
631.535
643.935
638.452
621.511
616.395
629.458
624.04
695.6
668.464
670.474
691.272
690.846
697.877
697.872
696.89
696.982
697.886
697.879
697.862
697.864
697.143
697.056
697.863
697.863
586.362
592.41
675.618
678.977
671.201
674.421
585.877
617.672
683.447
678.032
679.896
682.603
613.064
656.628
658.561
649.379
655.902
591.694
666.864
670.302
659.62
665.06
591.687
689.235
690.205
697.377
685.253
687.144
687.674
685.158
687.12
696.895
687.084
688.425
650.204
596.274
596.526
605.729
596.996
651.936
600.24
631.795
596.618
634.849
682.678
695.04
694.348
695.869
695.273
683.225
674.169
675.169
635.048
638.763
617.512
624.604
676.651
674.089
697.948
697.948
697.948
697.948
697.938
697.939
697.948
697.948
697.948
697.948
697.948
697.948
697.948
697.948
697.948
697.948
697.948
697.886
697.479
696.744
696.648
692.492
695.011
697.941
697.942
697.513
690.511
690.015
693.81
692.475
693.277
697.647
697.945
697.948
697.948
697.135
697.387
697.897
697.939
697.917
697.946
697.816
695.729
697.018
695.46
696.547
696.421
697.389
697.585
697.587
697.186
697.914
697.919
697.73
697.411
697.94
697.941
676.742
674.665
696.227
693.447
691.153
690.982
691.977
696.962
697.577
697.575
697.166
697.58
697.582
697.574
697.572
697.001
695.467
679.953
677.793
697.241
697.868
697.865
697.861
697.946
697.946
603.164
603.264
686.783
685.127
697.603
603.151
603.129
695.681
696.067
697.894
697.938
697.93
581.576
583.973
585.155
598.494
602.054
581.513
582.705
598.761
595.812
619.552
673.462
672.466
679.686
631.28
627.016
674
697.948
697.948
697.948
697.906
697.926
697.94
697.944
697.868
697.884
697.948
697.948
697.948
697.215
697.168
697.55
697.771
697.59
697.498
693.663
694.28
691.746
692.119
695.636
694.769
690.164
690.995
681.448
681.635
685.864
685.269
678.604
682.041
682.486
697.669
693.595
694.47
695.592
693.466
696.383
696.039
697.705
697.575
697.007
686.305
684.597
695.146
692.559
688.894
697.948
697.947
697.898
697.88
697.749
697.815
696.992
697.766
697.83
693.734
694.958
697.797
682.417
680.374
696.111
696.44
697.936
697.939
697.886
697.739
697.924
697.93
696.185
674.432
674.225
690.139
690.572
697.572
697.573
697.122
697.084
697.571
697.571
585.693
601.527
631.475
633.399
611.438
612.954
582.136
681.504
680.36
695.563
592.002
589.535
604.835
605.038
587.943
609.848
610.576
587.652
588.146
697.877
697.873
697.263
697.493
697.885
697.881
637.539
681.657
682.807
679.248
680.45
634.419
688.464
695.509
696.033
695.938
695.735
689.107
680.745
687.44
686.631
675.053
673.821
677.042
608.765
610.579
611.51
603.544
678.875
639.25
633.322
644.454
640.713
674.516
658.978
659.345
678.716
681.7
694.299
697.946
697.946
697.941
597.036
597.735
635.064
634.916
576.006
607.372
602.302
601.735
601.919
602.227
609.327
545.672
675.879
676.624
697.948
697.948
697.948
696.927
696.837
697.483
697.122
697.442
697.657
697.349
697.404
692.852
694.886
688.214
688.772
688.768
688.175
693.887
689.654
689.437
664.792
656.782
656.719
657.738
657.573
663.245
697.526
697.76
697.77
697.727
697.752
697.471
695.577
697.206
696.3
695.996
697.191
697.59
697.593
691.111
691.235
693.061
691.463
697.581
697.579
696.929
697.577
697.578
697.159
697.026
697.572
697.571
688.579
690.455
689.651
691.133
690.877
688.422
603.481
604.051
603.555
603.266
627.074
612.997
612.184
659.313
659.183
671.188
661.224
663.368
657.363
659.03
669.293
697.942
697.94
697.944
697.937
697.946
697.948
697.948
697.944
697.946
697.943
662.132
675.973
675.074
678.479
677.178
663.216
667.754
671.789
670.012
674.352
673.427
666.389
697.945
697.947
697.946
697.892
697.848
697.938
697.93
581.72
595.785
585.901
585.46
599.584
598.909
623.105
624.648
608.522
581.558
580.747
603.73
588.277
588.114
587.543
615.415
590.505
585.055
674.574
676.238
684.058
670.47
670.905
669.265
669.603
680.678
672.097
672.836
612.218
601.252
601.568
601.625
601.157
613.344
697.931
697.935
697.916
697.849
697.894
697.924
696.79
697.514
697.101
697.014
697.189
697.262
697.02
697.111
693.424
694.416
689.38
689.565
688.973
689.185
695.766
692.32
692.46
689.397
689.667
694.414
689.565
683.023
681.83
679.207
684.77
684.13
688.786
682.989
682.834
684.776
683.754
688.475
691.011
685.776
686.402
683.493
684.683
690.458
682.618
669.595
680.557
679.634
656.775
657.575
694.478
696.667
696.527
694.12
695.962
697.216
696.888
689.059
687.638
693.599
693.924
696.224
691.889
690.522
697.383
697.554
697.84
697.666
697.158
696.435
697.118
697.792
697.873
697.89
697.789
697.824
697.645
697.426
697.623
697.893
697.829
697.793
697.898
697.844
697.907
697.747
697.759
697.671
697.783
663.085
660.714
677.401
656.29
658.423
651.806
666.879
648.32
646.58
655.352
654.103
689.256
679.823
682.034
675.522
677.573
688.673
695.418
692.003
693.063
683.369
689.525
694.36
678.455
674.697
685.569
663.59
665.306
660.811
662.164
685.013
687.574
672.24
673.749
667.31
669.626
687.092
696
696.575
640.805
619.868
622.754
613.994
616.78
640.624
622.74
624.128
623.892
630.367
639.31
599.154
601.773
604.09
599.489
641.624
639.289
609.177
611.466
604.723
607.124
638.852
635.541
633.981
642.682
640.392
619.307
617.354
627.721
626.305
690.57
690.702
697.132
697.574
697.575
697.571
697.57
697.067
586.724
624.694
628.714
598.508
582.148
615.738
619.961
597.267
594.557
657.209
621.782
622.008
652.704
618.038
611.378
621.965
620.95
654.755
603.343
600.176
605.484
608.482
590.082
592.016
599.042
689.667
693.464
693.153
693.921
693.7
689.936
685.89
686.769
686.757
685.164
685.129
685.761
687.002
691.734
691.383
692.721
692.211
687.551
596.199
607.838
609.241
605.635
606.753
596.356
602.421
617.892
620.925
611.395
614.452
599.139
599.609
587.825
589.559
587.71
587.481
596.478
601.685
604.137
593.138
597.38
595.661
688.666
688.137
681.976
674.03
676.333
605.509
607.997
620.278
606.438
603.449
611.138
609.441
622.764
604.03
603.885
658.932
658.871
697.948
697.948
697.948
697.948
697.948
697.948
697.948
697.948
697.948
697.948
697.948
697.948
697.948
697.948
697.948
697.948
697.948
697.948
697.948
697.948
697.948
697.948
697.948
697.948
697.948
697.948
697.948
697.948
697.948
697.948
697.948
697.948
697.948
697.948
697.948
697.948
697.948
697.948
697.948
697.948
697.948
697.948
697.948
697.948
697.948
697.948
697.948
697.948
697.948
697.948
697.948
697.948
697.948
697.948
697.948
697.948
697.948
697.948
697.948
697.948
697.948
697.948
697.948
697.948
697.948
697.948
697.948
697.948
697.948
697.948
697.948
697.948
697.948
697.948
697.948
697.948
697.948
697.948
697.948
697.948
697.948
697.948
697.948
697.948
697.948
697.947
697.947
697.948
697.948
697.948
697.948
697.948
697.948
697.948
697.948
697.948
697.948
697.948
697.948
697.948
697.947
697.947
697.948
697.948
697.948
697.948
697.948
697.948
697.948
697.948
697.948
697.948
697.948
697.948
697.948
697.948
697.948
697.948
697.948
697.948
697.948
697.948
697.948
697.948
697.948
697.948
697.948
697.948
697.948
697.948
697.948
697.948
697.948
697.948
697.948
697.948
697.867
697.866
609.296
690.869
691.376
697.948
697.948
697.948
697.948
697.948
697.948
697.948
697.948
697.948
697.948
697.948
697.948
697.947
643.818
642.5
670.891
697.948
697.948
697.948
697.948
697.948
697.948
697.948
697.948
697.948
697.948
697.948
697.694
669.087
644.199
685.019
697.939
697.948
697.948
697.948
697.948
697.948
697.948
697.948
697.948
697.948
697.948
697.948
697.948
697.948
697.948
697.948
697.948
697.948
697.947
697.946
697.948
697.948
697.948
697.947
697.947
697.948
697.948
697.946
697.946
697.946
697.946
697.948
697.948
697.948
697.948
697.948
697.947
697.948
697.946
697.947
697.948
697.948
697.948
697.948
697.948
697.948
697.948
697.866
697.897
697.948
575.984
628.544
629.071
656.756
656.868
546.978
697.948
697.948
697.948
697.948
697.948
697.948
697.948
697.948
697.947
697.948
697.948
697.948
697.948
697.948
697.948
697.948
697.948
697.948
697.948
697.948
697.948
697.948
697.948
697.948
697.948
697.948
697.948
697.948
697.948
697.948
697.947
697.942
697.948
697.948
697.948
697.948
697.948
697.948
697.948
697.948
697.948
697.948
697.948
697.948
697.948
697.948
697.948
697.948
697.948
697.948
697.948
697.948
697.948
697.948
697.948
697.948
697.827
697.916
697.908
697.942
697.94
697.912
697.81
697.734
697.859
697.948
697.948
697.948
697.948
697.948
697.948
697.948
697.948
697.948
697.948
697.948
697.948
697.948
697.948
697.948
697.948
697.948
697.948
697.947
697.947
697.948
697.36
697.805
697.806
697.818
697.812
697.399
697.948
697.948
697.948
697.948
697.948
697.948
697.948
697.948
697.948
697.948
697.948
697.948
697.948
697.948
697.948
697.948
697.948
697.948
697.948
697.947
697.948
697.529
697.942
697.943
697.829
697.833
697.483
696.197
693.084
693.498
697.948
697.948
697.948
697.948
697.948
697.948
697.948
697.948
697.948
697.618
695.538
696.024
696.795
696.882
697.597
697.948
697.948
697.948
697.948
697.948
697.948
697.948
697.948
697.948
697.87
697.639
697.662
697.429
697.474
697.83
697.902
697.867
697.948
614.462
696.937
696.882
676.151
676.532
593.012
697.702
697.678
642.446
697.948
697.929
697.939
697.939
697.929
697.948
697.937
697.946
697.944
697.948
697.948
697.946
697.948
697.948
697.948
697.946
697.911
697.941
697.948
697.948
697.948
697.945
697.947
697.948
697.904
697.853
697.84
697.947
697.946
697.947
697.948
697.948
697.948
697.948
697.948
697.948
697.945
697.946
697.938
697.489
697.835
697.826
697.9
697.889
697.712
697.948
697.948
697.948
697.209
696.135
696.42
693.14
693.247
695.991
696.603
696.731
697.432
697.947
697.947
697.948
697.669
697.808
697.823
697.895
697.942
697.943
697.832
697.838
697.717
697.948
697.948
697.948
697.437
697.822
697.826
697.807
697.809
697.38
697.948
697.947
697.947
695.752
692.636
692.501
694.015
693.891
696.321
695.829
692.946
693.041
692.404
692.341
695.626
697.946
697.946
697.948
697.692
697.681
697.167
697.948
697.946
697.946
696.262
687.804
686.446
693.065
692.766
696.681
696.469
694.262
694.142
686.015
684.523
695.97
697.502
696.586
696.698
693.942
694.313
696.626
697.947
697.947
697.948
697.664
697.9
697.897
697.917
697.915
697.816
697.214
697.708
697.7
697.893
697.889
697.512
697.948
697.947
697.947
697.306
695.353
695.187
696.118
696.012
697.466
696.892
693.623
693.349
695.007
694.812
697.176
697.793
697.323
697.379
696.165
696.533
697.701
697.845
697.922
697.919
697.947
697.946
697.868
697.948
697.948
697.948
697.693
688.396
687.253
686.447
687.91
697.683
697.542
696.307
696.216
697.897
696.132
696.226
697.948
697.948
697.948
697.948
697.948
697.948
697.948
697.948
697.948
697.948
697.948
697.948
697.948
697.948
697.948
697.948
697.948
697.948
697.948
697.948
697.948
697.757
697.94
697.94
697.938
697.939
697.746
689.873
684.707
685.496
679.515
680.729
687.141
697.948
697.948
697.948
697.948
697.948
697.948
697.919
697.935
697.944
697.948
697.948
697.948
697.948
697.948
697.948
697.948
697.948
697.948
697.655
697.944
697.938
697.943
697.944
697.64
697.948
697.948
697.948
660.993
642.909
641.215
652.228
650.39
667.612
684.889
677.322
678.334
697.948
697.948
697.948
697.904
697.947
697.947
697.946
697.947
697.907
671.227
655.828
654.071
663.604
662.415
675.545
697.925
697.947
697.947
697.947
697.947
697.926
697.948
697.948
697.948
697.948
697.948
697.948
697.948
697.948
697.948
697.948
697.948
697.948
697.948
697.948
697.948
697.948
697.948
697.948
697.948
697.948
697.948
697.948
697.947
697.948
697.948
697.948
697.948
697.946
697.947
697.944
697.948
697.948
697.948
694.695
695.342
697.584
697.707
697.236
697.291
693.16
689.658
690.101
686.226
686.865
691.209
692.369
696.285
696.121
696.562
696.431
692.696
697.84
697.515
697.551
697.821
697.894
697.944
697.916
697.477
697.773
697.567
697.823
697.77
697.946
697.943
697.928
697.948
697.948
697.948
697.922
697.914
697.934
697.942
697.933
697.928
694.185
694.363
696.595
696.344
693.886
694.029
697.35
697.435
697.744
697.645
697.184
697.267
697.617
697.627
697.227
697.943
697.931
697.929
697.936
697.933
697.944
697.941
697.924
697.922
697.927
697.925
697.941
697.211
697.606
697.61
697.903
697.911
697.866
697.948
697.946
697.945
697.947
697.946
697.948
697.946
697.94
697.938
697.943
697.942
697.947
697.776
697.878
697.891
693.28
693.207
695.986
696.102
693.429
693.353
692.485
692.55
695.644
695.6
692.379
692.427
697.593
697.589
696.869
697.94
697.922
697.922
697.92
697.921
697.94
697.941
697.925
697.926
697.923
697.924
697.94
696.872
697.606
697.598
697.939
697.92
697.92
697.921
697.92
697.939
697.939
697.92
697.92
697.92
697.92
697.939
691.759
688.267
696.355
624.462
650.293
652.504
635.053
636.871
606.11
696.604
692.437
692.098
695.866
683.883
681.976
695.784
695.949
697.277
697.063
695.357
695.583
697.765
697.753
697.336
697.942
697.928
697.929
697.927
697.928
697.942
697.943
697.932
697.933
697.93
697.931
697.943
697.449
697.784
697.775
646.963
626.173
624.505
639.183
636.775
655.592
694.143
693.889
696.956
643.955
666.225
667.891
654.333
656.21
629.819
656.716
685.727
686.57
683.843
684.808
654.594
697.126
694.602
694.38
626.946
602.281
600.624
622.463
619.654
640.895
697.192
697.261
697.779
687.204
691.539
691.112
693.943
693.648
690.231
690.624
690.098
684.767
697.724
697.03
697.115
677.064
649.196
645.612
653.592
650.52
677.822
677.657
665.949
664.79
693.273
682.51
684.325
690.517
690.915
693.908
697.948
697.948
697.948
697.948
697.948
697.948
697.892
697.943
697.943
697.942
697.942
697.889
686.522
686.122
638.333
697.673
695.964
696.008
695.873
695.975
697.691
697.825
697.941
697.942
697.941
697.941
697.819
697.948
697.948
697.948
606.266
602.462
576.441
675.741
655.089
649.5
655.951
655.439
675.734
693.35
681.215
679.958
684.044
686.892
693.526
544.538
617.946
633.152
697.948
697.948
697.948
697.948
697.948
697.948
697.948
697.948
697.948
697.948
697.948
697.948
697.948
697.948
697.948
697.948
697.948
697.948
697.928
697.922
697.85
697.947
697.942
697.943
697.938
697.94
697.947
697.834
697.68
697.651
697.805
697.805
697.359
697.94
697.913
697.913
697.913
697.913
697.94
697.94
697.915
697.916
697.913
697.914
697.94
697.381
697.808
697.806
692.6
692.787
696.068
697.583
697.612
697.863
695.134
696.784
696.679
696.96
696.877
695.334
696.928
690.085
686.612
690.142
690.137
696.935
612.816
666.63
666.207
697.948
697.948
697.948
697.948
697.948
697.948
697.948
697.948
697.948
697.869
697.861
697.909
697.948
697.948
697.947
697.948
697.948
697.948
697.948
697.948
697.948
697.948
697.948
697.947
697.948
697.948
697.948
697.942
697.947
697.947
697.856
697.845
697.528
697.942
697.923
697.926
697.918
697.921
697.942
697.945
697.934
697.936
697.928
697.931
697.944
697.661
697.878
697.866
695.25
695.713
697.085
683.867
692.211
690.836
694.497
693.649
688.274
675.607
687.345
687.168
687.747
687.538
676.038
696.056
693.364
693.489
692.044
695.186
694.931
695.526
695.369
692.348
697.481
696.833
696.925
697.729
697.781
697.594
697.905
697.893
697.875
697.872
697.79
697.787
697.797
697.793
697.874
697.94
697.914
697.913
697.915
697.914
697.94
697.389
697.811
697.814
692.924
692.784
695.803
671.248
686.201
686.649
685.242
685.691
669.369
692.765
692.852
695.781
673.914
686.643
686.457
687.004
686.834
674.477
666.536
684.788
684.94
684.841
684.743
666.86
695.617
692.312
692.298
697.869
697.783
697.784
697.779
697.781
697.868
697.817
697.822
697.89
697.127
697.667
697.651
697.866
697.78
697.778
697.784
697.782
697.867
697.865
697.777
697.778
697.775
697.776
697.864
696.337
696.464
697.463
691.102
694.443
694.167
694.974
694.721
691.656
696.73
694.572
694.763
697.907
697.903
697.768
697.944
697.936
697.937
697.934
697.935
697.944
697.945
697.939
697.939
697.937
697.938
697.945
697.805
697.912
697.909
695.647
695.505
697.343
669.03
688.657
689.243
687.33
688.022
667.828
680.61
690.7
691.121
689.768
690.252
679.732
697.438
695.899
695.778
631.152
616.098
615.305
618.157
616.992
632.249
696.471
696.392
697.564
683.8
692.209
692.519
691.514
691.875
683.078
614.54
613.773
628.113
697.948
697.947
697.946
683.237
683.938
689.38
687.808
681.772
682.56
697.947
697.948
697.948
697.948
697.948
697.948
697.946
697.942
697.945
645.789
644.384
662.46
609.209
625.877
627.021
613.572
631.63
633.952
628.245
629.731
611.699
666.387
648.72
647.191
658.775
657.391
672.244
624.315
640.677
642.273
636.431
638.744
622.266
697.946
697.943
697.941
697.947
697.945
697.947
697.937
697.919
697.912
697.938
697.928
697.941
697.635
697.621
697.79
692.517
688.147
688.896
686.881
687.439
692.134
693.831
690.442
690.862
689.54
690.029
693.56
688.633
689.174
692.851
675.741
683.99
683.174
685.315
684.688
676.836
682.288
681.407
670.967
691.677
687.463
688.058
697.736
697.382
697.464
697.149
697.296
697.687
697.902
697.811
697.861
697.571
697.702
697.87
696.351
694.16
694.393
697.204
695.865
696.789
694.693
695.169
696.897
697.918
697.877
697.7
697.943
697.928
697.939
697.889
697.911
697.938
697.928
697.898
697.881
697.941
697.937
697.944
697.878
697.92
697.93
697.9
697.909
697.855
678.595
689.042
688.773
689.928
689.396
679.038
696.697
694.58
694.864
693.62
693.751
696.267
677.302
688.154
687.959
688.545
688.344
677.586
697.013
697.099
697.607
693.069
695.821
695.675
696.111
695.967
693.295
697.892
697.83
697.822
697.856
697.841
697.895
697.251
697.645
697.678
697.597
697.602
697.208
697.881
697.806
697.801
697.816
697.811
697.883
674.25
687.315
687.432
686.97
687.174
674.08
695.946
693.13
693.039
671.878
685.95
685.754
686.286
686.124
672.419
695.672
692.617
692.687
692.31
692.338
695.592
669.253
685.219
685.028
685.564
685.389
669.853
697.875
697.791
697.794
697.786
697.789
697.874
696.878
697.586
697.583
697.634
697.618
696.912
697.883
697.805
697.811
697.797
697.801
697.881
697.863
697.775
697.774
697.777
697.775
697.863
697.863
697.774
697.774
697.774
697.774
697.862
676.744
656.135
653.794
659.619
658.047
677.93
672.161
646.777
645.288
651.204
648.752
673.237
644.78
647.432
621.627
684.227
669.043
667.423
680.819
662.479