/*--------------------------------*- C++ -*----------------------------------*\
| =========                 |                                                 |
| \\      /  F ield         | OpenFOAM: The Open Source CFD Toolbox           |
|  \\    /   O peration     | Version:  5.x                                   |
|   \\  /    A nd           | Web:      www.OpenFOAM.org                      |
|    \\/     M anipulation  |                                                 |
\*---------------------------------------------------------------------------*/
FoamFile
{
    version     2.0;
    format      ascii;
    class       volVectorField;
    location    "500";
    object      U;
}
// * * * * * * * * * * * * * * * * * * * * * * * * * * * * * * * * * * * * * //

dimensions      [0 1 -1 0 0 0 0];

internalField   nonuniform List<vector> 
6584
(
(1.00007 -0.000186102 4.40738e-27)
(1.00005 -0.000409057 2.13996e-25)
(1.00006 -0.000555883 1.93429e-30)
(1.00007 -0.000757041 -3.84129e-25)
(1.00008 -0.000968188 0)
(1.00007 -0.00119857 0)
(1.00006 -0.00142233 0)
(1.00002 -0.00156011 3.93327e-25)
(0.999948 -0.00154567 3.91947e-25)
(0.999834 -0.00122591 0)
(0.999716 -0.000407524 1.38981e-25)
(0.999638 0.000845968 -2.15645e-25)
(0.999667 0.00222242 -1.0565e-26)
(0.999796 0.00327069 2.59205e-26)
(0.999943 0.00372289 7.24156e-27)
(1.0001 0.0035992 8.98638e-25)
(1.00017 0.00315287 7.97853e-25)
(1.00019 0.00259966 6.48437e-26)
(1.00017 0.00204398 5.50188e-25)
(1.00015 0.00155423 3.94296e-25)
(1.00012 0.00115558 0)
(1.00011 0.000813048 0)
(1.00008 0.000575363 5.83807e-25)
(1.0001 0.000255031 3.57217e-25)
(1.00029 -0.000390884 -2.08942e-25)
(1.00025 -0.000823685 -8.14966e-25)
(1.0003 -0.00109724 -1.09444e-24)
(1.00032 -0.00150384 0)
(1.00037 -0.0019305 -1.46163e-25)
(1.00037 -0.00240973 -1.22547e-24)
(1.00032 -0.00290008 -7.46788e-25)
(1.0001 -0.00323145 1.25832e-24)
(0.999791 -0.00326621 -7.97367e-26)
(0.999013 -0.00267078 -2.61623e-25)
(0.998102 -0.00100239 -7.98334e-29)
(0.997541 0.0016413 0)
(0.997734 0.00458358 5.40393e-25)
(0.998628 0.00678943 2.93888e-25)
(0.999774 0.007721 -2.02004e-24)
(1.00053 0.00740687 -5.35208e-25)
(1.00083 0.00639388 -1.22546e-24)
(1.00092 0.00521017 -1.59525e-24)
(1.00085 0.00405258 -4.06617e-24)
(1.00072 0.00305771 -3.33584e-24)
(1.00058 0.00226719 -2.33848e-25)
(1.00049 0.00158521 -9.75702e-26)
(1.00038 0.00114462 0)
(1.00041 0.000529052 3.12477e-25)
(1.00064 -0.0005999 -5.27911e-25)
(1.00061 -0.00121869 0)
(1.00072 -0.00159786 -2.14824e-25)
(1.0008 -0.00221101 -1.42985e-24)
(1.00092 -0.00286664 -2.17351e-24)
(1.00096 -0.00364371 0)
(1.00087 -0.00452494 0)
(1.00038 -0.00518075 -2.81496e-25)
(0.999479 -0.00585717 -1.56354e-25)
(0.998175 -0.00394662 1.06534e-25)
(0.996651 -0.00189219 -1.84301e-25)
(0.995521 0.00158245 -2.56463e-25)
(0.995747 0.00573388 0)
(0.99736 0.0089379 0)
(0.999372 0.0103565 3.02638e-26)
(1.00137 0.0118872 -2.22387e-24)
(1.00218 0.00982873 0)
(1.00236 0.00781324 -7.28309e-25)
(1.00213 0.00594445 0)
(1.00178 0.00441308 -5.38241e-25)
(1.00143 0.00324575 -1.42117e-24)
(1.00117 0.00224628 -8.41849e-25)
(1.00092 0.00164829 0)
(1.00088 0.000790886 2.42585e-25)
(1.00106 -0.000794161 -3.23677e-25)
(1.00108 -0.0015619 0)
(1.0013 -0.00202506 -2.89248e-25)
(1.00149 -0.00283365 0)
(1.00174 -0.00372356 0)
(1.00191 -0.00486054 0)
(1.00186 -0.00628884 -4.19465e-25)
(1.0012 -0.00765481 4.15309e-24)
(0.999478 -0.00935981 -3.30979e-25)
(0.996954 -0.00736535 3.22446e-25)
(0.993612 -0.00490639 -1.96658e-25)
(0.990375 0.000713254 3.64665e-26)
(0.990285 0.00866153 4.77386e-26)
(0.994108 0.0147347 0)
(0.998778 0.0164381 -3.32658e-24)
(1.00204 0.014907 0)
(1.00475 0.0134199 0)
(1.00464 0.0103603 5.11109e-24)
(1.00406 0.00759952 3.31605e-24)
(1.00328 0.00550721 -1.09952e-24)
(1.00259 0.00399915 -7.58845e-25)
(1.00207 0.00273125 0)
(1.00162 0.00202587 3.55058e-25)
(1.00145 0.00100521 2.86135e-25)
(1.00154 -0.000954511 -1.254e-25)
(1.00165 -0.00181994 -8.12763e-27)
(1.00199 -0.00233491 -3.88236e-26)
(1.00236 -0.00330883 -5.96377e-26)
(1.00284 -0.00440264 1.23086e-25)
(1.00335 -0.00592837 3.20779e-24)
(1.00356 -0.00802776 -5.05732e-24)
(1.00327 -0.0103641 4.78425e-24)
(0.999928 -0.0111844 2.12664e-25)
(0.996509 -0.0123743 1.42346e-24)
(0.989928 -0.0106991 -2.51555e-25)
(0.981077 -0.00230706 2.38229e-25)
(0.979674 0.0130738 -6.06289e-26)
(0.9893 0.0242137 4.82527e-24)
(0.999406 0.0252771 0)
(1.00503 0.0211644 3.20576e-24)
(1.00675 0.0158465 -6.9256e-25)
(1.00786 0.0119966 -4.00522e-24)
(1.00663 0.0087537 -2.27296e-24)
(1.00516 0.00614148 9.47664e-25)
(1.004 0.0044155 -5.17057e-26)
(1.0031 0.00296351 -2.86751e-26)
(1.00242 0.00222014 4.02415e-25)
(1.00204 0.0011393 -1.50096e-25)
(1.00203 -0.00106201 6.21577e-26)
(1.00227 -0.00195876 -1.6548e-25)
(1.00276 -0.00247568 -8.67778e-27)
(1.00338 -0.00354798 0)
(1.00419 -0.00473531 -6.79005e-25)
(1.00524 -0.00658553 -3.08115e-25)
(1.00602 -0.00888543 -2.05631e-24)
(1.00487 -0.0113773 -5.07776e-25)
(1.00283 -0.015123 2.16403e-24)
(0.998948 -0.0199624 8.19681e-24)
(0.986515 -0.0199539 1.74748e-24)
(0.96942 -0.0114036 2.59662e-28)
(0.96218 0.0168081 -8.47462e-26)
(0.98291 0.0376481 6.51921e-25)
(1.00397 0.0384207 -7.18206e-24)
(1.01142 0.0283018 0)
(1.01217 0.0198078 4.29662e-28)
(1.01203 0.0127873 7.26735e-25)
(1.00971 0.0091444 1.75623e-25)
(1.00731 0.00614936 1.08762e-24)
(1.00555 0.00438101 -3.9092e-25)
(1.00419 0.00287297 0)
(1.00323 0.00218104 -2.04952e-25)
(1.0026 0.00116335 -2.81746e-25)
(1.00249 -0.00110125 5.95856e-28)
(1.00289 -0.00195304 -7.85934e-26)
(1.00354 -0.00240798 9.8345e-26)
(1.00446 -0.00348155 1.36139e-26)
(1.00566 -0.00459706 1.89319e-26)
(1.00739 -0.00660682 -1.07949e-24)
(1.00907 -0.00888143 -1.51196e-24)
(1.00858 -0.0124438 -6.79857e-26)
(1.00885 -0.0184051 -3.22345e-25)
(1.00694 -0.0279981 1.2147e-24)
(0.992015 -0.0377907 0)
(0.953708 -0.0394229 1.19217e-24)
(0.910534 0.0243765 4.34251e-26)
(0.980904 0.0760456 3.19799e-24)
(1.0138 0.053308 -4.67155e-28)
(1.0231 0.0338326 0)
(1.02006 0.0214366 2.19702e-24)
(1.01694 0.0118758 4.93402e-25)
(1.01303 0.00838023 4.03035e-25)
(1.00952 0.00535319 -1.03228e-25)
(1.00708 0.00379994 -8.44148e-25)
(1.00521 0.0024111 0)
(1.00397 0.00187523 -1.8534e-25)
(1.00304 0.00105521 -1.68525e-25)
(1.00289 -0.00106454 -7.53333e-26)
(1.00344 -0.0017955 6.70819e-26)
(1.00424 -0.00212043 3.47988e-26)
(1.00544 -0.00307694 2.32624e-26)
(1.00704 -0.00391934 -4.34287e-26)
(1.00947 -0.00576517 5.18161e-25)
(1.01224 -0.00747628 1.36197e-28)
(1.01327 -0.0115411 -2.15341e-25)
(1.01713 -0.018214 2.07151e-28)
(1.02167 -0.0303097 -3.0188e-24)
(1.01696 -0.0526999 -8.17869e-26)
(0.992158 -0.106221 2.88563e-26)
(1.0247 0.132689 5.61179e-25)
(1.04382 0.0641391 -5.70761e-25)
(1.03982 0.0329675 1.21328e-24)
(1.02969 0.0190114 -2.51635e-25)
(1.02174 0.00871458 8.09453e-25)
(1.01607 0.0062129 8.28173e-25)
(1.01147 0.00366779 5.66282e-25)
(1.00836 0.0026391 -2.48148e-25)
(1.006 0.00157305 0)
(1.00451 0.00129933 0)
(1.0033 0.000806794 -2.62886e-30)
(1.00318 -0.000955621 -1.36087e-26)
(1.00387 -0.00150404 -2.04719e-27)
(1.00477 -0.00164376 -9.64036e-27)
(1.00619 -0.00237034 5.79272e-26)
(1.00808 -0.00276016 7.36697e-26)
(1.011 -0.0040879 3.70271e-25)
(1.01467 -0.00471522 1.03813e-24)
(1.0176 -0.00822867 0)
(1.02498 -0.0129384 0)
(1.037 -0.0213092 0)
(1.05114 -0.0414191 -1.07245e-25)
(1.08273 -0.0876416 1.40657e-26)
(1.1294 0.109966 0)
(1.08204 0.0468249 0)
(1.05555 0.0213924 0)
(1.03822 0.0114583 2.39048e-25)
(1.02516 0.00347832 0)
(1.01811 0.00274704 -8.78238e-25)
(1.01274 0.00121779 -5.81311e-25)
(1.00914 0.000979425 -5.28089e-26)
(1.00643 0.000420817 0)
(1.00477 0.000490682 8.11913e-27)
(1.00332 0.000428729 2.14854e-27)
(1.00334 -0.000790556 2.50897e-27)
(1.00412 -0.00112295 -3.9515e-27)
(1.00505 -0.00105459 4.47098e-27)
(1.00657 -0.00148314 2.38034e-26)
(1.00857 -0.00134212 -6.07852e-26)
(1.0116 -0.00193339 -4.6765e-27)
(1.0156 -0.00130923 -1.07981e-25)
(1.01993 -0.00327201 -6.40847e-27)
(1.02879 -0.00411557 0)
(1.04369 -0.00480993 -2.73602e-25)
(1.06743 -0.010101 1.15085e-30)
(1.11595 -0.0179234 -3.56542e-26)
(1.17395 0.0209147 -9.20999e-26)
(1.10175 0.00747309 -3.38966e-25)
(1.06231 0.00203165 -2.61245e-24)
(1.04224 0.000307504 0)
(1.02613 -0.00274595 -1.70457e-24)
(1.01857 -0.00145411 0)
(1.01302 -0.00163932 -8.92399e-27)
(1.00925 -0.000973191 0)
(1.00638 -0.000914073 5.98366e-27)
(1.00467 -0.000471913 -3.20909e-27)
(1.00306 -4.83733e-05 -4.20218e-26)
(1.00337 -0.000594753 0)
(1.00418 -0.000713482 -2.11089e-26)
(1.00508 -0.000455874 -2.2026e-26)
(1.00655 -0.000586155 -3.91269e-27)
(1.00845 2.7152e-05 1.5897e-26)
(1.0112 0.000160769 1.03606e-25)
(1.01486 0.00178381 3.85208e-25)
(1.01954 0.00170446 1.68208e-25)
(1.02724 0.00459002 0)
(1.0393 0.0107582 1.35331e-24)
(1.06021 0.0200505 4.11487e-25)
(1.09632 0.0426803 -1.66615e-26)
(1.14989 -0.0631577 -4.32242e-26)
(1.09382 -0.0318729 5.63964e-25)
(1.05757 -0.0173486 1.11921e-25)
(1.04034 -0.0109758 1.51135e-24)
(1.02439 -0.00850653 7.54786e-24)
(1.01735 -0.00557119 4.19459e-24)
(1.01224 -0.00441969 -2.83625e-24)
(1.00863 -0.00294373 -2.00846e-24)
(1.00584 -0.00226142 1.38506e-25)
(1.0042 -0.00148334 6.05618e-26)
(1.00252 -0.000579954 -1.37547e-25)
(1.00329 -0.00039657 3.14039e-27)
(1.00409 -0.000337181 1.26029e-26)
(1.00488 5.49182e-05 1.69038e-26)
(1.0062 0.000161368 2.6621e-27)
(1.00784 0.00108133 -4.72685e-34)
(1.01005 0.00173021 1.93756e-25)
(1.01291 0.00384026 6.10674e-25)
(1.01692 0.00523447 1.87026e-25)
(1.02183 0.0101786 0)
(1.0279 0.0194327 -3.86677e-25)
(1.03892 0.0358285 -9.18876e-26)
(1.05195 0.0703158 -1.71627e-26)
(1.08955 -0.104772 -1.39922e-26)
(1.06735 -0.0548536 0)
(1.04492 -0.0302763 -2.35798e-24)
(1.03376 -0.0192693 1.90609e-24)
(1.02058 -0.0127148 1.07669e-23)
(1.01481 -0.00887665 7.07782e-24)
(1.01057 -0.0067056 0)
(1.00739 -0.00467358 -1.76962e-24)
(1.00485 -0.00346347 -9.80765e-25)
(1.00338 -0.00243801 8.82249e-26)
(1.00174 -0.00111714 -1.07865e-25)
(1.00314 -0.00022035 0)
(1.00387 -3.95812e-05 4.71086e-27)
(1.00454 0.000415139 -5.70011e-27)
(1.00565 0.000663328 -1.58863e-26)
(1.00696 0.00168936 0)
(1.00856 0.00255896 -5.2475e-26)
(1.01053 0.00464444 9.98315e-26)
(1.0133 0.00670064 -2.69336e-26)
(1.01532 0.0117038 -3.7479e-26)
(1.01572 0.0199716 2.0576e-25)
(1.01634 0.0349099 4.00118e-26)
(1.00675 0.0626723 0)
(1.0291 -0.102117 -3.40631e-27)
(1.03739 -0.0583688 1.26071e-25)
(1.03025 -0.0346373 1.12845e-24)
(1.0252 -0.0232356 1.34977e-25)
(1.01582 -0.0149758 4.70593e-24)
(1.01159 -0.0109901 4.97328e-24)
(1.00834 -0.00826818 0)
(1.00573 -0.00599039 -2.63269e-26)
(1.00356 -0.00440899 4.0702e-25)
(1.00231 -0.00325627 2.23114e-25)
(1.00079 -0.00161673 7.9668e-27)
(1.00296 -8.20765e-05 0)
(1.0036 0.00015722 0)
(1.00415 0.000606296 0)
(1.00504 0.00090101 0)
(1.00605 0.00186104 -1.08162e-26)
(1.00715 0.0027052 -9.20748e-27)
(1.00837 0.00435005 -2.10141e-25)
(1.00921 0.00676068 2.85382e-24)
(1.01012 0.0101042 0)
(1.00727 0.0151455 0)
(1.00253 0.0231355 6.28374e-25)
(0.981598 0.0315121 2.20183e-24)
(0.554545 -0.0354148 -8.31039e-26)
(0.991738 -0.0637447 -3.96354e-24)
(1.01559 -0.0483805 -7.38514e-25)
(1.01825 -0.0323521 -5.43272e-27)
(1.01711 -0.023418 -3.03498e-26)
(1.01114 -0.015528 -1.25941e-24)
(1.0083 -0.0119194 2.02372e-25)
(1.00592 -0.00908723 3.42317e-27)
(1.00388 -0.00683595 -1.79309e-24)
(1.00209 -0.00505724 0)
(1.00108 -0.00389235 8.20349e-26)
(0.999723 -0.00204856 -2.16571e-25)
(1.00277 1.17021e-05 0)
(1.00333 0.000253216 -3.18845e-26)
(1.00377 0.000646396 1.22939e-27)
(1.00449 0.000914612 0)
(1.00526 0.00170716 0)
(1.00604 0.00236493 -1.04008e-24)
(1.00681 0.00356111 1.99955e-25)
(1.00727 0.00494847 3.77733e-24)
(1.00703 0.00717907 4.18245e-24)
(1.00404 0.00915782 2.45239e-24)
(0.999108 0.0110715 0)
(0.986615 0.00590442 -2.39633e-25)
(0.848009 -0.0282477 1.8033e-25)
(0.989006 -0.0369677 -4.63114e-25)
(1.0049 -0.0325196 4.0191e-25)
(1.01071 -0.0269299 -4.05221e-25)
(1.00882 -0.0190614 7.3084e-25)
(1.0072 -0.0148545 -1.55344e-25)
(1.00534 -0.0118841 -6.24567e-29)
(1.00359 -0.00928097 -3.47488e-27)
(1.00205 -0.00725323 0)
(1.00059 -0.00542044 -7.66719e-25)
(0.9998 -0.00433614 -9.26472e-25)
(0.998619 -0.00239738 -2.81796e-25)
(1.00262 6.19421e-05 7.85408e-28)
(1.00309 0.000263097 -3.06423e-26)
(1.00346 0.000572148 5.39727e-26)
(1.00405 0.000769498 6.45155e-30)
(1.00469 0.00135459 -1.91347e-25)
(1.00529 0.00177065 -7.57619e-25)
(1.00589 0.00248539 -2.17954e-24)
(1.00619 0.00320623 -3.11185e-24)
(1.00579 0.00423816 -9.65613e-25)
(1.00392 0.00424124 -1.40391e-25)
(1.00137 0.00236625 0)
(0.995417 -0.00211483 -9.88828e-26)
(0.879062 -0.0221276 -8.30293e-25)
(0.994899 -0.0226209 -1.32406e-25)
(1.00249 -0.0239749 -1.20706e-25)
(1.00667 -0.0215903 -2.09672e-25)
(1.00552 -0.0166153 -3.31692e-24)
(1.00426 -0.0137059 0)
(1.0029 -0.0113112 -5.42638e-25)
(1.00153 -0.00905884 -1.97014e-25)
(1.00033 -0.00732593 -2.34659e-26)
(0.999152 -0.00554363 1.49019e-25)
(0.998532 -0.00459483 0)
(0.997535 -0.00265791 0)
(1.00251 7.42304e-05 -3.63689e-28)
(1.00291 0.000208167 1.785e-27)
(1.00324 0.000423735 2.78599e-26)
(1.00375 0.00053227 0)
(1.00433 0.000907991 -9.01194e-26)
(1.00488 0.00110495 0)
(1.00552 0.00137123 -1.48348e-24)
(1.00594 0.00164142 4.99618e-25)
(1.00619 0.00117494 -2.6881e-26)
(1.00498 0.00102532 -7.91256e-26)
(1.00481 -0.00149117 3.3533e-25)
(0.999799 -0.00763734 -2.33032e-25)
(0.9323 -0.0173565 -1.03308e-24)
(0.997668 -0.0179608 7.22735e-26)
(1.00229 -0.0184417 3.07094e-25)
(1.00464 -0.0173046 1.06713e-25)
(1.00311 -0.0143235 -1.57713e-24)
(1.00211 -0.0122268 1.81141e-24)
(1.00094 -0.0104469 0)
(0.999799 -0.00856923 6.41939e-25)
(0.998817 -0.00716107 -7.41881e-26)
(0.997835 -0.00549021 1.681e-25)
(0.997337 -0.00470506 0)
(0.996502 -0.00283817 0)
(1.00246 5.61551e-05 7.19471e-27)
(1.0028 0.000110375 3.14783e-27)
(1.00311 0.000236446 -2.39797e-26)
(1.00359 0.000258497 6.27488e-27)
(1.00417 0.000448193 0)
(1.00475 0.000483581 0)
(1.00552 0.000434039 4.81372e-26)
(1.0062 0.000401878 -1.32191e-25)
(1.00703 -0.00041303 1.57288e-25)
(1.00664 -0.00128545 -6.28856e-25)
(1.00722 -0.00335397 0)
(0.999171 -0.00676789 -3.07914e-25)
(0.941 -0.0160164 -2.12368e-24)
(1.00058 -0.0136472 5.32157e-25)
(1.00287 -0.0134786 1.02265e-24)
(1.00334 -0.0125858 2.62432e-24)
(1.00171 -0.0122237 1.47412e-24)
(1.00065 -0.0106548 1.50094e-24)
(0.999443 -0.00948351 -2.37024e-25)
(0.998394 -0.00793189 -1.56709e-25)
(0.99752 -0.00684496 -3.30281e-25)
(0.996671 -0.00531429 -1.19036e-24)
(0.996248 -0.00469782 2.53219e-27)
(0.995551 -0.00294696 -6.36647e-26)
(1.00246 1.53407e-05 9.1887e-28)
(1.00276 -1.14603e-05 3.91182e-27)
(1.00308 3.64046e-05 -2.5592e-26)
(1.00354 -1.41212e-05 -2.2332e-26)
(1.00416 2.25777e-05 0)
(1.00479 -3.8767e-05 0)
(1.00573 -0.000309009 1.25354e-24)
(1.00661 -0.000388786 1.96649e-25)
(1.00803 -0.00153695 -2.68724e-25)
(1.00787 -0.00135614 -9.23827e-25)
(1.00963 -0.00563593 0)
(0.967829 -0.00122 -1.53614e-24)
(0.970111 -0.0125361 1.36958e-25)
(1.00427 -0.00822624 2.5891e-25)
(1.00304 -0.0117811 2.1107e-25)
(1.00318 -0.0103589 -5.96132e-25)
(1.00096 -0.0105871 -4.53664e-25)
(0.99967 -0.0092792 2.48351e-25)
(0.998317 -0.00856682 -5.95223e-26)
(0.99728 -0.00724991 -1.13476e-24)
(0.996432 -0.00645293 -3.72439e-25)
(0.995667 -0.00506454 -1.54243e-24)
(0.995281 -0.00460568 0)
(0.994695 -0.00299715 -2.19601e-25)
(1.00251 -4.17161e-05 -8.27731e-27)
(1.00278 -0.000143408 -6.97167e-27)
(1.00312 -0.000160328 0)
(1.00358 -0.000265402 -9.66687e-27)
(1.00426 -0.000353112 0)
(1.00494 -0.000454049 -6.16053e-25)
(1.00605 -0.00090511 -1.51716e-25)
(1.00706 -0.000893157 9.29706e-26)
(1.00885 -0.00236845 -2.04139e-25)
(1.00892 -0.00159724 -2.61807e-25)
(1.01018 -0.00602049 -1.75048e-25)
(0.969826 -0.00191893 -2.03426e-24)
(0.97221 -0.0104756 1.03145e-24)
(1.00467 -0.00638022 -2.34542e-25)
(1.00336 -0.0102799 -1.07486e-25)
(1.00308 -0.00852861 -2.27903e-26)
(1.00044 -0.00927773 -2.60189e-25)
(0.998975 -0.00807654 -3.00145e-25)
(0.997461 -0.00773516 -6.41815e-25)
(0.9964 -0.00657857 -1.66565e-25)
(0.99553 -0.00603478 -1.02141e-25)
(0.994814 -0.00477636 -5.09148e-25)
(0.994435 -0.00445756 -2.17455e-25)
(0.993938 -0.00300075 -9.74589e-26)
(1.0026 -0.000110017 0)
(1.00285 -0.000276113 -1.85336e-26)
(1.00321 -0.000345174 -2.36353e-26)
(1.00368 -0.000486023 2.17522e-27)
(1.00443 -0.000676262 1.64837e-25)
(1.00516 -0.000771819 -7.942e-25)
(1.00641 -0.00137902 0)
(1.00753 -0.00122175 -2.32973e-25)
(1.00955 -0.00292731 0)
(1.00992 -0.00177446 0)
(1.0109 -0.00598764 -3.51526e-28)
(0.971441 -0.00211858 2.70642e-27)
(0.973763 -0.00910154 3.88842e-25)
(1.00519 -0.00521317 -1.48615e-25)
(1.00377 -0.00905849 -4.79892e-26)
(1.00304 -0.00709198 -1.37167e-26)
(1.0001 -0.00821923 4.31437e-26)
(0.998476 -0.00702868 -1.30999e-25)
(0.996805 -0.00699831 -1.67964e-25)
(0.995702 -0.00594412 2.79085e-25)
(0.994784 -0.00561921 -1.0184e-25)
(0.994096 -0.00447341 0)
(0.993705 -0.00427531 4.76729e-30)
(0.993276 -0.00296811 0)
(1.00273 -0.000185964 0)
(1.00296 -0.000403784 -2.89342e-26)
(1.00335 -0.000514246 -1.79478e-26)
(1.00383 -0.000673093 3.76619e-26)
(1.00464 -0.000948837 0)
(1.00541 -0.00100682 5.99557e-26)
(1.00679 -0.00174431 -6.58842e-25)
(1.008 -0.0014267 -4.93514e-25)
(1.01015 -0.00327134 -4.9489e-26)
(1.01078 -0.00185539 -1.15463e-27)
(1.01151 -0.00581702 3.72276e-25)
(0.972497 -0.00217409 -2.71966e-25)
(0.974727 -0.00807085 4.96685e-25)
(1.00565 -0.00437591 -1.17663e-25)
(1.00414 -0.0080868 1.20792e-25)
(1.00305 -0.00597344 3.218e-27)
(0.999896 -0.00736139 -1.06598e-25)
(0.998118 -0.00613173 8.91964e-26)
(0.996302 -0.00635894 2.23218e-25)
(0.99515 -0.00536097 -4.13899e-30)
(0.994168 -0.00522363 -4.8548e-26)
(0.993493 -0.0041711 -3.12295e-25)
(0.993078 -0.00407487 1.62466e-25)
(0.992701 -0.00290779 1.4923e-25)
(1.00288 -0.000267145 -1.95863e-26)
(1.00311 -0.000523365 -3.67907e-26)
(1.00352 -0.000666753 -8.74948e-34)
(1.00401 -0.000828012 9.08925e-26)
(1.00488 -0.00117572 2.40709e-25)
(1.00568 -0.00117609 4.32378e-26)
(1.00715 -0.00202019 -6.6015e-25)
(1.00845 -0.00154885 -4.43642e-25)
(1.01067 -0.00347491 2.54545e-25)
(1.01148 -0.00188808 0)
(1.01198 -0.00560095 7.36887e-26)
(0.973256 -0.00215864 -9.82727e-26)
(0.975399 -0.0072625 1.55401e-25)
(1.00601 -0.00374292 -9.16295e-26)
(1.00445 -0.00729604 -5.70689e-31)
(1.00306 -0.00509028 -1.6978e-25)
(0.999768 -0.00665962 -8.70994e-26)
(0.997853 -0.00537105 -1.71754e-26)
(0.995912 -0.00581014 1.18498e-25)
(0.994709 -0.00483507 -1.63374e-25)
(0.993659 -0.00485737 -2.64391e-25)
(0.992989 -0.00387906 -1.31465e-25)
(0.992542 -0.00386774 -1.39592e-25)
(0.992205 -0.00282663 1.29699e-25)
(1.00305 -0.000351996 -3.24967e-34)
(1.00327 -0.000633808 -2.11835e-26)
(1.00372 -0.00080365 2.44608e-26)
(1.00421 -0.000954613 5.02332e-26)
(1.00513 -0.00136336 3.1383e-29)
(1.00596 -0.00129556 0)
(1.0075 -0.00222613 -2.63815e-26)
(1.00886 -0.00161793 -4.18352e-25)
(1.01111 -0.00358504 2.17437e-25)
(1.01207 -0.00189137 0)
(1.01234 -0.00536735 -1.55621e-30)
(0.973836 -0.00210132 7.48837e-26)
(0.97589 -0.00661976 -1.59063e-25)
(1.00629 -0.00325792 0)
(1.00471 -0.00664675 7.6067e-27)
(1.00308 -0.0043872 3.79716e-26)
(0.999686 -0.00608067 0)
(0.997651 -0.00472833 4.02119e-26)
(0.995605 -0.00534126 3.8981e-26)
(0.994354 -0.00436651 -4.30228e-25)
(0.993236 -0.00452413 -1.10467e-25)
(0.992566 -0.00360272 1.11129e-25)
(0.992084 -0.00366142 -1.44995e-25)
(0.991776 -0.00273005 0)
(1.00323 -0.000439614 2.36611e-26)
(1.00345 -0.000735258 -2.30007e-26)
(1.00392 -0.000926814 0)
(1.00442 -0.00105762 2.65141e-26)
(1.00538 -0.00151841 7.94398e-26)
(1.00623 -0.00137862 2.13792e-26)
(1.00782 -0.00237824 0)
(1.00925 -0.00165321 4.38694e-27)
(1.0115 -0.00363298 1.9403e-25)
(1.01256 -0.0018778 0)
(1.01263 -0.00513664 5.01064e-26)
(0.974283 -0.00202459 3.02856e-26)
(0.976242 -0.00610022 -1.08148e-25)
(1.00653 -0.00287975 1.49898e-26)
(1.00491 -0.00611097 -4.02599e-26)
(1.0031 -0.00382459 -2.80956e-27)
(0.999633 -0.00560013 2.96972e-26)
(0.997492 -0.00418673 -1.05362e-26)
(0.995361 -0.00494145 -3.9994e-28)
(0.994064 -0.00395262 -1.53383e-25)
(0.992883 -0.00422457 5.6496e-26)
(0.992208 -0.00334479 6.2839e-26)
(0.991691 -0.00346101 -2.42637e-26)
(0.991404 -0.00262224 -1.28865e-26)
(1.00342 -0.000529443 -2.86675e-27)
(1.00364 -0.000828567 -3.30126e-26)
(1.00413 -0.00103832 -7.13608e-27)
(1.00463 -0.00114172 0)
(1.00562 -0.00164705 4.9654e-25)
(1.0065 -0.00143597 0)
(1.00811 -0.00248975 -2.93565e-25)
(1.00959 -0.00166797 0)
(1.01184 -0.00364091 1.63947e-25)
(1.01298 -0.00185709 9.81659e-26)
(1.01284 -0.00491891 0)
(0.974628 -0.00194667 2.3995e-26)
(0.976495 -0.00567681 0)
(1.00671 -0.00258205 1.1995e-26)
(1.00508 -0.00566539 -1.08759e-26)
(1.00311 -0.00337266 0)
(0.999596 -0.00519916 0)
(0.997362 -0.00373187 -8.67232e-27)
(0.995162 -0.00460091 1.32652e-26)
(0.993823 -0.00358978 0)
(0.992584 -0.00395737 0)
(0.991902 -0.00310632 5.5441e-26)
(0.991352 -0.00326947 1.15833e-26)
(0.991079 -0.00250651 -4.33976e-26)
(1.00362 -0.000621102 2.92034e-27)
(1.00383 -0.000914832 2.77586e-27)
(1.00433 -0.00114022 0)
(1.00484 -0.00121123 -9.0156e-27)
(1.00586 -0.00175468 2.53299e-25)
(1.00675 -0.00147587 1.04836e-26)
(1.00839 -0.00257142 -2.58243e-25)
(1.00991 -0.00167171 5.00384e-28)
(1.01214 -0.00362512 0)
(1.01333 -0.0018333 9.6146e-26)
(1.01299 -0.00472095 0)
(0.974894 -0.00187926 0)
(0.976687 -0.00532747 0)
(1.00686 -0.00234496 5.96241e-26)
(1.00522 -0.00529195 9.54508e-26)
(1.00312 -0.00300945 0)
(0.999566 -0.00486339 -1.97428e-27)
(0.997251 -0.0033516 0)
(0.994995 -0.00431111 0)
(0.993616 -0.00327379 0)
(0.992327 -0.00372038 0)
(0.991637 -0.0028879 -5.36639e-26)
(0.991055 -0.0030886 -4.35397e-26)
(0.990791 -0.00238592 7.80812e-31)
(1.00381 -0.000714214 0)
(1.00401 -0.000995087 1.20999e-26)
(1.00454 -0.00123418 -2.5033e-26)
(1.00504 -0.00126965 2.61397e-26)
(1.00609 -0.00184578 2.40158e-25)
(1.00699 -0.00150452 4.80493e-25)
(1.00863 -0.0026318 0)
(1.01019 -0.00167119 0)
(1.0124 -0.00359747 1.56029e-26)
(1.01364 -0.00181181 3.21303e-27)
(1.01311 -0.00454755 -2.98684e-33)
(0.975101 -0.00182246 2.98595e-26)
(0.976821 -0.00503528 1.39463e-25)
(1.00699 -0.0021557 4.71421e-26)
(1.00532 -0.00498228 3.4607e-27)
(1.00311 -0.00271692 0)
(0.999539 -0.00458251 -7.00395e-26)
(0.997152 -0.00303388 -9.22929e-26)
(0.994851 -0.00406484 0)
(0.993436 -0.00299942 -9.21969e-26)
(0.992102 -0.0035114 -7.84658e-41)
(0.991402 -0.00268851 1.29389e-25)
(0.990792 -0.00291956 8.1076e-26)
(0.990533 -0.00226238 6.47204e-26)
(1.00399 -0.00080828 -2.67551e-26)
(1.0042 -0.00107008 9.39917e-27)
(1.00473 -0.00132141 -1.25524e-26)
(1.00524 -0.00131971 5.06419e-26)
(1.0063 -0.00192387 2.16332e-25)
(1.00722 -0.00152645 9.08305e-25)
(1.00886 -0.00267737 0)
(1.01045 -0.00167024 0)
(1.01264 -0.00356548 1.38729e-26)
(1.0139 -0.00179624 0)
(1.01319 -0.00439896 0)
(0.975264 -0.00177877 0)
(0.976909 -0.00479262 0)
(1.00709 -0.00200732 -3.64616e-26)
(1.0054 -0.00472634 -6.14864e-26)
(1.0031 -0.00248247 -5.78989e-26)
(0.999511 -0.00434846 -1.12734e-25)
(0.997061 -0.0027699 -7.76867e-26)
(0.994724 -0.00385639 0)
(0.993274 -0.00276266 -2.2184e-26)
(0.991901 -0.00332834 0)
(0.991189 -0.00250757 0)
(0.990553 -0.00276306 3.73506e-26)
(0.990295 -0.00213778 2.97835e-26)
(1.00416 -0.000902563 -2.11494e-26)
(1.00437 -0.00114021 -1.47697e-26)
(1.00492 -0.00140255 -5.20005e-27)
(1.00543 -0.00136329 5.75711e-27)
(1.0065 -0.00199153 -6.01676e-34)
(1.00743 -0.00154492 4.26264e-25)
(1.00908 -0.00271298 0)
(1.01069 -0.00167135 -2.93164e-26)
(1.01286 -0.00353431 6.34462e-27)
(1.01414 -0.00178894 -1.74939e-27)
(1.01324 -0.00427521 5.75808e-26)
(0.975392 -0.00175009 1.37879e-26)
(0.97696 -0.00459398 4.60425e-26)
(1.00717 -0.00189474 0)
(1.00546 -0.0045166 0)
(1.00309 -0.0022968 4.19675e-28)
(0.99948 -0.00415499 4.60958e-26)
(0.996974 -0.00255254 2.8096e-31)
(0.994607 -0.00368141 -4.16111e-26)
(0.993124 -0.00256013 0)
(0.991717 -0.00316937 0)
(0.990992 -0.00234475 1.35698e-26)
(0.990332 -0.00261969 0)
(0.99007 -0.00201395 0)
(1.00433 -0.00099597 0)
(1.00454 -0.00120519 -2.16572e-26)
(1.00509 -0.00147761 -1.61295e-26)
(1.00561 -0.00140133 -2.58939e-26)
(1.00669 -0.0020505 0)
(1.00764 -0.00156182 0)
(1.00928 -0.00274179 0)
(1.01092 -0.00167641 -2.67742e-26)
(1.01305 -0.00350797 0)
(1.01435 -0.00179188 -3.12522e-27)
(1.01328 -0.00417682 2.22937e-26)
(0.975491 -0.00173828 2.23372e-27)
(0.976983 -0.00443546 3.5822e-26)
(1.00723 -0.00181462 3.71913e-26)
(1.00551 -0.00434768 3.86901e-26)
(1.00306 -0.00215303 0)
(0.999445 -0.00399725 -3.70289e-26)
(0.996887 -0.00237609 -4.28668e-26)
(0.994497 -0.0035365 0)
(0.992981 -0.00238904 0)
(0.991545 -0.00303329 0)
(0.990803 -0.00219998 1.3012e-26)
(0.990122 -0.00249021 0)
(0.989853 -0.00189289 0)
(1.00447 -0.00108679 1.4335e-27)
(1.0047 -0.00126422 -1.56873e-26)
(1.00526 -0.00154582 4.37956e-27)
(1.00579 -0.0014341 0)
(1.00687 -0.00210144 2.74623e-26)
(1.00783 -0.00157692 8.67642e-27)
(1.00946 -0.00276565 0)
(1.01113 -0.00168594 -1.26902e-26)
(1.01324 -0.00348864 3.20113e-27)
(1.01454 -0.00180635 -4.28909e-27)
(1.01331 -0.00410512 -2.26185e-27)
(0.975566 -0.00174541 -2.90317e-27)
(0.976983 -0.00431474 5.23517e-26)
(1.00728 -0.00176496 6.91194e-28)
(1.00554 -0.00421551 -5.00799e-28)
(1.00303 -0.0020459 2.53274e-26)
(0.999405 -0.00387151 6.85223e-28)
(0.996798 -0.00223595 -3.09255e-27)
(0.99439 -0.00341887 0)
(0.99284 -0.0022472 -2.89901e-26)
(0.99138 -0.0029192 -2.62903e-26)
(0.990618 -0.00207359 0)
(0.989918 -0.00237579 3.35711e-26)
(0.989635 -0.00177691 1.22735e-26)
(1.0046 -0.00117235 0)
(1.00484 -0.00131563 -1.12225e-26)
(1.00541 -0.00160583 -5.79074e-27)
(1.00596 -0.00146157 -1.84254e-27)
(1.00704 -0.00214425 0)
(1.00802 -0.00159025 1.89334e-25)
(1.00964 -0.00278574 -4.92176e-26)
(1.01133 -0.00169943 -2.24419e-26)
(1.01341 -0.00347769 -1.0015e-27)
(1.01472 -0.00183317 7.63193e-27)
(1.01332 -0.00406355 5.57075e-27)
(0.975621 -0.0017749 -1.7734e-26)
(0.976964 -0.00423147 1.65917e-26)
(1.00731 -0.00174488 4.14453e-28)
(1.00556 -0.00411693 -2.12243e-26)
(1.00299 -0.00197102 -1.70067e-26)
(0.999361 -0.00377462 1.51288e-27)
(0.996704 -0.00212842 -3.23745e-27)
(0.994287 -0.00332662 0)
(0.992698 -0.00213327 -1.93704e-26)
(0.991222 -0.002827 -2.07163e-26)
(0.990433 -0.00196667 0)
(0.989718 -0.00227824 1.03712e-26)
(0.989414 -0.00166915 -1.52554e-26)
(1.00471 -0.00124911 -7.46227e-27)
(1.00498 -0.00135743 9.22961e-27)
(1.00554 -0.00165579 -2.13287e-26)
(1.00613 -0.00148235 -1.41786e-27)
(1.0072 -0.00217828 1.90665e-26)
(1.00822 -0.00160112 2.02155e-25)
(1.00981 -0.00280218 -2.08279e-26)
(1.01155 -0.00171539 -6.37841e-27)
(1.01359 -0.00347514 1.21624e-27)
(1.01491 -0.00187096 1.82786e-26)
(1.01334 -0.0040563 1.10472e-27)
(0.975654 -0.00183077 1.57986e-26)
(0.97693 -0.00418655 -6.78784e-27)
(1.00732 -0.00175428 0)
(1.00556 -0.0040488 -1.36544e-26)
(1.00292 -0.00192413 -9.77272e-27)
(0.999313 -0.00370358 8.23332e-28)
(0.996598 -0.00205006 0)
(0.994184 -0.00325774 1.80607e-27)
(0.992547 -0.00204587 2.62488e-27)
(0.991064 -0.00275619 -1.52335e-26)
(0.990236 -0.00188038 -1.96209e-26)
(0.989512 -0.0021993 7.09259e-27)
(0.989174 -0.00157343 0)
(1.0048 -0.00130851 -4.74919e-27)
(1.0051 -0.00138499 8.43974e-27)
(1.00566 -0.00169076 -7.36676e-27)
(1.00628 -0.00149413 0)
(1.00733 -0.00220072 0)
(1.00839 -0.00160754 -4.43561e-26)
(1.00995 -0.00281274 2.13868e-26)
(1.01174 -0.00172965 9.05192e-27)
(1.01375 -0.00347917 5.94011e-27)
(1.01509 -0.00191789 -2.74717e-27)
(1.01336 -0.00410504 -1.54262e-26)
(0.975668 -0.00192749 0)
(0.976891 -0.00418533 0)
(1.00731 -0.00179381 0)
(1.00556 -0.00400778 0)
(1.00286 -0.0019001 -1.06786e-27)
(0.999271 -0.00365665 0)
(0.996494 -0.00199954 0)
(0.994099 -0.00321205 1.547e-27)
(0.992405 -0.00198674 0)
(0.990929 -0.00270856 0)
(0.990054 -0.00181946 0)
(0.98933 -0.00214387 6.34035e-27)
(0.988949 -0.00149871 0)
(1.00488 -0.00135105 0)
(1.00529 -0.00140142 -1.12577e-27)
(1.00579 -0.0017136 -3.03857e-27)
(1.00653 -0.00149968 -5.21181e-28)
(1.00749 -0.0022149 4.44275e-27)
(1.0087 -0.00161103 -7.51106e-26)
(1.01013 -0.00281919 3.05232e-27)
(1.01208 -0.00174075 3.90388e-30)
(1.01397 -0.00348549 2.64597e-33)
(1.01545 -0.00195336 -5.21673e-31)
(1.01347 -0.00419315 -2.55816e-26)
(0.97561 -0.00205877 0)
(0.97682 -0.00422555 -1.48642e-26)
(1.0072 -0.0018656 -2.08005e-26)
(1.00553 -0.00398574 -1.82772e-27)
(1.0027 -0.00189133 -2.28111e-27)
(0.999232 -0.00362672 0)
(0.996294 -0.00196869 0)
(0.993999 -0.00318254 0)
(0.992153 -0.00194845 0)
(0.990749 -0.00267745 0)
(0.989745 -0.00177822 0)
(0.989063 -0.00210661 4.5254e-27)
(0.988565 -0.00144375 0)
(1.07424 -0.0946984 1.88988e-26)
(1.12486 0.129997 7.17647e-26)
(1.01588 0.148388 3.00926e-25)
(1.11502 -0.0270504 -3.52819e-26)
(1.18207 0.0347232 -1.18741e-26)
(1.13646 0.120086 -5.89282e-26)
(1.10072 0.0368218 -1.52298e-26)
(1.16223 -0.065424 -1.58861e-25)
(1.18375 0.0211208 -4.64549e-26)
(1.05809 0.0686916 -8.26014e-26)
(1.0992 -0.111312 2.2793e-25)
(1.15566 -0.0742727 0)
(1.0115 0.0651488 7.19225e-30)
(1.03246 -0.112081 -1.55148e-25)
(1.09039 -0.1139 1.50393e-25)
(0.983093 0.0360133 0)
(0.561414 0.0180391 -9.92019e-26)
(0.528975 -0.0402861 1.78817e-25)
(0.988526 -0.0757794 8.40748e-25)
(1.02505 -0.1093 -2.27926e-25)
(0.980898 -0.099899 1.93791e-25)
(0.909429 0.00415641 4.37422e-26)
(1.00079 0.140669 4.38505e-25)
(0.961516 0.0682375 1.02273e-24)
(1.04351 -0.0469527 -1.28e-25)
(1.06976 -0.0845663 5.43407e-27)
(1.00095 -0.0954395 -2.49454e-25)
(1.07994 0.243496 0)
(0.950757 0.229051 -2.42847e-25)
(1.11893 0.118567 0)
(1.07963 0.0661742 1.23982e-26)
(1.04284 0.0761285 -1.40985e-24)
(1.06571 -0.0186318 1.29764e-25)
(1.10767 -0.0248132 -3.32994e-26)
(1.07746 -0.0783178 6.41268e-27)
(1.10232 -0.0631762 -6.19848e-27)
(1.13501 -0.0780927 5.95597e-27)
(1.10789 -0.121634 -8.41541e-27)
(1.19904 0.103889 7.70439e-26)
(1.16754 0.174023 2.99983e-26)
(1.17212 0.0329594 5.22324e-27)
(1.11054 0.0234065 -4.06042e-25)
(1.09019 0.0577649 1.50863e-25)
(1.06382 0.0135385 2.70341e-25)
(1.09612 0.033142 1.33052e-26)
(1.10868 -0.016391 -2.07964e-28)
(1.11357 0.00809328 2.17475e-30)
(1.14073 0.0208121 -3.34445e-26)
(1.14711 -0.0221571 -3.97378e-28)
(1.21276 -0.0268176 2.07286e-27)
(1.21991 0.0448163 -4.22112e-26)
(1.15602 -0.05459 -1.8072e-25)