/*--------------------------------*- C++ -*----------------------------------*\
| =========                 |                                                 |
| \\      /  F ield         | OpenFOAM: The Open Source CFD Toolbox           |
|  \\    /   O peration     | Version:  5.x                                   |
|   \\  /    A nd           | Web:      www.OpenFOAM.org                      |
|    \\/     M anipulation  |                                                 |
\*---------------------------------------------------------------------------*/
FoamFile
{
    version     2.0;
    format      ascii;
    class       volScalarField;
    location    "500";
    object      xf;
}
// * * * * * * * * * * * * * * * * * * * * * * * * * * * * * * * * * * * * * //

dimensions      [0 0 0 0 0 0 0];

internalField   nonuniform List<scalar> 
6584
(
0.264652
0.264652
0.264652
0.264652
0.264652
0.264652
0.264652
0.264652
0.264653
0.264653
0.264653
0.264653
0.264653
0.264653
0.264653
0.264653
0.264652
0.264652
0.264652
0.264652
0.264652
0.264652
0.264651
0.264651
0.264363
0.264363
0.264363
0.264363
0.264364
0.264364
0.264364
0.264365
0.264365
0.264366
0.264366
0.264366
0.264366
0.264366
0.264366
0.264365
0.264365
0.264365
0.264364
0.264364
0.264363
0.264363
0.264363
0.264363
0.264074
0.264074
0.264075
0.264074
0.264075
0.264075
0.264076
0.264078
0.264078
0.264222
0.264222
0.264222
0.264222
0.264222
0.264222
0.264079
0.264077
0.264077
0.264076
0.264075
0.264075
0.264075
0.264074
0.264074
0.263785
0.263786
0.263786
0.263786
0.263786
0.263787
0.263788
0.26379
0.263791
0.263934
0.263934
0.263933
0.263933
0.263934
0.263934
0.263935
0.263789
0.263789
0.263788
0.263787
0.263787
0.263786
0.263786
0.263786
0.263497
0.263497
0.263498
0.263498
0.263499
0.263499
0.263499
0.2635
0.263645
0.263646
0.263644
0.263642
0.263642
0.263643
0.263645
0.263646
0.263646
0.263502
0.2635
0.2635
0.263499
0.263498
0.263498
0.263497
0.263209
0.263209
0.26321
0.26321
0.263211
0.263211
0.263212
0.263355
0.263355
0.263354
0.263425
0.263421
0.26342
0.263424
0.263355
0.263358
0.263359
0.263216
0.263214
0.263212
0.263211
0.26321
0.26321
0.263209
0.262921
0.262921
0.262922
0.262922
0.262923
0.262924
0.262926
0.263068
0.263067
0.263065
0.263129
0.263158
0.263153
0.263126
0.263139
0.263073
0.263073
0.262932
0.262928
0.262926
0.262924
0.262923
0.262922
0.262921
0.262633
0.262633
0.262634
0.262635
0.262636
0.262638
0.262641
0.262782
0.262781
0.262781
0.262839
0.262851
0.262861
0.262853
0.262791
0.26279
0.262649
0.262643
0.26264
0.262638
0.262636
0.262634
0.262634
0.262345
0.262346
0.262347
0.262348
0.26235
0.262352
0.262356
0.262498
0.262498
0.262502
0.262559
0.262571
0.262584
0.262578
0.262514
0.26251
0.262367
0.262358
0.262354
0.262351
0.262349
0.262347
0.262346
0.262057
0.262058
0.262059
0.262061
0.262063
0.262066
0.262072
0.262214
0.262217
0.262225
0.262286
0.262308
0.26233
0.262311
0.26224
0.262232
0.262085
0.262074
0.262069
0.262065
0.262062
0.26206
0.262058
0.26177
0.26177
0.261772
0.261774
0.261777
0.261781
0.261788
0.26193
0.261936
0.261948
0.262015
0.262046
0.262078
0.262046
0.261967
0.261954
0.261803
0.261791
0.261784
0.261778
0.261775
0.261772
0.261771
0.261482
0.261483
0.261485
0.261487
0.261491
0.261495
0.261503
0.261647
0.261654
0.261669
0.261739
0.261776
0.261817
0.261777
0.261692
0.261675
0.261521
0.261507
0.261498
0.261492
0.261487
0.261485
0.261483
0.261194
0.261196
0.261198
0.2612
0.261204
0.26121
0.261218
0.261362
0.261372
0.261387
0.261459
0.261493
0.261539
0.2615
0.261413
0.261394
0.261238
0.261222
0.261213
0.261205
0.2612
0.261197
0.261195
0.260907
0.260908
0.26091
0.260914
0.260918
0.260924
0.260933
0.260937
0.261085
0.261099
0.261167
0.261189
0.162691
0.261207
0.261216
0.261131
0.261111
0.260954
0.260937
0.260927
0.260918
0.260913
0.260909
0.260906
0.260619
0.260621
0.260623
0.260627
0.260631
0.260637
0.260645
0.260648
0.260795
0.260808
0.260876
0.260857
0.231541
0.260912
0.26085
0.260845
0.260676
0.260666
0.260649
0.260639
0.260631
0.260625
0.260621
0.260617
0.260331
0.260333
0.260336
0.260339
0.260344
0.26035
0.260357
0.26036
0.260507
0.260521
0.260517
0.260564
0.232872
0.26055
0.260562
0.260558
0.26039
0.260379
0.260361
0.26035
0.260342
0.260335
0.260332
0.260328
0.260043
0.260045
0.260048
0.260052
0.260057
0.260062
0.260069
0.260073
0.260082
0.260234
0.260229
0.259906
0.246036
0.260257
0.260273
0.26027
0.260102
0.260091
0.260073
0.260061
0.260053
0.260046
0.260042
0.260038
0.259755
0.259758
0.25976
0.259764
0.259769
0.259774
0.259781
0.259787
0.259795
0.2598
0.259941
0.259433
0.245964
0.259966
0.259843
0.259828
0.259813
0.259802
0.259784
0.259772
0.259763
0.259756
0.259752
0.259748
0.259468
0.25947
0.259473
0.259477
0.259482
0.259486
0.259495
0.2595
0.259509
0.259514
0.259459
0.245642
0.252643
0.259539
0.259554
0.25954
0.259524
0.259514
0.259495
0.259483
0.259474
0.259467
0.259462
0.259458
0.25918
0.259182
0.259185
0.259189
0.259194
0.259199
0.259208
0.259214
0.259223
0.259227
0.259131
0.245387
0.252376
0.259247
0.259266
0.259252
0.259236
0.259225
0.259206
0.259193
0.259184
0.259177
0.259172
0.259167
0.258892
0.258894
0.258897
0.258902
0.258907
0.258912
0.258922
0.258928
0.258937
0.25894
0.258806
0.245129
0.252104
0.258956
0.258977
0.258964
0.258947
0.258936
0.258917
0.258904
0.258894
0.258887
0.258882
0.258877
0.258604
0.258607
0.25861
0.258614
0.25862
0.258625
0.258635
0.258642
0.258651
0.258654
0.258483
0.244868
0.251828
0.258664
0.258689
0.258676
0.258659
0.258647
0.258627
0.258614
0.258604
0.258597
0.258592
0.258586
0.258316
0.258319
0.258322
0.258327
0.258333
0.258338
0.258349
0.258356
0.258366
0.258367
0.258162
0.244604
0.251549
0.258373
0.258401
0.258388
0.25837
0.258358
0.258338
0.258325
0.258314
0.258306
0.258301
0.258295
0.258028
0.258031
0.258035
0.25804
0.258046
0.258052
0.258063
0.25807
0.25808
0.258081
0.257842
0.244339
0.251268
0.258081
0.258113
0.2581
0.258081
0.258069
0.258049
0.258035
0.258024
0.258016
0.258011
0.258005
0.25774
0.257743
0.257747
0.257752
0.257759
0.257765
0.257777
0.257784
0.257795
0.257795
0.257525
0.244071
0.250986
0.257789
0.257825
0.257812
0.257793
0.25778
0.257759
0.257745
0.257734
0.257725
0.25772
0.257714
0.257453
0.257456
0.257459
0.257465
0.257472
0.257478
0.257491
0.257498
0.25751
0.257508
0.257205
0.243805
0.250703
0.257498
0.257537
0.257524
0.257504
0.257492
0.25747
0.257455
0.257444
0.257435
0.257429
0.257423
0.257165
0.257168
0.257172
0.257178
0.257185
0.257192
0.257205
0.257213
0.257224
0.257222
0.256883
0.243539
0.250423
0.257208
0.25725
0.257237
0.257216
0.257203
0.257181
0.257166
0.257154
0.257145
0.257139
0.257133
0.256877
0.25688
0.256885
0.25689
0.256898
0.256905
0.256918
0.256927
0.256939
0.256936
0.256562
0.243273
0.250143
0.256918
0.256963
0.256949
0.256928
0.256915
0.256892
0.256877
0.256865
0.256855
0.256849
0.256843
0.25659
0.256593
0.256597
0.256603
0.256611
0.256619
0.256633
0.256641
0.256655
0.25665
0.256243
0.243006
0.249861
0.256628
0.256676
0.256662
0.25664
0.256627
0.256603
0.256587
0.256575
0.256565
0.256559
0.256553
0.256302
0.256305
0.25631
0.256316
0.256324
0.256332
0.256347
0.256356
0.25637
0.256363
0.255924
0.242738
0.249579
0.256338
0.256388
0.256375
0.256352
0.256338
0.256314
0.256298
0.256285
0.256275
0.256269
0.256263
0.256015
0.256018
0.256023
0.256029
0.256037
0.256046
0.256061
0.256071
0.256085
0.256077
0.255607
0.24247
0.249296
0.256048
0.256101
0.256087
0.256064
0.25605
0.256025
0.256008
0.255995
0.255985
0.255979
0.255972
0.255727
0.255731
0.255735
0.255742
0.25575
0.25576
0.255776
0.255786
0.2558
0.255791
0.25529
0.242201
0.249012
0.255758
0.255814
0.2558
0.255776
0.255761
0.255736
0.255719
0.255705
0.255695
0.255688
0.255682
0.255439
0.255443
0.255448
0.255455
0.255464
0.255474
0.25549
0.255501
0.255515
0.255504
0.254973
0.241932
0.248729
0.255468
0.255527
0.255513
0.255488
0.255473
0.255447
0.255429
0.255416
0.255405
0.255398
0.255392
0.255152
0.255156
0.255161
0.255167
0.255177
0.255188
0.255205
0.255216
0.255231
0.255218
0.254657
0.241663
0.248445
0.255178
0.25524
0.255226
0.2552
0.255184
0.255158
0.25514
0.255126
0.255115
0.255108
0.255102
0.254865
0.254868
0.254874
0.25488
0.25489
0.254902
0.25492
0.254931
0.254946
0.254931
0.25434
0.241394
0.248161
0.254888
0.254953
0.254938
0.254912
0.254896
0.254869
0.25485
0.254836
0.254825
0.254817
0.254811
0.254577
0.254581
0.254587
0.254593
0.254604
0.254616
0.254634
0.254646
0.254661
0.254644
0.254022
0.241125
0.247878
0.254598
0.254665
0.254651
0.254624
0.254607
0.25458
0.254561
0.254546
0.254535
0.254527
0.254521
0.262605
0.262614
0.262854
0.262341
0.26236
0.262581
0.262079
0.26211
0.262329
0.26181
0.261851
0.262078
0.261529
0.261575
0.261817
0.261227
0.152351
0.15961
0.261283
0.26154
0.262888
0.263153
0.262891
0.263159
0.262628
0.262609
0.262859
0.262711
0.262845
0.262617
0.262641
0.262847
0.262354
0.262343
0.262575
0.262472
0.262373
0.262549
0.262136
0.262519
0.262361
0.262375
0.262574
0.262083
0.26208
0.26231
0.262211
0.261891
0.262039
0.258385
0.260446
0.26211
0.262113
0.26231
0.261809
0.26181
0.262047
0.261946
0.261734
0.261794
0.260521
0.259035
0.26185
0.261848
0.262048
0.260985
0.261224
0.261575
0.261574
0.26178
0.260811
0.260927
0.260931
0.180018
0.152683
0.209747
0.260974
0.261243
0.262571
0.262701
0.262707
0.262696
0.262535
0.262847
0.262714
0.262535
0.262702
0.262713
0.262699
0.262565
0.262071
0.262339
0.262439
0.262114
0.261296
0.262499
0.262157
0.260586
0.262115
0.262454
0.262272
0.261802
0.262552
0.262288
0.262486
0.261802
0.261877
0.262178
0.260996
0.261214
0.261258
0.260989
0.258997
0.258266
0.262204
0.261498
0.261491
0.261787
0.261516
0.262236
0.260956
0.261144
0.261231
0.260921
0.261211
0.260622
0.26195
0.26159
0.261664
0.261485
0.26158
0.261982
0.261248
0.261239
0.261163
0.261244
0.260939
0.260986
0.261654
0.261563
0.261715
0.261158
0.260834
0.261234
0.261171
0.260538
0.260791
0.262742
0.262719
0.262854
0.262743
0.262831
0.261529
0.261529
0.261775
0.261671
0.261564
0.261648
0.254919
0.252504
0.261283
0.261292
0.261504
0.262837
0.262752
0.262852
0.262716
0.262747
0.261659
0.261725
0.261913
0.182409
0.195029
0.234647
0.241096
0.195691
0.210633
0.252048
0.24793
0.261681
0.261547
0.261423
0.241868
0.245765
0.261404
0.261258
0.261431
0.263008
0.262993
0.262867
0.262866
0.262993
0.263008
0.262732
0.262766
0.262739
0.262837
0.262749
0.262785
0.262289
0.262363
0.259595
0.259696
0.26004
0.259839
0.260964
0.247951
0.261267
0.256824
0.255196
0.255473
0.25698
0.260882
0.261636
0.26264
0.259594
0.262319
0.258998
0.262618
0.262404
0.262746
0.262769
0.262724
0.261926
0.262621
0.262632
0.261661
0.26161
0.262389
0.262365
0.261244
0.261327
0.261899
0.262397
0.262446
0.262333
0.262381
0.261888
0.262441
0.262528
0.262578
0.262462
0.262511
0.26241
0.261101
0.261112
0.261055
0.261035
0.256785
0.256999
0.26134
0.262148
0.262194
0.262087
0.262133
0.261324
0.261681
0.262271
0.262317
0.262209
0.262255
0.261665
0.183862
0.26105
0.19939
0.185518
0.215421
0.200241
0.261076
0.260769
0.18709
0.260806
0.261052
0.261009
0.261523
0.262025
0.262072
0.261963
0.26201
0.261544
0.225082
0.233256
0.261209
0.228272
0.216475
0.237967
0.229568
0.261221
0.212082
0.223817
0.260969
0.252606
0.255184
0.248433
0.252103
0.260975
0.246948
0.245024
0.246355
0.172522
0.24621
0.244481
0.188351
0.256783
0.256974
0.262812
0.261243
0.261232
0.261492
0.261384
0.261334
0.261438
0.204737
0.259826
0.260175
0.262814
0.261448
0.261551
0.261636
0.182117
0.184592
0.137429
0.244078
0.243613
0.187257
0.191801
0.255858
0.256725
0.11708
0.262914
0.26292
0.262849
0.262844
0.262919
0.262914
0.262457
0.26251
0.262459
0.262171
0.262164
0.262451
0.26194
0.262245
0.262196
0.26231
0.262261
0.261961
0.258972
0.260155
0.260299
0.259104
0.239922
0.236715
0.260865
0.25714
0.258209
0.260345
0.260225
0.177759
0.262788
0.262761
0.262844
0.262572
0.262361
0.262216
0.262645
0.262663
0.262716
0.262594
0.262646
0.262627
0.262178
0.262376
0.262326
0.262443
0.262393
0.262217
0.261914
0.254122
0.25893
0.250716
0.251499
0.261421
0.259405
0.259922
0.262256
0.260859
0.261616
0.262066
0.262393
0.262411
0.262274
0.262302
0.261839
0.26218
0.262132
0.261842
0.261051
0.248715
0.246049
0.261157
0.249585
0.250498
0.245587
0.246101
0.260986
0.258106
0.257561
0.261419
0.262115
0.262136
0.262012
0.262057
0.26143
0.261745
0.262238
0.262265
0.262143
0.262166
0.261587
0.261151
0.255608
0.256631
0.254523
0.253818
0.260816
0.261698
0.261899
0.261947
0.261833
0.261883
0.261691
0.261253
0.244287
0.238888
0.250285
0.248664
0.261251
0.205725
0.208027
0.261212
0.252035
0.25078
0.202903
0.205062
0.243922
0.240763
0.262779
0.262812
0.262792
0.236672
0.254019
0.238422
0.240152
0.239485
0.253708
0.262801
0.262785
0.262822
0.262768
0.262788
0.183876
0.188083
0.184077
0.182565
0.237758
0.193166
0.191137
0.198297
0.193755
0.238582
0.199515
0.202444
0.250486
0.249786
0.243818
0.205442
0.200775
0.192202
0.194509
0.262694
0.262727
0.26276
0.262681
0.262716
0.262678
0.262185
0.262435
0.259082
0.260053
0.260264
0.259184
0.248838
0.256873
0.256147
0.257639
0.257105
0.248664
0.254514
0.253899
0.255931
0.254895
0.256254
0.245115
0.247139
0.241524
0.244122
0.256012
0.234986
0.235981
0.260925
0.262559
0.262444
0.262675
0.262594
0.261271
0.261814
0.26159
0.262363
0.261908
0.26266
0.262729
0.262691
0.26263
0.262554
0.262542
0.262394
0.262584
0.262451
0.262614
0.262668
0.262484
0.262593
0.262663
0.262624
0.262559
0.252564
0.253402
0.261839
0.245648
0.242041
0.25491
0.246344
0.236801
0.233346
0.240934
0.238348
0.261467
0.25178
0.252357
0.258908
0.257967
0.261477
0.259694
0.256909
0.25594
0.257803
0.257159
0.262285
0.260042
0.26038
0.26095
0.261568
0.262351
0.262382
0.261983
0.261852
0.262312
0.262341
0.249424
0.249172
0.261067
0.227989
0.228207
0.213431
0.226205
0.227246
0.23156
0.227935
0.227252
0.248251
0.249285
0.261127
0.227674
0.2239
0.232559
0.228794
0.216471
0.212729
0.222387
0.218394
0.260999
0.246624
0.247836
0.257466
0.257379
0.262088
0.262108
0.261397
0.261382
0.262064
0.262082
0.262205
0.26223
0.26173
0.261604
0.262173
0.262197
0.186617
0.191701
0.249341
0.251195
0.246878
0.248672
0.186902
0.209448
0.25361
0.250174
0.251691
0.253155
0.206238
0.238451
0.239568
0.234065
0.238025
0.192015
0.244427
0.246382
0.240184
0.243376
0.192234
0.254824
0.255376
0.261131
0.252076
0.253315
0.253607
0.252014
0.253357
0.260855
0.253435
0.254294
0.228337
0.180356
0.1816
0.1895
0.181163
0.229519
0.184321
0.216338
0.182145
0.218309
0.250324
0.258257
0.257806
0.2588
0.258409
0.250633
0.245379
0.24595
0.209141
0.211675
0.196393
0.201927
0.246099
0.244658
0.262899
0.262918
0.263134
0.261395
0.261279
0.261106
0.262872
0.262876
0.262832
0.262823
0.262874
0.262871
0.263005
0.262998
0.262873
0.262578
0.262527
0.262482
0.262148
0.261682
0.26161
0.258544
0.260347
0.262051
0.262002
0.261767
0.256689
0.256325
0.259052
0.256846
0.25733
0.261247
0.262629
0.262647
0.262595
0.262136
0.262288
0.262565
0.26268
0.26264
0.262673
0.262473
0.261438
0.262069
0.260677
0.261536
0.261447
0.262064
0.262072
0.262083
0.261815
0.262433
0.262452
0.262325
0.261831
0.262116
0.262067
0.250641
0.249562
0.261162
0.258899
0.257211
0.257037
0.258146
0.26148
0.261912
0.26192
0.261773
0.262052
0.262062
0.261927
0.261935
0.261537
0.2607
0.252337
0.2512
0.261459
0.261986
0.261999
0.26162
0.261765
0.261815
0.178746
0.178559
0.253336
0.252405
0.261203
0.179234
0.17897
0.2583
0.258492
0.260722
0.262753
0.262751
0.18143
0.18098
0.182363
0.194042
0.196407
0.178273
0.179565
0.191337
0.189254
0.208612
0.244862
0.24425
0.248547
0.209133
0.206231
0.244345
0.262929
0.262923
0.26285
0.262712
0.262721
0.262732
0.262745
0.262639
0.262656
0.262771
0.262804
0.262786
0.262035
0.261998
0.262235
0.262399
0.262286
0.262221
0.259358
0.259797
0.257279
0.257503
0.260163
0.259587
0.25619
0.256766
0.249565
0.249661
0.252219
0.251864
0.247946
0.249915
0.250194
0.261253
0.25754
0.258119
0.261376
0.260249
0.261777
0.26159
0.262542
0.262461
0.262144
0.256882
0.256125
0.26112
0.259791
0.257919
0.262759
0.262739
0.262693
0.262696
0.262617
0.262663
0.262154
0.262565
0.26261
0.260492
0.261077
0.262455
0.255117
0.254197
0.26116
0.261408
0.262511
0.26253
0.262493
0.262339
0.262471
0.262491
0.261149
0.249458
0.2494
0.256749
0.257128
0.261995
0.262004
0.261697
0.261643
0.261977
0.261986
0.185363
0.198296
0.220346
0.221585
0.206788
0.207812
0.18413
0.253113
0.252543
0.260734
0.192336
0.190483
0.202682
0.20274
0.188829
0.205649
0.206186
0.189285
0.189888
0.261961
0.261973
0.261461
0.261562
0.261936
0.261949
0.222532
0.252138
0.252756
0.250832
0.251482
0.220507
0.253777
0.258479
0.258904
0.258743
0.258619
0.254177
0.24921
0.25319
0.252689
0.245894
0.245083
0.247021
0.181402
0.18418
0.184591
0.180531
0.247401
0.215071
0.210645
0.218744
0.216127
0.243893
0.233379
0.233885
0.247688
0.249433
0.257338
0.262805
0.262816
0.262794
0.181971
0.182659
0.207372
0.206019
0.135237
0.189868
0.184647
0.184828
0.182821
0.183856
0.191165
0.11761
0.244349
0.24597
0.262883
0.262878
0.262829
0.261818
0.261751
0.262159
0.262046
0.262237
0.262377
0.262163
0.262206
0.258779
0.26025
0.254452
0.254844
0.254793
0.254406
0.259069
0.25604
0.255835
0.23921
0.23407
0.233891
0.234879
0.234709
0.238303
0.262323
0.262464
0.262477
0.262428
0.26245
0.26228
0.260767
0.261938
0.26136
0.261154
0.261827
0.262093
0.262104
0.257292
0.257329
0.258657
0.257808
0.261898
0.261905
0.261447
0.262033
0.262042
0.261759
0.261564
0.261943
0.261951
0.254504
0.255942
0.255399
0.25633
0.256195
0.25433
0.178477
0.178729
0.180061
0.179551
0.203681
0.189699
0.189145
0.234828
0.234864
0.242952
0.236476
0.237787
0.234172
0.235126
0.24183
0.262773
0.262764
0.262767
0.262772
0.262803
0.262806
0.262819
0.262784
0.262792
0.262792
0.238041
0.24622
0.245706
0.247684
0.246921
0.238654
0.241529
0.243835
0.242824
0.2453
0.244776
0.240663
0.262794
0.262801
0.262789
0.262727
0.262692
0.262772
0.262759
0.181439
0.192079
0.183423
0.183502
0.183608
0.183084
0.205619
0.206858
0.192044
0.178129
0.17746
0.197537
0.181915
0.181218
0.181756
0.205752
0.185219
0.180992
0.245458
0.24643
0.251104
0.242987
0.243236
0.242351
0.242506
0.249115
0.24402
0.244451
0.192617
0.180673
0.18172
0.179969
0.179921
0.193289
0.262709
0.26272
0.262708
0.262646
0.262669
0.262697
0.261775
0.262204
0.261947
0.261883
0.26205
0.262104
0.261927
0.261992
0.259195
0.259902
0.25547
0.255658
0.25505
0.255264
0.260226
0.2576
0.257654
0.255739
0.255856
0.259349
0.255703
0.250531
0.249816
0.248281
0.251574
0.251197
0.254248
0.250536
0.250446
0.251653
0.25101
0.254072
0.255669
0.252274
0.252647
0.250864
0.251599
0.255311
0.250284
0.242378
0.248907
0.248364
0.234443
0.234951
0.260778
0.261942
0.26186
0.260588
0.261572
0.262256
0.262069
0.258102
0.25746
0.26037
0.260517
0.26167
0.259468
0.258794
0.262393
0.262498
0.262665
0.262577
0.262253
0.261851
0.262237
0.262514
0.262564
0.262583
0.262497
0.262526
0.262419
0.262294
0.262414
0.26263
0.262592
0.262564
0.262649
0.262608
0.262648
0.262512
0.262536
0.262476
0.262539
0.244761
0.243312
0.25249
0.241543
0.242838
0.239003
0.24699
0.235464
0.234313
0.239993
0.23921
0.25843
0.254086
0.255118
0.252078
0.253038
0.258158
0.261268
0.259649
0.260129
0.255712
0.258513
0.260772
0.253347
0.251735
0.256657
0.245854
0.246805
0.24427
0.24505
0.256375
0.257637
0.250514
0.251243
0.247897
0.249136
0.257407
0.261076
0.261502
0.228543
0.214086
0.216232
0.209574
0.211708
0.228462
0.216815
0.21725
0.217214
0.22182
0.227862
0.198354
0.200237
0.202193
0.198735
0.229293
0.227686
0.205927
0.207648
0.202557
0.204403
0.227466
0.226781
0.22568
0.231723
0.230139
0.214801
0.213368
0.221123
0.220098
0.256997
0.25725
0.261713
0.262013
0.262023
0.26196
0.261968
0.261621
0.186535
0.215812
0.218519
0.196154
0.184108
0.209713
0.212596
0.196526
0.194352
0.238789
0.214981
0.21503
0.236094
0.212126
0.207406
0.214904
0.214168
0.237339
0.201416
0.198879
0.202564
0.204693
0.190603
0.192804
0.197911
0.255081
0.257834
0.257642
0.258094
0.257968
0.255227
0.252483
0.253048
0.253028
0.251962
0.251904
0.252396
0.253368
0.256679
0.256464
0.25735
0.256999
0.253717
0.180524
0.193207
0.19427
0.191735
0.192455
0.181021
0.186444
0.201347
0.203839
0.196004
0.198515
0.183397
0.183937
0.179016
0.179735
0.180249
0.179456
0.182748
0.188975
0.190742
0.182148
0.185596
0.182647
0.253947
0.253622
0.249924
0.245301
0.246612
0.179852
0.181959
0.198575
0.184217
0.181457
0.188363
0.18694
0.200529
0.180858
0.180604
0.234023
0.234166
0.263498
0.263497
0.263643
0.263495
0.263494
0.263642
0.263495
0.263495
0.263642
0.263497
0.263499
0.263644
0.263208
0.263206
0.263352
0.263203
0.263199
0.263424
0.263196
0.263192
0.26342
0.263192
0.263197
0.263421
0.263201
0.263206
0.263426
0.263211
0.263213
0.263356
0.262923
0.262916
0.263133
0.262911
0.262896
0.263124
0.263041
0.263038
0.263157
0.263029
0.263034
0.263153
0.26305
0.263055
0.263127
0.262924
0.262931
0.263072
0.262641
0.262633
0.262844
0.262768
0.262766
0.262837
0.262814
0.262811
0.262848
0.262753
0.262769
0.262875
0.262646
0.262655
0.262792
0.262363
0.262357
0.262563
0.26249
0.26249
0.262558
0.262538
0.262538
0.262571
0.262487
0.2625
0.262599
0.262377
0.262384
0.262519
0.262087
0.262084
0.262289
0.262218
0.262221
0.262288
0.262276
0.262276
0.262308
0.262236
0.262241
0.262338
0.262113
0.262114
0.262249
0.261809
0.261809
0.262016
0.261946
0.261951
0.262019
0.262013
0.262014
0.262048
0.261982
0.261981
0.262079
0.261845
0.261842
0.261978
0.261528
0.261529
0.261739
0.261741
0.261742
0.261777
0.261715
0.26171
0.261812
0.26157
0.261566
0.261705
0.261244
0.261243
0.261458
0.26143
0.261434
0.261504
0.261288
0.261286
0.261427
0.260952
0.260946
0.261091
0.260948
0.260937
0.261156
0.261078
0.260993
0.261108
0.172043
0.254089
0.254685
0.260987
0.261003
0.261221
0.260996
0.261002
0.261144
0.260665
0.260658
0.260802
0.260661
0.260646
0.260864
0.260637
0.20773
0.207029
0.2326
0.260673
0.260899
0.26069
0.260712
0.260927
0.260706
0.260713
0.260857
0.260373
0.260364
0.260509
0.260157
0.232165
0.207911
0.246055
0.260254
0.260598
0.260403
0.260421
0.260566
0.262604
0.262638
0.262639
0.262646
0.262658
0.262605
0.262852
0.262816
0.262818
0.262341
0.262373
0.262373
0.262391
0.26239
0.262343
0.262587
0.262536
0.262549
0.262081
0.262113
0.262112
0.262142
0.262142
0.262095
0.262327
0.26228
0.262298
0.261812
0.261846
0.261845
0.261884
0.261888
0.261841
0.26208
0.262033
0.262047
0.261611
0.261604
0.261569
0.261808
0.261775
0.261784
0.261146
0.261298
0.261346
0.135086
0.198442
0.198469
0.225644
0.225845
0.118117
0.261534
0.261498
0.261504
0.262874
0.262998
0.263003
0.262836
0.262836
0.262825
0.263153
0.263034
0.263029
0.262834
0.262836
0.262929
0.262927
0.262888
0.263158
0.263039
0.263043
0.262627
0.262696
0.262698
0.262713
0.262694
0.262625
0.262834
0.262763
0.262749
0.262729
0.262725
0.262692
0.262841
0.26282
0.262825
0.262632
0.262734
0.262718
0.262709
0.262709
0.262642
0.262845
0.262777
0.262777
0.262355
0.262422
0.262422
0.262442
0.262423
0.262357
0.262557
0.26249
0.262475
0.262471
0.262504
0.262505
0.262403
0.262452
0.262432
0.262564
0.262546
0.262528
0.262471
0.262416
0.262495
0.26237
0.262467
0.262455
0.262441
0.262445
0.26238
0.262575
0.26251
0.262507
0.262086
0.262154
0.26215
0.262179
0.262157
0.26209
0.26229
0.262223
0.262212
0.262211
0.262244
0.262243
0.261906
0.262136
0.26212
0.26224
0.262221
0.26201
0.262112
0.262209
0.262204
0.262179
0.262186
0.262121
0.262315
0.26225
0.262244
0.261814
0.261882
0.261878
0.261913
0.261887
0.261818
0.262023
0.261955
0.261946
0.261948
0.261981
0.26198
0.261759
0.261985
0.261936
0.261986
0.261971
0.261785
0.260423
0.257978
0.258261
0.261847
0.261947
0.261949
0.261915
0.261923
0.261856
0.262055
0.261989
0.261981
0.260981
0.258814
0.259125
0.260361
0.260409
0.261233
0.261574
0.261643
0.26168
0.261643
0.261651
0.261582
0.261788
0.26172
0.261712
0.26083
0.260113
0.26011
0.260081
0.260094
0.260913
0.260876
0.260954
0.261004
0.178321
0.26018
0.26002
0.243702
0.243706
0.154146
0.259703
0.259793
0.206153
0.261048
0.260722
0.260752
0.261041
0.260764
0.26113
0.262591
0.2626
0.262582
0.262717
0.262664
0.262647
0.262673
0.262672
0.262706
0.262678
0.262649
0.262696
0.262827
0.262824
0.262844
0.262708
0.262728
0.262732
0.262548
0.262514
0.262498
0.2627
0.262689
0.262692
0.26271
0.262676
0.262679
0.262681
0.262686
0.262704
0.262582
0.262599
0.262589
0.262105
0.262281
0.26226
0.262411
0.262389
0.262298
0.262406
0.262406
0.262439
0.262059
0.261539
0.261684
0.259903
0.25997
0.261335
0.261782
0.261852
0.262194
0.262454
0.262406
0.262423
0.262245
0.262338
0.262355
0.262506
0.262547
0.262565
0.262369
0.262382
0.262301
0.262517
0.26252
0.262471
0.261811
0.262015
0.262
0.262105
0.262089
0.261865
0.262145
0.262146
0.262179
0.261015
0.259404
0.259348
0.25996
0.259904
0.261195
0.261223
0.259779
0.25984
0.259313
0.259295
0.26098
0.262203
0.262157
0.262173
0.261876
0.261877
0.261488
0.262267
0.262265
0.262219
0.260989
0.256376
0.255682
0.25911
0.258973
0.261124
0.261248
0.260072
0.260017
0.255465
0.254695
0.260885
0.261193
0.26023
0.260302
0.258572
0.258827
0.260709
0.261953
0.261904
0.261917
0.261608
0.261884
0.261897
0.261799
0.261813
0.261673
0.261475
0.261869
0.261873
0.26191
0.261923
0.261561
0.262015
0.262017
0.261969
0.261251
0.260105
0.260037
0.260396
0.260359
0.261244
0.26118
0.259361
0.259238
0.259962
0.25988
0.261238
0.26095
0.260042
0.260063
0.259216
0.25945
0.260985
0.261643
0.261768
0.261784
0.261697
0.261747
0.261606
0.26175
0.261741
0.261708
0.261114
0.25419
0.253593
0.252217
0.253679
0.261076
0.261228
0.260456
0.260428
0.260686
0.258506
0.258483
0.262741
0.262776
0.262778
0.262775
0.26279
0.262735
0.262845
0.262808
0.262794
0.262826
0.262813
0.262818
0.261635
0.261609
0.261538
0.261749
0.261679
0.261671
0.261672
0.261707
0.261706
0.261602
0.261695
0.26166
0.261763
0.261729
0.261614
0.254623
0.251429
0.251905
0.24834
0.249061
0.252954
0.261291
0.261363
0.261394
0.262825
0.262821
0.262834
0.262736
0.262755
0.262765
0.262791
0.262808
0.262865
0.262734
0.26279
0.262772
0.262782
0.26278
0.262745
0.261689
0.261851
0.261797
0.261919
0.261869
0.261698
0.261879
0.26188
0.261914
0.235826
0.222003
0.220751
0.228526
0.227263
0.240247
0.251598
0.247057
0.247645
0.261674
0.261639
0.261646
0.261496
0.261628
0.261679
0.261555
0.261609
0.261479
0.242601
0.230977
0.229788
0.23605
0.23527
0.245305
0.261343
0.261485
0.26152
0.261413
0.261449
0.261322
0.261468
0.261462
0.261426
0.26301
0.262943
0.262939
0.262951
0.262948
0.263013
0.262856
0.262925
0.26293
0.262887
0.262884
0.262863
0.263012
0.262946
0.262951
0.262939
0.262943
0.263009
0.262769
0.262735
0.262748
0.262799
0.262815
0.262837
0.262756
0.262768
0.262761
0.262805
0.2628
0.26278
0.258261
0.258684
0.260974
0.261264
0.260612
0.260643
0.256658
0.254436
0.254704
0.252347
0.252733
0.255446
0.256227
0.258948
0.258852
0.259104
0.259031
0.256431
0.260898
0.260103
0.26011
0.262562
0.26263
0.262659
0.262593
0.262344
0.262526
0.262478
0.262627
0.262587
0.262756
0.262744
0.26273
0.26275
0.262746
0.262764
0.262607
0.262593
0.26261
0.262643
0.262632
0.262619
0.260526
0.260625
0.261714
0.261561
0.260354
0.260437
0.262209
0.262259
0.262412
0.262339
0.262113
0.262161
0.262161
0.262176
0.261915
0.262413
0.262401
0.262384
0.262435
0.262418
0.26243
0.262349
0.262334
0.262317
0.262367
0.26235
0.262365
0.261877
0.262137
0.262148
0.262482
0.262496
0.262463
0.262544
0.262538
0.262521
0.262572
0.262555
0.262561
0.262479
0.26247
0.262453
0.262504
0.262487
0.262495
0.26238
0.262448
0.262465
0.259662
0.259636
0.26109
0.261124
0.259716
0.259688
0.259465
0.259511
0.261076
0.261022
0.259386
0.259423
0.261871
0.261877
0.261358
0.262163
0.262146
0.262131
0.262176
0.262161
0.262179
0.262102
0.262086
0.262071
0.262116
0.262101
0.262118
0.261321
0.261863
0.261866
0.262286
0.262269
0.262253
0.262301
0.262285
0.262302
0.262225
0.262207
0.262191
0.262238
0.262222
0.26224
0.258493
0.256614
0.261022
0.214099
0.232325
0.233681
0.222635
0.223787
0.201401
0.261101
0.258816
0.258655
0.260846
0.254358
0.253355
0.259745
0.259847
0.261087
0.260955
0.259453
0.259608
0.261858
0.261857
0.261498
0.262041
0.262026
0.262011
0.262056
0.262041
0.262056
0.261978
0.261966
0.261951
0.261996
0.261981
0.261994
0.261558
0.261857
0.261858
0.226189
0.209689
0.20858
0.219229
0.217417
0.23206
0.259593
0.259481
0.261196
0.226667
0.241928
0.24291
0.234781
0.235908
0.217555
0.234402
0.254289
0.254734
0.253301
0.253806
0.233108
0.26123
0.25979
0.259696
0.213336
0.193483
0.192515
0.207222
0.205307
0.222265
0.259985
0.260015
0.26096
0.253006
0.255746
0.255476
0.257302
0.257114
0.254881
0.255166
0.254833
0.251538
0.26098
0.259903
0.259946
0.245534
0.222022
0.219542
0.224976
0.222965
0.246014
0.246635
0.23761
0.236839
0.256657
0.249907
0.250943
0.254955
0.255194
0.257108
0.26131
0.261323
0.261247
0.261467
0.261395
0.261384
0.261369
0.261411
0.261375
0.261483
0.261447
0.261404
0.25034
0.250123
0.203064
0.259871
0.258107
0.258095
0.258161
0.258157
0.259954
0.261494
0.261555
0.261519
0.261625
0.26159
0.261509
0.261601
0.261601
0.261637
0.175054
0.169333
0.135701
0.243647
0.225295
0.220807
0.225657
0.225406
0.243562
0.25648
0.247113
0.245791
0.250706
0.252374
0.256728
0.117112
0.18966
0.205883
0.262917
0.26289
0.262887
0.262897
0.262895
0.26292
0.262838
0.262882
0.262873
0.262858
0.262855
0.262841
0.262918
0.262892
0.262896
0.262887
0.262888
0.262915
0.26249
0.262471
0.262431
0.262493
0.262486
0.262503
0.262451
0.262469
0.262476
0.262471
0.262374
0.262348
0.262168
0.262152
0.261922
0.262229
0.262211
0.262227
0.262179
0.262195
0.262213
0.262294
0.262277
0.262294
0.262244
0.26226
0.262277
0.261984
0.262203
0.262185
0.257707
0.257796
0.260346
0.260113
0.260114
0.260847
0.257989
0.25922
0.259167
0.259305
0.259266
0.258105
0.260308
0.254885
0.252279
0.254769
0.254849
0.260268
0.177179
0.234273
0.233719
0.262784
0.262804
0.262807
0.262795
0.262799
0.262779
0.26284
0.262819
0.262807
0.26254
0.262527
0.26256
0.262651
0.262668
0.262663
0.26268
0.262675
0.262657
0.262711
0.262692
0.262698
0.262611
0.262605
0.262588
0.26264
0.262623
0.262628
0.262608
0.262616
0.262634
0.262324
0.262302
0.262141
0.262359
0.262346
0.262363
0.262311
0.262328
0.262343
0.262426
0.262416
0.262434
0.262381
0.262398
0.262409
0.262256
0.262367
0.262345
0.261092
0.261326
0.26199
0.255585
0.259643
0.258957
0.260765
0.260351
0.257793
0.250954
0.257011
0.256901