/*--------------------------------*- C++ -*----------------------------------*\
| =========                 |                                                 |
| \\      /  F ield         | OpenFOAM: The Open Source CFD Toolbox           |
|  \\    /   O peration     | Version:  5.x                                   |
|   \\  /    A nd           | Web:      www.OpenFOAM.org                      |
|    \\/     M anipulation  |                                                 |
\*---------------------------------------------------------------------------*/
FoamFile
{
    version     2.0;
    format      ascii;
    class       volScalarField;
    location    "500";
    object      Y;
}
// * * * * * * * * * * * * * * * * * * * * * * * * * * * * * * * * * * * * * //

dimensions      [0 0 0 0 0 0 0];

internalField   nonuniform List<scalar> 
6584
(
0.00632781
0.00632781
0.00632781
0.00632781
0.00632781
0.00632781
0.00632781
0.00632782
0.00632782
0.00632782
0.00632782
0.00632782
0.00632782
0.00632782
0.00632782
0.00632782
0.00632782
0.00632781
0.00632781
0.00632781
0.00632781
0.00632781
0.00632781
0.00632781
0.00632561
0.00632561
0.00632561
0.00632562
0.00632562
0.00632562
0.00632562
0.00632563
0.00632563
0.00632563
0.00632563
0.00632563
0.00632564
0.00632564
0.00632563
0.00632563
0.00632563
0.00632563
0.00632562
0.00632562
0.00632562
0.00632561
0.00632561
0.00632561
0.00632341
0.00632342
0.00632342
0.00632342
0.00632342
0.00632342
0.00632343
0.00632344
0.00632345
0.00632454
0.00632454
0.00632454
0.00632454
0.00632454
0.00632454
0.00632345
0.00632344
0.00632344
0.00632343
0.00632343
0.00632342
0.00632342
0.00632342
0.00632341
0.00632122
0.00632122
0.00632122
0.00632122
0.00632123
0.00632123
0.00632124
0.00632125
0.00632126
0.00632235
0.00632235
0.00632234
0.00632234
0.00632235
0.00632235
0.00632235
0.00632125
0.00632124
0.00632124
0.00632123
0.00632123
0.00632123
0.00632122
0.00632122
0.00631902
0.00631902
0.00631903
0.00631903
0.00631903
0.00631904
0.00631904
0.00631904
0.00632015
0.00632015
0.00632014
0.00632013
0.00632013
0.00632014
0.00632015
0.00632016
0.00632016
0.00631906
0.00631905
0.00631904
0.00631904
0.00631903
0.00631903
0.00631903
0.00631683
0.00631683
0.00631683
0.00631684
0.00631684
0.00631685
0.00631685
0.00631794
0.00631794
0.00631793
0.00631847
0.00631845
0.00631844
0.00631847
0.00631795
0.00631797
0.00631797
0.00631689
0.00631687
0.00631686
0.00631685
0.00631684
0.00631684
0.00631683
0.00631464
0.00631464
0.00631464
0.00631465
0.00631465
0.00631466
0.00631467
0.00631576
0.00631575
0.00631573
0.00631622
0.00631644
0.00631641
0.00631621
0.00631631
0.0063158
0.00631581
0.00631473
0.00631469
0.00631468
0.00631466
0.00631465
0.00631465
0.00631464
0.00631244
0.00631245
0.00631245
0.00631246
0.00631247
0.00631248
0.0063125
0.00631358
0.00631357
0.00631357
0.00631401
0.00631411
0.00631421
0.00631414
0.00631366
0.00631365
0.00631257
0.00631252
0.0063125
0.00631248
0.00631247
0.00631246
0.00631245
0.00631025
0.00631026
0.00631026
0.00631027
0.00631028
0.0063103
0.00631033
0.00631141
0.00631141
0.00631144
0.00631187
0.00631197
0.00631212
0.00631206
0.00631156
0.00631153
0.00631043
0.00631036
0.00631033
0.0063103
0.00631028
0.00631027
0.00631026
0.00630806
0.00630807
0.00630808
0.00630809
0.0063081
0.00630813
0.00630816
0.00630925
0.00630927
0.00630933
0.00630979
0.00630997
0.00631021
0.00631004
0.00630948
0.00630941
0.00630828
0.0063082
0.00630815
0.00630812
0.0063081
0.00630808
0.00630807
0.00630587
0.00630588
0.00630589
0.0063059
0.00630592
0.00630595
0.006306
0.00630709
0.00630713
0.00630721
0.00630773
0.00630798
0.00630832
0.00630803
0.00630741
0.00630729
0.00630613
0.00630604
0.00630598
0.00630594
0.00630591
0.00630589
0.00630588
0.00630368
0.00630369
0.0063037
0.00630372
0.00630374
0.00630377
0.00630383
0.00630492
0.00630498
0.00630508
0.00630563
0.00630593
0.00630635
0.00630599
0.00630531
0.00630517
0.00630398
0.00630387
0.00630381
0.00630376
0.00630372
0.0063037
0.00630368
0.00630149
0.0063015
0.00630151
0.00630153
0.00630156
0.0063016
0.00630166
0.00630275
0.00630282
0.00630293
0.00630349
0.00630379
0.00630425
0.00630389
0.00630319
0.00630303
0.00630182
0.0063017
0.00630163
0.00630157
0.00630153
0.00630151
0.00630149
0.0062993
0.00629931
0.00629932
0.00629935
0.00629938
0.00629942
0.00629948
0.00629952
0.00630064
0.00630074
0.00630127
0.00630149
0.00516534
0.00630174
0.00630173
0.00630104
0.00630088
0.00629966
0.00629953
0.00629945
0.00629938
0.00629934
0.00629931
0.00629929
0.00629711
0.00629712
0.00629714
0.00629716
0.00629719
0.00629723
0.00629728
0.00629731
0.00629843
0.00629852
0.00629906
0.00629899
0.00599193
0.00629952
0.00629894
0.00629886
0.00629756
0.00629746
0.00629733
0.00629725
0.0062972
0.00629715
0.00629712
0.00629709
0.00629492
0.00629493
0.00629495
0.00629497
0.006295
0.00629504
0.00629509
0.00629511
0.00629623
0.00629633
0.00629633
0.00629676
0.00601509
0.00629676
0.00629675
0.00629667
0.00629537
0.00629527
0.00629514
0.00629505
0.00629499
0.00629494
0.00629491
0.00629489
0.00629272
0.00629274
0.00629276
0.00629278
0.00629281
0.00629285
0.00629289
0.00629293
0.00629299
0.00629415
0.00629414
0.00628975
0.00616024
0.00629456
0.00629455
0.00629448
0.00629318
0.00629308
0.00629294
0.00629285
0.00629279
0.00629273
0.0062927
0.00629267
0.00629053
0.00629055
0.00629056
0.00629059
0.00629062
0.00629065
0.0062907
0.00629075
0.00629081
0.00629086
0.00629195
0.006285
0.00616144
0.00629236
0.00629126
0.00629111
0.00629098
0.00629088
0.00629074
0.00629065
0.00629058
0.00629052
0.00629049
0.00629046
0.00628834
0.00628835
0.00628837
0.0062884
0.00628843
0.00628846
0.00628851
0.00628856
0.00628863
0.00628867
0.00628794
0.00613768
0.00622625
0.00628908
0.00628907
0.00628891
0.00628878
0.00628867
0.00628853
0.00628844
0.00628837
0.00628831
0.00628828
0.00628824
0.00628615
0.00628616
0.00628618
0.00628621
0.00628624
0.00628627
0.00628633
0.00628638
0.00628645
0.00628649
0.00628513
0.00613609
0.0062245
0.00628688
0.00628687
0.00628672
0.00628658
0.00628647
0.00628633
0.00628623
0.00628616
0.0062861
0.00628607
0.00628603
0.00628395
0.00628397
0.00628399
0.00628402
0.00628406
0.00628409
0.00628415
0.0062842
0.00628427
0.00628431
0.00628235
0.00613445
0.00622269
0.00628469
0.00628468
0.00628453
0.00628438
0.00628427
0.00628412
0.00628402
0.00628395
0.00628389
0.00628385
0.00628381
0.00628176
0.00628178
0.0062818
0.00628183
0.00628187
0.0062819
0.00628197
0.00628203
0.0062821
0.00628212
0.0062796
0.00613277
0.00622082
0.00628249
0.00628249
0.00628233
0.00628218
0.00628206
0.00628191
0.00628181
0.00628173
0.00628167
0.00628164
0.0062816
0.00627957
0.00627959
0.00627961
0.00627964
0.00627968
0.00627972
0.00627979
0.00627985
0.00627992
0.00627994
0.00627688
0.00613105
0.00621892
0.0062803
0.0062803
0.00628014
0.00627998
0.00627986
0.0062797
0.0062796
0.00627952
0.00627946
0.00627942
0.00627938
0.00627738
0.0062774
0.00627742
0.00627746
0.0062775
0.00627753
0.00627761
0.00627767
0.00627775
0.00627776
0.00627419
0.00612931
0.00621699
0.00627811
0.00627811
0.00627795
0.00627778
0.00627765
0.00627749
0.00627739
0.00627731
0.00627724
0.00627721
0.00627716
0.00627519
0.00627521
0.00627523
0.00627527
0.00627531
0.00627535
0.00627543
0.0062755
0.00627558
0.00627557
0.00627152
0.00612754
0.00621503
0.00627591
0.00627592
0.00627575
0.00627558
0.00627545
0.00627529
0.00627518
0.00627509
0.00627503
0.00627499
0.00627494
0.006273
0.00627302
0.00627304
0.00627308
0.00627312
0.00627317
0.00627325
0.00627332
0.00627341
0.00627339
0.00626882
0.00612579
0.00621308
0.00627372
0.00627373
0.00627356
0.00627338
0.00627325
0.00627308
0.00627297
0.00627288
0.00627281
0.00627277
0.00627272
0.00627081
0.00627083
0.00627085
0.00627089
0.00627094
0.00627099
0.00627107
0.00627115
0.00627124
0.0062712
0.00626609
0.00612406
0.00621114
0.00627154
0.00627155
0.00627137
0.00627118
0.00627104
0.00627087
0.00627076
0.00627067
0.0062706
0.00627056
0.00627051
0.00626862
0.00626864
0.00626867
0.0062687
0.00626876
0.0062688
0.00626889
0.00626897
0.00626907
0.00626902
0.00626338
0.00612232
0.0062092
0.00626935
0.00626937
0.00626919
0.00626899
0.00626884
0.00626867
0.00626855
0.00626846
0.00626839
0.00626834
0.00626829
0.00626643
0.00626645
0.00626648
0.00626652
0.00626657
0.00626662
0.00626672
0.0062668
0.00626691
0.00626683
0.00626069
0.00612056
0.00620724
0.00626717
0.00626718
0.006267
0.00626679
0.00626664
0.00626646
0.00626634
0.00626625
0.00626617
0.00626613
0.00626608
0.00626424
0.00626426
0.00626429
0.00626433
0.00626439
0.00626444
0.00626454
0.00626463
0.00626474
0.00626464
0.00625801
0.00611879
0.00620527
0.00626498
0.006265
0.00626481
0.0062646
0.00626444
0.00626426
0.00626413
0.00626403
0.00626396
0.00626391
0.00626387
0.00626205
0.00626207
0.0062621
0.00626215
0.0062622
0.00626226
0.00626237
0.00626246
0.00626257
0.00626246
0.00625534
0.00611702
0.00620329
0.0062628
0.00626282
0.00626263
0.0062624
0.00626224
0.00626205
0.00626192
0.00626182
0.00626175
0.0062617
0.00626165
0.00625986
0.00625989
0.00625992
0.00625996
0.00626002
0.00626009
0.0062602
0.00626029
0.00626041
0.00626027
0.00625268
0.00611524
0.00620131
0.00626061
0.00626064
0.00626044
0.00626021
0.00626004
0.00625984
0.00625971
0.00625961
0.00625953
0.00625948
0.00625943
0.00625768
0.0062577
0.00625773
0.00625778
0.00625784
0.00625791
0.00625802
0.00625812
0.00625824
0.00625808
0.00625003
0.00611346
0.00619933
0.00625843
0.00625846
0.00625825
0.00625801
0.00625784
0.00625764
0.0062575
0.0062574
0.00625732
0.00625726
0.00625722
0.00625549
0.00625551
0.00625555
0.00625559
0.00625566
0.00625573
0.00625585
0.00625595
0.00625608
0.00625588
0.00624738
0.00611167
0.00619734
0.00625624
0.00625627
0.00625606
0.00625582
0.00625564
0.00625543
0.00625529
0.00625518
0.0062551
0.00625505
0.006255
0.0062533
0.00625332
0.00625336
0.00625341
0.00625348
0.00625356
0.00625368
0.00625379
0.00625391
0.00625369
0.00624472
0.00610989
0.00619535
0.00625406
0.00625409
0.00625387
0.00625362
0.00625344
0.00625322
0.00625308
0.00625297
0.00625289
0.00625283
0.00625278
0.00625111
0.00625114
0.00625118
0.00625122
0.0062513
0.00625138
0.00625151
0.00625162
0.00625175
0.00625149
0.00624205
0.00610811
0.00619337
0.00625187
0.00625191
0.00625169
0.00625143
0.00625124
0.00625102
0.00625087
0.00625075
0.00625067
0.00625061
0.00625057
0.00631223
0.00631235
0.00631416
0.00631022
0.00631044
0.0063121
0.00630823
0.00630856
0.00631021
0.00630619
0.00630661
0.00630833
0.00630407
0.00630454
0.00630636
0.00630178
0.00507581
0.0051152
0.00630234
0.00630427
0.00631439
0.00631641
0.00631444
0.00631646
0.0063124
0.00631226
0.00631416
0.00631307
0.00631409
0.00631237
0.00631254
0.0063141
0.00631031
0.00631023
0.006312
0.00631121
0.00630945
0.00631162
0.006306
0.00631125
0.00631044
0.00631053
0.00631203
0.00630824
0.00630824
0.00630998
0.00630923
0.00630284
0.00630432
0.00624873
0.00628022
0.00630856
0.00630855
0.00631004
0.00630616
0.00630619
0.00630798
0.00630722
0.00630319
0.00630288
0.00629042
0.0062635
0.0063066
0.00630653
0.00630805
0.00630229
0.00630238
0.00630452
0.00630445
0.00630602
0.00630256
0.00630293
0.00629954
0.00539485
0.00508001
0.00575438
0.00630007
0.00630204
0.00631185
0.00631296
0.00631301
0.00631292
0.00631119
0.00631408
0.00631305
0.00631145
0.006313
0.00631309
0.00631298
0.00631187
0.00630477
0.00630893
0.00631096
0.00630403
0.00628834
0.00631067
0.00630487
0.00628242
0.00630574
0.00631115
0.00630834
0.00630199
0.00631174
0.00630853
0.00631138
0.00630283
0.00630279
0.00630898
0.00628478
0.00629119
0.00628768
0.00628449
0.00626245
0.00624712
0.00630927
0.00629883
0.00630028
0.00630185
0.00629902
0.00630951
0.00628793
0.00629336
0.00629166
0.00628702
0.0063021
0.00629195
0.00630736
0.00630371
0.00630519
0.00630037
0.00630351
0.0063076
0.00629765
0.0062991
0.00629398
0.00629732
0.00630293
0.00630246
0.00630517
0.00630483
0.00630559
0.00629963
0.0062966
0.00629923
0.00629964
0.00630161
0.00630246
0.00631328
0.0063131
0.00631413
0.00631323
0.00631397
0.00630403
0.00630405
0.00630593
0.00630514
0.00630336
0.00630346
0.00622438
0.00618263
0.00630232
0.00630231
0.00630392
0.006314
0.0063133
0.00631414
0.00631311
0.00631335
0.00630345
0.00630323
0.00630697
0.0050071
0.00521884
0.00589466
0.00599658
0.00523128
0.00548571
0.00617457
0.00609901
0.00630533
0.00630476
0.0063041
0.00600907
0.00607337
0.00630399
0.00630314
0.00630345
0.00631531
0.00631519
0.00631423
0.00631424
0.0063152
0.00631531
0.00631311
0.00631349
0.00631322
0.00631402
0.00631332
0.00631363
0.00630799
0.00630916
0.00626786
0.00626928
0.00628119
0.00627807
0.0063016
0.00609909
0.00630358
0.00625636
0.00622908
0.00623334
0.00625827
0.00630283
0.00629278
0.00631244
0.0062514
0.00630604
0.006239
0.00631222
0.00630758
0.00631325
0.00631348
0.00631292
0.00629839
0.00631234
0.00631244
0.006295
0.00629402
0.006309
0.00630858
0.00629219
0.00629342
0.00630283
0.0063107
0.00631107
0.00631021
0.00631057
0.00630273
0.00631046
0.0063117
0.00631208
0.0063112
0.00631157
0.00631002
0.00628791
0.00628827
0.0062845
0.00628424
0.00622552
0.00622873
0.00629724
0.00630884
0.00630918
0.00630839
0.00630873
0.00629716
0.00630082
0.00630974
0.00631009
0.00630929
0.00630963
0.00630066
0.0050257
0.00629051
0.00525524
0.00502011
0.0055296
0.00527076
0.00629126
0.0062831
0.00504395
0.00628407
0.00629913
0.00629844
0.00630185
0.00630794
0.00630828
0.00630748
0.00630783
0.00630221
0.00574142
0.00587323
0.00629564
0.00575563
0.00554856
0.00592997
0.00577925
0.00629611
0.00551207
0.00571964
0.00630285
0.00618444
0.00622853
0.00610783
0.00617558
0.00630279
0.00608052
0.00607111
0.00609323
0.0052547
0.00608072
0.00606231
0.00540447
0.00625668
0.00625891
0.00631382
0.00630185
0.00630179
0.00630378
0.00630297
0.00630233
0.00630306
0.00567384
0.0062981
0.00630059
0.00631382
0.00630287
0.00630332
0.00630488
0.00519041
0.00521889
0.00493174
0.00606695
0.00606471
0.00525994
0.00533393
0.00624773
0.00625615
0.00448885
0.00631459
0.00631464
0.0063141
0.00631408
0.00631464
0.0063146
0.00631058
0.0063115
0.00631111
0.00630633
0.00630504
0.00631034
0.00630317
0.00630945
0.00630908
0.00630994
0.00630957
0.00630338
0.00625822
0.00627605
0.00628653
0.00626604
0.00596061
0.00590059
0.00630277
0.0062609
0.00627804
0.00629028
0.00628966
0.00535335
0.00631363
0.00631341
0.00631405
0.00631184
0.00630819
0.00630585
0.00631257
0.00631272
0.00631312
0.0063122
0.00631259
0.00631243
0.00630638
0.00631046
0.00631007
0.00631098
0.00631059
0.00630697
0.00629999
0.00612749
0.0062316
0.00606353
0.00607765
0.00629055
0.00624223
0.00625361
0.00630667
0.00628638
0.00629778
0.00630522
0.00631044
0.0063106
0.0063094
0.00630964
0.00630232
0.00630896
0.0063086
0.00630274
0.00628635
0.00603759
0.00598228
0.00628601
0.00604314
0.00605967
0.00597212
0.00598021
0.00628395
0.00624765
0.006236
0.0062979
0.00630827
0.0063084
0.00630747
0.00630794
0.00629909
0.00630145
0.00630912
0.00630933
0.00630845
0.00630859
0.00629981
0.00630105
0.00622856
0.00624487
0.00620673
0.00619761
0.00629518
0.00630519
0.00630701
0.00630736
0.00630652
0.00630689
0.0063052
0.00629843
0.00603636
0.00594605
0.00613089
0.00610341
0.00629863
0.00555474
0.00559235
0.00629951
0.00616167
0.00613945
0.00550851
0.00554366
0.00603513
0.00597656
0.00631357
0.00631382
0.00631368
0.00589669
0.00620896
0.00592454
0.00595832
0.00594379
0.00620358
0.00631372
0.00631357
0.00631389
0.00631335
0.00631362
0.00503552
0.00510378
0.00522298
0.00519963
0.00594317
0.00533755
0.00531062
0.00541127
0.005346
0.00595631
0.00529865
0.00534758
0.0061465
0.00613377
0.00604098
0.00551704
0.00544676
0.0053428
0.00538357
0.00631269
0.00631318
0.00631344
0.00631275
0.00631309
0.00631248
0.00630648
0.00631014
0.00625977
0.00627458
0.00628558
0.00626772
0.00611666
0.00625254
0.00624077
0.00626489
0.00625624
0.00611324
0.00621378
0.00620259
0.00623708
0.00622008
0.00624675
0.00605143
0.00608917
0.00598408
0.00603298
0.00624273
0.00586856
0.00588522
0.00627868
0.00631082
0.0063089
0.00631259
0.00631137
0.00628564
0.00629652
0.00629195
0.00630742
0.0062984
0.00631209
0.00631316
0.00631277
0.0063115
0.00631016
0.00631106
0.00630867
0.00631197
0.00630944
0.00631192
0.00631261
0.00630992
0.00631164
0.0063127
0.00631216
0.00631127
0.00609672
0.00611262
0.00629848
0.00594649
0.00588016
0.00613964
0.00595976
0.00578703
0.00572782
0.00586019
0.00581376
0.00629139
0.0060828
0.00609301
0.00622948
0.00620735
0.00628949
0.006248
0.00618298
0.00616185
0.00620347
0.0061886
0.00630718
0.00625625
0.00626375
0.00628772
0.00629709
0.00631006
0.00631034
0.00630394
0.00630244
0.00630972
0.00630997
0.00605385
0.0060473
0.00628681
0.0056723
0.00567619
0.00541249
0.00564022
0.00565617
0.00573593
0.0056713
0.00565713
0.00601905
0.00603774
0.00628555
0.00563384
0.00557326
0.00571447
0.00565219
0.00545781
0.00539859
0.00554942
0.00548713
0.00628404
0.00598964
0.00601155
0.00623745
0.00623326
0.00630811
0.00630823
0.00629771
0.00629831
0.00630797
0.00630807
0.00630886
0.00630905
0.00630131
0.00629999
0.00630864
0.00630881
0.0050515
0.00512536
0.00607043
0.00610627
0.00602294
0.00605761
0.00504526
0.00542763
0.00615358
0.00609639
0.00611604
0.00614468
0.00537374
0.00586296
0.00588471
0.00578181
0.00585478
0.00511413
0.00597585
0.0060132
0.00589647
0.00595618
0.00511368
0.00621431
0.00622455
0.00630065
0.0061715
0.00619191
0.00619736
0.00617046
0.00619168
0.00629596
0.00619142
0.00620568
0.00579597
0.00517608
0.00517858
0.00528944
0.00518498
0.0058149
0.00522451
0.00559082
0.00517957
0.00562529
0.00614317
0.00627467
0.00626755
0.00628314
0.00627705
0.00614903
0.0060509
0.00606182
0.00560946
0.00565063
0.00541184
0.00549334
0.00607659
0.00604884
0.00631449
0.00631463
0.00631627
0.00630318
0.00630294
0.00630208
0.00631427
0.00631431
0.00631396
0.00631391
0.00631429
0.00631428
0.0063153
0.00631525
0.0063143
0.00631202
0.00631163
0.00631088
0.00630612
0.00629831
0.00629723
0.00625118
0.00627879
0.00630799
0.00630762
0.00630299
0.00622904
0.00622369
0.00626424
0.00624849
0.00625686
0.00630301
0.00631239
0.00631255
0.00631215
0.00630327
0.00630614
0.00631159
0.00631278
0.00631235
0.00631278
0.00631036
0.00628798
0.00630196
0.00628374
0.0062961
0.0062947
0.006305
0.00630631
0.00630639
0.00630211
0.0063108
0.00631097
0.00630892
0.00630275
0.00630847
0.00630811
0.00608113
0.00605852
0.0062898
0.00626053
0.00623601
0.00623413
0.00624551
0.00629865
0.0063052
0.00630524
0.00630172
0.00630614
0.00630622
0.00630528
0.00630532
0.00629923
0.00628127
0.00611582
0.0060925
0.0063006
0.00630732
0.0063074
0.00630507
0.00630601
0.00630638
0.00522876
0.00522949
0.00618505
0.00616825
0.00629956
0.0052297
0.00522883
0.00627963
0.00628323
0.00630216
0.00631333
0.00631326
0.004994
0.00502483
0.00503915
0.00520131
0.00524471
0.00499489
0.0050094
0.00520563
0.00517006
0.00545061
0.00604308
0.00603218
0.00611069
0.00557648
0.0055302
0.00604977
0.00631472
0.00631467
0.00631412
0.00631283
0.00631301
0.00631318
0.0063133
0.00631205
0.00631227
0.00631352
0.00631378
0.00631363
0.00630366
0.00630311
0.00630716
0.00630969
0.00630776
0.00630672
0.00626397
0.00627071
0.00624187
0.0062458
0.00628323
0.00627418
0.00622504
0.0062339
0.00613018
0.00613221
0.00617751
0.00617116
0.00609928
0.00613661
0.00614142
0.00630318
0.00626019
0.00626929
0.0062877
0.00626473
0.0062958
0.00629208
0.00631023
0.00630879
0.00630274
0.00618726
0.0061687
0.00628252
0.00625483
0.00621558
0.0063134
0.00631324
0.0063126
0.00631252
0.00631112
0.00631188
0.00630277
0.00631086
0.00631159
0.00626626
0.00627965
0.00631009
0.00614496
0.00612262
0.00629095
0.00629463
0.00631151
0.00631167
0.00631108
0.00630907
0.00631114
0.00631132
0.00628942
0.00605593
0.00605349
0.00622543
0.00623022
0.00630571
0.00630578
0.00630097
0.0063004
0.00630559
0.00630565
0.00504387
0.00523582
0.00558526
0.00560733
0.00535208
0.00537026
0.0049987
0.00613251
0.00612021
0.00628218
0.00511553
0.00508594
0.00526778
0.00527063
0.00506905
0.00533252
0.00534154
0.00506335
0.00506979
0.00630719
0.00630725
0.00630078
0.00630283
0.00630704
0.00630712
0.0056555
0.00613453
0.00614657
0.00610921
0.00612185
0.00562034
0.00620483
0.00627914
0.00628479
0.00628338
0.00628138
0.00621163
0.00612238
0.00619428
0.00618568
0.00606048
0.00604701
0.00608224
0.00529446
0.0053168
0.00532771
0.00523803
0.00610032
0.00566397
0.00559896
0.00572027
0.00567986
0.00605285
0.00588157
0.00588575
0.00609942
0.00613152
0.00626518
0.00631374
0.00631383
0.00631362
0.00518437
0.00519101
0.00560711
0.00560408
0.00489181
0.0053001
0.00523721
0.00523263
0.00522804
0.00523404
0.00532167
0.00450833
0.00606801
0.00607625
0.00631437
0.00631432
0.00631396
0.00630037
0.00629936
0.00630622
0.00630309
0.00630646
0.00630882
0.00630537
0.00630601
0.00625509
0.0062774
0.00620383
0.00620985
0.00620968
0.00620338
0.006265
0.00621978
0.00621741
0.00594698
0.00585776
0.00585695
0.00586863
0.0058667
0.0059299
0.0063076
0.00631008
0.00631024
0.00630961
0.00630993
0.00630695
0.00628504
0.00630299
0.00629337
0.00629009
0.00630222
0.00630647
0.00630656
0.00623565
0.00623693
0.00625647
0.00623997
0.00630513
0.00630516
0.00629824
0.00630599
0.00630606
0.00630159
0.00629955
0.00630537
0.00630542
0.00620756
0.00622765
0.0062191
0.00623479
0.00623211
0.00620584
0.00523173
0.00523833
0.00523597
0.00523173
0.00552096
0.00535159
0.00534237
0.00588558
0.0058842
0.0060172
0.00590699
0.00593075
0.00586407
0.00588261
0.00599645
0.0063135
0.00631342
0.00631347
0.00631346
0.00631375
0.00631378
0.00631388
0.00631359
0.00631367
0.00631365
0.00591802
0.00607011
0.00606035
0.00609723
0.00608317
0.00592999
0.00598028
0.00602459
0.00600514
0.00605251
0.00604245
0.00596521
0.00631365
0.00631372
0.00631362
0.00631283
0.0063123
0.00631344
0.00631331
0.00499599
0.00516843
0.00504807
0.0050424
0.0052169
0.00520878
0.00549143
0.00550898
0.00532241
0.00499575
0.00498561
0.00526488
0.00507845
0.0050765
0.00506937
0.00540257
0.00510568
0.00503889
0.00605512
0.00607321
0.00615765
0.00601023
0.00601501
0.00599697
0.00600071
0.00612138
0.00602812
0.00603618
0.00535173
0.00521551
0.00522145
0.0052171
0.00521257
0.00536401
0.00631296
0.00631306
0.00631285
0.00631198
0.00631243
0.00631282
0.00629916
0.00630672
0.00630234
0.00630136
0.00630356
0.00630439
0.00630165
0.00630266
0.00626136
0.00627221
0.00621649
0.00621852
0.00621205
0.00621437
0.00628456
0.00624789
0.00624934
0.00621693
0.00621978
0.00627045
0.00621856
0.0061471
0.00613427
0.00610583
0.00616583
0.00615898
0.00620915
0.00614695
0.00614526
0.00616623
0.00615521
0.00620586
0.0062327
0.00617681
0.00618348
0.00615233
0.00616511
0.00622686
0.00614286
0.00600023
0.00611962
0.00610969
0.00585808
0.00586707
0.00627578
0.00629894
0.0062974
0.00627176
0.00629156
0.0063049
0.00630135
0.00621711
0.00620174
0.00626552
0.00626906
0.00629361
0.0062476
0.00623289
0.00630711
0.00630899
0.00631203
0.00631032
0.00630459
0.00629692
0.00630423
0.00631065
0.00631152
0.00631176
0.0063105
0.00631093
0.00630902
0.00630673
0.00630886
0.00631213
0.00631145
0.00631101
0.0063123
0.00631166
0.00631235
0.00631034
0.0063106
0.00630962
0.00631078
0.00592973
0.00590327
0.00608804
0.00585377
0.0058778
0.0058032
0.00597204
0.00576401
0.00574434
0.0058432
0.00582917
0.00621824
0.00611596
0.00614017
0.00606864
0.00609126
0.00621183
0.00628481
0.00624825
0.0062597
0.00615481
0.00622151
0.00627341
0.00610155
0.00606029
0.00617742
0.00593585
0.00595508
0.00590462
0.00591984
0.00617128
0.0061996
0.00603223
0.006049
0.00597746
0.00600324
0.00619426
0.00628971
0.00629612
0.00568263
0.00544131
0.00547475
0.00537287
0.00540537
0.00568085
0.00547354
0.00549046
0.0054874
0.00556235
0.00566789
0.00519828
0.00522938
0.00525828
0.0052027
0.00569434
0.00566653
0.00531659
0.00534337
0.00526434
0.00529259
0.00566185
0.00561909
0.00560131
0.00570031
0.00567427
0.00543223
0.00540957
0.00552949
0.00551328
0.00622999
0.00623167
0.00630113
0.00630584
0.00630592
0.00630547
0.00630553
0.00630016
0.00505623
0.00550732
0.00555358
0.0051993
0.00499913
0.00540313
0.00545248
0.00517851
0.00514612
0.00586953
0.00546928
0.0054715
0.00581902
0.00542401
0.00534536
0.0054706
0.0054584
0.00584192
0.00525078
0.00521316
0.00528003
0.00531597
0.00509482
0.00511729
0.00520265
0.00621888
0.00625932
0.00625607
0.00626408
0.00626178
0.00622172
0.00617838
0.00618785
0.00618757
0.00617045
0.00617005
0.00617691
0.00619051
0.00624112
0.00623742
0.00625153
0.00624615
0.00619635
0.00517495
0.00531392
0.00533055
0.00528763
0.00530099
0.00517667
0.00525017
0.00543152
0.00546646
0.00535588
0.00539161
0.00521087
0.00521681
0.00507292
0.00509405
0.00507158
0.00506876
0.0051778
0.00524046
0.00526974
0.00513754
0.00518883
0.00516789
0.00620728
0.00620168
0.00613564
0.00604935
0.00607451
0.00525582
0.00528582
0.00544383
0.00527448
0.00523851
0.00533034
0.00531038
0.00547242
0.00524327
0.00524076
0.00588121
0.00588058
0.00631903
0.00631903
0.00632014
0.00631901
0.00631901
0.00632013
0.00631901
0.00631901
0.00632013
0.00631903
0.00631905
0.00632015
0.00631682
0.0063168
0.00631792
0.00631678
0.00631676
0.00631847
0.00631674
0.00631671
0.00631844
0.00631671
0.00631675
0.00631845
0.00631678
0.00631682
0.00631849
0.00631686
0.00631687
0.00631796
0.00631465
0.0063146
0.00631625
0.00631456
0.00631445
0.00631618
0.00631556
0.00631553
0.00631644
0.00631548
0.00631551
0.00631641
0.00631564
0.00631567
0.00631622
0.00631468
0.00631473
0.0063158
0.0063125
0.00631244
0.00631405
0.00631347
0.00631345
0.006314
0.00631382
0.0063138
0.00631408
0.0063134
0.00631351
0.00631431
0.00631257
0.00631264
0.00631368
0.00631038
0.00631034
0.00631191
0.00631135
0.00631135
0.00631187
0.00631171
0.00631171
0.00631197
0.00631139
0.00631148
0.00631223
0.00631054
0.00631058
0.0063116
0.00630827
0.00630826
0.00630982
0.00630928
0.0063093
0.00630981
0.00630972
0.00630972
0.00630997
0.0063095
0.00630953
0.00631026
0.00630854
0.00630852
0.00630955
0.00630615
0.00630616
0.00630774
0.00630721
0.00630724
0.00630776
0.00630773
0.00630774
0.00630799
0.00630759
0.00630757
0.00630831
0.00630651
0.00630646
0.00630749
0.00630401
0.00630403
0.00630563
0.00630567
0.00630568
0.00630594
0.00630558
0.00630551
0.00630628
0.00630442
0.00630436
0.00630541
0.00630185
0.00630186
0.00630349
0.00630343
0.00630343
0.00630396
0.00630227
0.00630223
0.0063033
0.00629962
0.00629958
0.00630069
0.00629961
0.00629956
0.00630122
0.00630065
0.0062997
0.00630053
0.0053093
0.00622787
0.00623349
0.00630008
0.00630012
0.00630177
0.00630005
0.00630006
0.00630115
0.00629743
0.0062974
0.00629849
0.00629742
0.00629735
0.00629901
0.00629732
0.00570301
0.00568879
0.0060099
0.00629783
0.00629951
0.00629785
0.00629791
0.00629954
0.00629784
0.00629786
0.00629896
0.00629523
0.00629518
0.00629629
0.0062924
0.00598391
0.0057071
0.00615942
0.00629546
0.00629726
0.00629566
0.00629571
0.00629681
0.00631222
0.00631248
0.00631248
0.00631259
0.00631268
0.00631228
0.00631414
0.00631387
0.00631388
0.00631021
0.00631046
0.00631046
0.00631068
0.00631067
0.00631031
0.00631215
0.00631177
0.00631186
0.00630824
0.00630849
0.00630848
0.0063088
0.00630882
0.00630847
0.00631019
0.00630985
0.00630998
0.0063062
0.00630646
0.00630645
0.00630686
0.00630693
0.00630656
0.00630836
0.00630801
0.00630809
0.0063048
0.00630478
0.00630452
0.00630631
0.00630606
0.0063061
0.00630081
0.00630207
0.00630268
0.00489181
0.00552922
0.00553505
0.00585671
0.00585797
0.00452581
0.00630425
0.00630398
0.006304
0.00631428
0.00631523
0.00631526
0.006314
0.006314
0.00631391
0.00631641
0.0063155
0.00631547
0.00631399
0.00631401
0.00631472
0.0063147
0.00631441
0.00631645
0.00631555
0.00631558
0.00631239
0.00631292
0.00631293
0.00631306
0.0063129
0.00631238
0.00631397
0.00631343
0.00631333
0.00631321
0.00631317
0.00631289
0.00631406
0.0063139
0.00631393
0.00631248
0.00631325
0.00631313
0.00631305
0.00631306
0.00631255
0.00631409
0.00631357
0.00631357
0.00631032
0.00631083
0.00631083
0.00631098
0.00631084
0.00631033
0.00631186
0.00631135
0.00631124
0.00631121
0.00631146
0.00631146
0.00630987
0.00631084
0.00631064
0.00631188
0.00631172
0.0063114
0.00631045
0.00630958
0.00631093
0.0063105
0.00631123
0.00631115
0.00631103
0.00631106
0.00631057
0.00631205
0.00631155
0.00631153
0.00630827
0.00630879
0.00630876
0.00630899
0.00630881
0.0063083
0.00630982
0.00630932
0.00630924
0.00630923
0.00630948
0.00630947
0.00630292
0.00630771
0.0063076
0.00630858
0.0063084
0.00630394
0.00630856
0.00630929
0.00630927
0.00630904
0.0063091
0.00630861
0.00631008
0.00630959
0.00630954
0.0063062
0.00630672
0.00630668
0.00630697
0.00630676
0.00630623
0.00630779
0.00630727
0.00630722
0.00630723
0.00630749
0.00630748
0.00630304
0.0063075
0.00630713
0.00630676
0.00630668
0.00630291
0.00628891
0.00625583
0.00626019
0.00630655
0.00630731
0.00630735
0.00630704
0.00630711
0.0063066
0.00630811
0.00630761
0.00630755
0.00630209
0.00628028
0.00628522
0.00629421
0.00629506
0.00630261
0.00630449
0.00630501
0.00630532
0.00630498
0.00630505
0.00630452
0.00630609
0.00630557
0.0063055
0.00630263
0.00630021
0.00630032
0.00629883
0.00629916
0.0063029
0.00629898
0.00629942
0.0063001
0.00536315
0.00628936
0.00628794
0.00606689
0.00607017
0.00510472
0.0062973
0.0062979
0.00569548
0.00630063
0.00630055
0.00629985
0.00630179
0.00630083
0.00630119
0.00631205
0.00631218
0.00631203
0.00631308
0.00631268
0.00631254
0.00631274
0.00631274
0.006313
0.00631277
0.00631234
0.00631288
0.00631392
0.0063139
0.00631405
0.006313
0.00631316
0.00631319
0.00631159
0.00631103
0.00631083
0.00631298
0.0063129
0.00631293
0.00631307
0.00631282
0.00631283
0.00631285
0.00631289
0.00631302
0.00631209
0.00631222
0.0063121
0.00630527
0.006309
0.00630878
0.00631043
0.00631019
0.00630828
0.00631071
0.00631071
0.00631096
0.00630294
0.00629136
0.0062945
0.0062582
0.00625942
0.00628902
0.00629654
0.00629798
0.00630554
0.00631115
0.00631079
0.00631091
0.00630799
0.00630949
0.0063097
0.00631123
0.00631181
0.00631195
0.00630986
0.00630998
0.00630867
0.00631162
0.00631164
0.00631127
0.00630279
0.00630693
0.00630685
0.0063075
0.0063074
0.00630277
0.00630873
0.00630874
0.00630898
0.00628533
0.00625178
0.00625038
0.00626591
0.00626463
0.0062907
0.00628709
0.00625599
0.00625707
0.00624939
0.00624876
0.00628414
0.00630927
0.00630893
0.00630904
0.00630564
0.00630558
0.0063001
0.00630974
0.00630973
0.00630939
0.00628883
0.00619943
0.00618511
0.0062544
0.00625136