/*--------------------------------*- C++ -*----------------------------------*\
| =========                 |                                                 |
| \\      /  F ield         | OpenFOAM: The Open Source CFD Toolbox           |
|  \\    /   O peration     | Version:  5.x                                   |
|   \\  /    A nd           | Web:      www.OpenFOAM.org                      |
|    \\/     M anipulation  |                                                 |
\*---------------------------------------------------------------------------*/
FoamFile
{
    version     2.0;
    format      ascii;
    class       volScalarField;
    location    "500";
    object      YSat;
}
// * * * * * * * * * * * * * * * * * * * * * * * * * * * * * * * * * * * * * //

dimensions      [0 0 0 0 0 0 0];

internalField   nonuniform List<scalar> 
6584
(
0.00431405
0.00431405
0.00431405
0.00431405
0.00431405
0.00431405
0.00431405
0.00431405
0.00431405
0.00431405
0.00431405
0.00431405
0.00431405
0.00431405
0.00431405
0.00431405
0.00431405
0.00431405
0.00431405
0.00431405
0.00431405
0.00431405
0.00431405
0.00431405
0.00431405
0.00431405
0.00431405
0.00431405
0.00431405
0.00431405
0.00431405
0.00431405
0.00431405
0.00431405
0.00431405
0.00431405
0.00431405
0.00431405
0.00431405
0.00431405
0.00431405
0.00431405
0.00431405
0.00431405
0.00431405
0.00431405
0.00431405
0.00431405
0.00431405
0.00431405
0.00431405
0.00431405
0.00431405
0.00431405
0.00431405
0.00431405
0.00431405
0.00431405
0.00431405
0.00431405
0.00431405
0.00431405
0.00431405
0.00431405
0.00431405
0.00431405
0.00431405
0.00431405
0.00431405
0.00431405
0.00431405
0.00431405
0.00431405
0.00431405
0.00431405
0.00431405
0.00431405
0.00431405
0.00431405
0.00431405
0.00431405
0.00431405
0.00431405
0.00431405
0.00431405
0.00431405
0.00431405
0.00431405
0.00431405
0.00431405
0.00431405
0.00431405
0.00431405
0.00431405
0.00431405
0.00431405
0.00431405
0.00431405
0.00431405
0.00431405
0.00431405
0.00431405
0.00431405
0.00431405
0.00431405
0.00431405
0.00431405
0.00431405
0.00431405
0.00431405
0.00431405
0.00431405
0.00431405
0.00431405
0.00431405
0.00431405
0.00431405
0.00431405
0.00431405
0.00431405
0.00431405
0.00431405
0.00431405
0.00431405
0.00431405
0.00431405
0.00431405
0.00431405
0.00431405
0.00431405
0.00431405
0.00431405
0.00431405
0.00431405
0.00431405
0.00431405
0.00431405
0.00431405
0.00431405
0.00431405
0.00431405
0.00431405
0.00431405
0.00431405
0.00431405
0.00431405
0.00431405
0.00431405
0.00431405
0.00431405
0.00431405
0.00431405
0.00431405
0.00431405
0.00431405
0.00431405
0.00431405
0.00431405
0.00431405
0.00431405
0.00431405
0.00431405
0.00431405
0.00431405
0.00431405
0.00431405
0.00431405
0.00431405
0.00431405
0.00431405
0.00431405
0.00431405
0.00431405
0.00431405
0.00431405
0.00431405
0.00431405
0.00431405
0.00431405
0.00431405
0.00431405
0.00431405
0.00431405
0.00431405
0.00431405
0.00431405
0.00431405
0.00431405
0.00431405
0.00431405
0.00431405
0.00431405
0.00431405
0.00431405
0.00431405
0.00431405
0.00431405
0.00431405
0.00431405
0.00431405
0.00431405
0.00431405
0.00431405
0.00431405
0.00431405
0.00431405
0.00431405
0.00431405
0.00431405
0.00431405
0.00431405
0.00431405
0.00431405
0.00431405
0.00431405
0.00431405
0.00431405
0.00431405
0.00431405
0.00431405
0.00431405
0.00431405
0.00431405
0.00431405
0.00431405
0.00431405
0.00431405
0.00431405
0.00431405
0.00431405
0.00431405
0.00431405
0.00431405
0.00431405
0.00431405
0.00431405
0.00431405
0.00431405
0.00431405
0.00431405
0.00431405
0.00431405
0.00431405
0.00431405
0.00431405
0.00431405
0.00431405
0.00431405
0.00431405
0.00431405
0.00431405
0.00431405
0.00431405
0.00431405
0.00431405
0.00431405
0.00431405
0.00431405
0.00431405
0.00431405
0.00431405
0.00431405
0.00431405
0.00431405
0.00431405
0.00431405
0.00431405
0.00431405
0.00431405
0.00431405
0.00431405
0.00431405
0.00431405
0.00431405
0.00431405
0.00431405
0.00431405
0.00431405
0.00431405
0.00431405
0.00431405
0.00431405
0.00431405
0.00431405
0.00431405
0.00431405
0.00431405
0.00431405
0.00431405
0.00431405
0.00431405
0.00431405
0.00431405
0.00431405
0.00431405
0.00431405
0.00431405
0.00431405
0.00431405
0.00431405
0.00431405
0.00431405
0.00431405
0.00431405
0.00431405
0.00431405
0.00431405
0.00431405
0.00431405
0.00431405
0.00431405
0.00431405
0.00431405
0.00431405
0.00431405
0.00431405
0.00431405
0.00431405
0.00368908
0.00431405
0.00431405
0.00431405
0.00431405
0.00431405
0.00431405
0.00431405
0.00431405
0.00431405
0.00431405
0.00431405
0.00431405
0.00431405
0.00431405
0.00431405
0.00431405
0.00431405
0.00431405
0.00431405
0.00431405
0.00431405
0.00431405
0.00431405
0.00413469
0.00431405
0.00431405
0.00431405
0.00431405
0.00431405
0.00431405
0.00431405
0.00431405
0.00431405
0.00431405
0.00431405
0.00431405
0.00431405
0.00431405
0.00431405
0.00431405
0.00431405
0.00431405
0.00431405
0.00431405
0.00431405
0.00431405
0.00431403
0.00414891
0.00431405
0.00431405
0.00431405
0.00431405
0.00431405
0.00431405
0.00431405
0.00431405
0.00431405
0.00431405
0.00431405
0.00431405
0.00431405
0.00431405
0.00431405
0.00431405
0.00431405
0.00431405
0.00431405
0.00431405
0.00431405
0.00431405
0.00431155
0.00423469
0.00431405
0.00431405
0.00431405
0.00431405
0.00431405
0.00431405
0.00431405
0.00431405
0.00431405
0.00431405
0.00431405
0.00431405
0.00431405
0.00431405
0.00431405
0.00431405
0.00431405
0.00431405
0.00431405
0.00431405
0.00431405
0.00431405
0.00431004
0.00423664
0.00431405
0.00431405
0.00431405
0.00431405
0.00431405
0.00431405
0.00431405
0.00431405
0.00431405
0.00431405
0.00431405
0.00431405
0.00431405
0.00431405
0.00431405
0.00431405
0.00431405
0.00431405
0.00431405
0.00431405
0.00431405
0.00431362
0.00422585
0.00427678
0.00431404
0.00431405
0.00431405
0.00431405
0.00431405
0.00431405
0.00431405
0.00431405
0.00431405
0.00431405
0.00431405
0.00431405
0.00431405
0.00431405
0.00431405
0.00431405
0.00431405
0.00431405
0.00431405
0.00431405
0.00431404
0.00431325
0.00422612
0.00427703
0.00431404
0.00431405
0.00431405
0.00431405
0.00431405
0.00431405
0.00431405
0.00431405
0.00431405
0.00431405
0.00431405
0.00431405
0.00431405
0.00431405
0.00431405
0.00431405
0.00431405
0.00431405
0.00431405
0.00431405
0.00431404
0.00431289
0.00422636
0.00427726
0.00431403
0.00431405
0.00431405
0.00431405
0.00431405
0.00431405
0.00431405
0.00431405
0.00431405
0.00431405
0.00431405
0.00431405
0.00431405
0.00431405
0.00431405
0.00431405
0.00431405
0.00431405
0.00431405
0.00431405
0.00431404
0.00431255
0.00422658
0.00427745
0.00431403
0.00431405
0.00431405
0.00431405
0.00431405
0.00431405
0.00431405
0.00431405
0.00431405
0.00431405
0.00431405
0.00431405
0.00431405
0.00431405
0.00431405
0.00431405
0.00431405
0.00431405
0.00431405
0.00431405
0.00431403
0.00431222
0.00422678
0.00427761
0.00431403
0.00431405
0.00431405
0.00431405
0.00431405
0.00431405
0.00431405
0.00431405
0.00431405
0.00431405
0.00431405
0.00431405
0.00431405
0.00431405
0.00431405
0.00431405
0.00431405
0.00431405
0.00431405
0.00431405
0.00431402
0.00431191
0.00422696
0.00427776
0.00431402
0.00431405
0.00431405
0.00431405
0.00431405
0.00431405
0.00431405
0.00431405
0.00431405
0.00431405
0.00431405
0.00431405
0.00431405
0.00431405
0.00431405
0.00431405
0.00431405
0.00431405
0.00431405
0.00431405
0.00431401
0.00431162
0.00422712
0.0042779
0.00431402
0.00431405
0.00431405
0.00431405
0.00431405
0.00431405
0.00431405
0.00431405
0.00431405
0.00431405
0.00431405
0.00431405
0.00431405
0.00431405
0.00431405
0.00431405
0.00431405
0.00431405
0.00431405
0.00431405
0.004314
0.0043113
0.00422729
0.00427803
0.00431401
0.00431405
0.00431405
0.00431405
0.00431405
0.00431405
0.00431405
0.00431405
0.00431405
0.00431405
0.00431405
0.00431405
0.00431405
0.00431405
0.00431405
0.00431405
0.00431405
0.00431405
0.00431405
0.00431405
0.00431399
0.00431096
0.00422748
0.00427818
0.00431401
0.00431405
0.00431405
0.00431405
0.00431405
0.00431405
0.00431405
0.00431405
0.00431405
0.00431405
0.00431405
0.00431405
0.00431405
0.00431405
0.00431405
0.00431405
0.00431405
0.00431405
0.00431405
0.00431405
0.00431398
0.00431063
0.00422765
0.00427831
0.004314
0.00431405
0.00431405
0.00431405
0.00431405
0.00431405
0.00431405
0.00431405
0.00431405
0.00431405
0.00431405
0.00431405
0.00431405
0.00431405
0.00431405
0.00431405
0.00431405
0.00431405
0.00431405
0.00431405
0.00431397
0.00431032
0.00422782
0.00427844
0.004314
0.00431405
0.00431405
0.00431405
0.00431405
0.00431405
0.00431405
0.00431405
0.00431405
0.00431405
0.00431405
0.00431405
0.00431405
0.00431405
0.00431405
0.00431405
0.00431405
0.00431405
0.00431405
0.00431405
0.00431395
0.00431001
0.00422798
0.00427857
0.00431399
0.00431405
0.00431405
0.00431405
0.00431405
0.00431405
0.00431405
0.00431405
0.00431405
0.00431405
0.00431405
0.00431405
0.00431405
0.00431405
0.00431405
0.00431405
0.00431405
0.00431405
0.00431405
0.00431405
0.00431394
0.00430971
0.00422814
0.00427869
0.00431399
0.00431405
0.00431405
0.00431405
0.00431405
0.00431405
0.00431405
0.00431405
0.00431405
0.00431405
0.00431405
0.00431405
0.00431405
0.00431405
0.00431405
0.00431405
0.00431405
0.00431405
0.00431405
0.00431405
0.00431392
0.00430941
0.0042283
0.0042788
0.00431399
0.00431405
0.00431405
0.00431405
0.00431405
0.00431405
0.00431405
0.00431405
0.00431405
0.00431405
0.00431405
0.00431405
0.00431405
0.00431405
0.00431405
0.00431405
0.00431405
0.00431405
0.00431405
0.00431405
0.0043139
0.00430912
0.00422845
0.00427892
0.00431398
0.00431405
0.00431405
0.00431405
0.00431405
0.00431405
0.00431405
0.00431405
0.00431405
0.00431405
0.00431405
0.00431405
0.00431405
0.00431405
0.00431405
0.00431405
0.00431405
0.00431405
0.00431405
0.00431405
0.00431388
0.00430882
0.0042286
0.00427903
0.00431398
0.00431405
0.00431405
0.00431405
0.00431405
0.00431405
0.00431405
0.00431405
0.00431405
0.00431405
0.00431405
0.00431405
0.00431405
0.00431405
0.00431405
0.00431405
0.00431405
0.00431405
0.00431405
0.00431404
0.00431387
0.00430853
0.00422876
0.00427914
0.00431397
0.00431405
0.00431405
0.00431405
0.00431405
0.00431405
0.00431405
0.00431405
0.00431405
0.00431405
0.00431405
0.00431405
0.00431405
0.00431405
0.00431405
0.00431405
0.00431405
0.00431405
0.00431405
0.00431404
0.00431384
0.00430822
0.00422892
0.00427926
0.00431397
0.00431405
0.00431405
0.00431405
0.00431405
0.00431405
0.00431405
0.00431405
0.00431405
0.00431405
0.00431405
0.00431405
0.00431405
0.00431405
0.00431405
0.00431405
0.00431405
0.00431405
0.00431405
0.00431405
0.00431405
0.00431405
0.00431405
0.00431405
0.00431405
0.00431405
0.00431405
0.00364768
0.00366371
0.00431405
0.00431405
0.00431405
0.00431405
0.00431405
0.00431405
0.00431405
0.00431405
0.00431405
0.00431404
0.00431405
0.00431405
0.00431405
0.00431405
0.00431405
0.00431405
0.00431405
0.00431405
0.00431312
0.00431388
0.00431109
0.00431364
0.00431405
0.00431405
0.00431405
0.00431405
0.00431405
0.00431405
0.00431405
0.00431041
0.00431078
0.00427869
0.00429657
0.00431405
0.00431405
0.00431405
0.00431405
0.00431405
0.00431405
0.00431405
0.00431174
0.00431106
0.00430407
0.00428783
0.00431405
0.00431405
0.00431405
0.00431218
0.00431169
0.00431405
0.00431405
0.00431405
0.00431359
0.00431324
0.00431405
0.00381123
0.00364965
0.00400114
0.00431405
0.00431405
0.00431394
0.00431405
0.00431405
0.00431404
0.00431357
0.00431405
0.00431404
0.00431372
0.00431404
0.00431405
0.00431405
0.00431393
0.00431097
0.00431289
0.00431405
0.00431004
0.00430151
0.00431334
0.00431048
0.00429782
0.00431097
0.00431405
0.00431248
0.00430927
0.00431389
0.00431256
0.00431405
0.00431096
0.00431045
0.00431405
0.00430003
0.00430424
0.00430117
0.00429983
0.00428719
0.00427779
0.00431405
0.00430798
0.00430932
0.00430922
0.00430806
0.00431405
0.00430296
0.00430662
0.00430454
0.00430236
0.00431149
0.004305
0.00431405
0.0043119
0.00431329
0.00430941
0.00431175
0.00431405
0.0043098
0.0043112
0.00430706
0.00430953
0.00431317
0.00431235
0.00431335
0.00431366
0.00431405
0.00431227
0.00431114
0.00431137
0.00431219
0.00431375
0.00431363
0.00431405
0.00431405
0.00431405
0.00431396
0.00431405
0.00431405
0.00431405
0.00431405
0.00431405
0.00431304
0.00431256
0.00426678
0.00424218
0.00431405
0.00431405
0.00431405
0.00431405
0.00431399
0.00431405
0.00431405
0.00431405
0.00431248
0.00431184
0.00431405
0.00359731
0.0037046
0.00407357
0.00413332
0.00371092
0.00384538
0.00423747
0.00419368
0.00431405
0.00431369
0.00431385
0.00414073
0.00417919
0.00431386
0.00431394
0.00431405
0.00431405
0.00431405
0.00431405
0.00431405
0.00431405
0.00431405
0.00431392
0.00431405
0.00431399
0.00431405
0.00431401
0.00431405
0.00431202
0.00431267
0.00428962
0.00429042
0.00429843
0.00429657
0.00431155
0.00419357
0.00431265
0.00428595
0.00426957
0.00427188
0.00428682
0.00431342
0.00430232
0.00431399
0.00427843
0.00431008
0.00427125
0.00431394
0.00431095
0.00431399
0.00431405
0.00431381
0.00430557
0.00431398
0.004314
0.00430507
0.00430454
0.00431259
0.00431238
0.0043033
0.00430399
0.0043095
0.00431401
0.00431403
0.004314
0.00431401
0.00430947
0.00431341
0.00431404
0.00431405
0.00431403
0.00431404
0.00431319
0.00430207
0.00430231
0.00429957
0.00429945
0.00426547
0.0042673
0.00430728
0.004314
0.00431399
0.004314
0.004314
0.00430727
0.00430885
0.00431399
0.00431399
0.00431399
0.00431399
0.00430879
0.00360684
0.00430467
0.00372443
0.00360501
0.00386951
0.00373235
0.00430518
0.0042998
0.00361724
0.00430043
0.00430949
0.00430905
0.00431051
0.00431401
0.004314
0.00431402
0.00431401
0.00431075
0.00398624
0.0040612
0.00430824
0.00399412
0.00387974
0.00409345
0.00400742
0.0043086
0.00385963
0.00397402
0.00431289
0.00424305
0.00426902
0.00419861
0.00423788
0.00431277
0.00418306
0.00417912
0.00419241
0.00373927
0.0041836
0.00417387
0.0038134
0.00428643
0.0042875
0.00431404
0.00431405
0.00431405
0.00431405
0.00431405
0.00431371
0.00431366
0.00395699
0.00431232
0.00431331
0.00431404
0.00431339
0.0043131
0.00431405
0.00368917
0.00370658
0.00357656
0.00417771
0.00417699
0.00372896
0.0037702
0.00428147
0.00428621
0.0033588
0.00431405
0.00431405
0.00431405
0.00431405
0.00431405
0.00431405
0.00431356
0.00431404
0.00431403
0.00431119
0.00431002
0.00431322
0.0043104
0.00431399
0.00431399
0.004314
0.00431399
0.00431044
0.00428413
0.00429423
0.00430169
0.00428941
0.00411546
0.00408168
0.00431347
0.00428842
0.00429891
0.00430762
0.00430776
0.00378981
0.00431405
0.00431403
0.00431405
0.00431384
0.00431173
0.00431047
0.00431404
0.00431405
0.00431405
0.00431405
0.00431405
0.00431403
0.00431169
0.00431401
0.004314
0.00431403
0.00431402
0.00431197
0.00430781
0.00420867
0.00426827
0.00417264
0.00418061
0.00430268
0.00427435
0.00428076
0.00431142
0.00430004
0.00430641
0.00431076
0.00431376
0.00431379
0.00431356
0.0043136
0.00430936
0.004314
0.004314
0.00431063
0.00430103
0.0041575
0.00412618
0.0043003
0.00416109
0.00417047
0.00412049
0.00412521
0.00429941
0.00427846
0.00427141
0.00430754
0.00431357
0.00431354
0.0043135
0.00431367
0.00430853
0.00430909
0.00431353
0.00431355
0.00431354
0.00431352
0.00430843
0.00431076
0.00426822
0.00427783
0.00425524
0.00425001
0.00430699
0.00431301
0.00431402
0.00431402
0.00431403
0.00431403
0.00431308
0.00431049
0.00415555
0.00410276
0.00421153
0.00419497
0.00431069
0.00389222
0.0039133
0.00431178
0.00423024
0.00421671
0.00386629
0.00388599
0.00415775
0.00412448
0.00431403
0.00431404
0.00431404
0.00407933
0.00425766
0.00409484
0.00411391
0.00410564
0.00425449
0.00431405
0.00431401
0.00431405
0.00431391
0.00431404
0.00361132
0.00364582
0.00370563
0.00369364
0.00410181
0.00376607
0.00375174
0.00380639
0.00377068
0.00410954
0.00374581
0.00377158
0.00422113
0.00421374
0.00415976
0.0038653
0.0038259
0.00377558
0.00379862
0.00431379
0.00431403
0.00431404
0.00431395
0.00431402
0.00431369
0.00431124
0.00431314
0.004285
0.00429341
0.0043011
0.00429042
0.00420363
0.00428265
0.00427565
0.00429004
0.00428485
0.00420167
0.00425975
0.00425317
0.00427347
0.00426345
0.00428015
0.00416681
0.00418846
0.00412847
0.00415627
0.00427773
0.00406377
0.00407296
0.00429422
0.004313
0.00431199
0.00431387
0.00431328
0.00429826
0.00430494
0.00430238
0.00431116
0.004306
0.00431348
0.00431403
0.00431393
0.0043131
0.00431235
0.00431328
0.00431198
0.00431388
0.00431233
0.00431361
0.00431391
0.00431258
0.00431348
0.00431403
0.00431378
0.00431337
0.0041913
0.00420023
0.00430698
0.00410648
0.00406954
0.00421555
0.00411388
0.004018
0.00398541
0.00405846
0.00403275
0.00430313
0.00418352
0.00418922
0.00426637
0.00425381
0.00430099
0.00427703
0.00424014
0.00422821
0.00425164
0.0042433
0.00431168
0.00428223
0.00428641
0.00430079
0.00430603
0.00431368
0.00431374
0.00431005
0.0043094
0.00431361
0.00431366
0.00416667
0.00416301
0.00430133
0.00395308
0.00395477
0.00381406
0.00393573
0.00394302
0.00398653
0.00395194
0.00394371
0.00414738
0.00415802
0.00430007
0.00393394
0.00390097
0.00397806
0.00394396
0.00383867
0.00380688
0.00388806
0.00385439
0.00429943
0.00413059
0.0041431
0.00427249
0.00426985
0.0043136
0.00431357
0.00430746
0.00430804
0.00431366
0.00431361
0.00431351
0.00431352
0.00430904
0.0043085
0.00431352
0.00431351
0.00362032
0.00365788
0.0041751
0.00419599
0.00414762
0.00416765
0.0036173
0.00381481
0.00422381
0.00419012
0.00420171
0.00421855
0.00378618
0.00405698
0.004069
0.0040119
0.00405247
0.00365343
0.00412064
0.00414203
0.00407558
0.00410942
0.00365339
0.00425982
0.00426586
0.00431049
0.00423504
0.00424681
0.00425011
0.00423445
0.00424666
0.00430749
0.00424644
0.00425478
0.00401703
0.00368188
0.00368344
0.00374061
0.00368636
0.0040278
0.00370651
0.00390259
0.00368401
0.00392157
0.00421902
0.00429595
0.00429164
0.00430111
0.00429739
0.00422242
0.00416608
0.0041723
0.00392281
0.0039459
0.00381382
0.00385789
0.00418152
0.00416559
0.00431405
0.00431405
0.00431405
0.00431405
0.00431398
0.00431399
0.00431405
0.00431405
0.00431405
0.00431405
0.00431405
0.00431405
0.00431405
0.00431405
0.00431405
0.00431405
0.00431404
0.00431366
0.00431113
0.00430655
0.00430595
0.00428009
0.00429577
0.004314
0.00431401
0.00431134
0.00426776
0.00426468
0.00428829
0.00427998
0.00428497
0.00431217
0.00431402
0.00431405
0.00431405
0.00430899
0.00431055
0.00431373
0.00431399
0.00431385
0.00431404
0.00431323
0.00430023
0.00430826
0.00429856
0.00430533
0.00430454
0.00431057
0.00431179
0.0043118
0.00430931
0.00431383
0.00431387
0.00431269
0.0043107
0.004314
0.004314
0.00418209
0.00416917
0.00430333
0.00428604
0.00427176
0.00427069
0.00427688
0.00430791
0.00431174
0.00431173
0.00430918
0.00431175
0.00431177
0.00431172
0.00431171
0.00430815
0.00429861
0.00420207
0.00418862
0.00430964
0.00431355
0.00431353
0.00431351
0.00431404
0.00431403
0.00372467
0.00372529
0.00424457
0.00423426
0.0043119
0.00372459
0.00372445
0.00429994
0.00430234
0.00431371
0.00431398
0.00431393
0.00359059
0.00360548
0.00361282
0.00369566
0.00371778
0.0035902
0.0035976
0.00369732
0.00367901
0.0038265
0.00416168
0.00415549
0.00420041
0.00389938
0.00387288
0.00416503
0.00431405
0.00431405
0.00431405
0.00431379
0.00431391
0.00431399
0.00431402
0.00431355
0.00431365
0.00431405
0.00431405
0.00431404
0.00430949
0.00430919
0.00431157
0.00431294
0.00431182
0.00431124
0.00428738
0.00429122
0.00427545
0.00427777
0.00429965
0.00429426
0.0042656
0.00427078
0.00421137
0.00421253
0.00423884
0.00423514
0.00419367
0.00421506
0.00421783
0.00431231
0.00428696
0.0042924
0.00429938
0.00428615
0.00430431
0.00430216
0.00431253
0.00431172
0.00430819
0.00424159
0.00423096
0.00429661
0.00428051
0.0042577
0.00431404
0.00431404
0.00431373
0.00431362
0.00431281
0.00431322
0.0043081
0.00431291
0.00431331
0.00428782
0.00429544
0.00431311
0.0042174
0.00420469
0.00430261
0.00430466
0.00431397
0.00431399
0.00431366
0.00431274
0.0043139
0.00431393
0.00430307
0.00416772
0.00416643
0.00426544
0.00426814
0.0043117
0.00431171
0.00430891
0.00430867
0.0043117
0.0043117
0.00361616
0.0037145
0.0039006
0.00391256
0.00377608
0.00378549
0.00359407
0.00421172
0.0042046
0.0042992
0.00365534
0.00364002
0.00373506
0.00373632
0.00363013
0.0037662
0.00377072
0.00362833
0.00363139
0.0043136
0.00431358
0.00430978
0.00431121
0.00431366
0.00431363
0.00393829
0.00421267
0.00421982
0.00419768
0.00420516
0.0039189
0.00425502
0.00429887
0.00430213
0.00430154
0.00430027
0.00425902
0.00420699
0.00424865
0.00424362
0.00417158
0.00416392
0.00418396
0.00375947
0.00377074
0.00377652
0.00372703
0.00419536
0.00394893
0.00391208
0.00398128
0.00395802
0.00416824
0.0040716
0.00407387
0.00419437
0.00421294
0.00429133
0.00431403
0.00431403
0.004314
0.00368661
0.00369095
0.00392291
0.00392199
0.00355601
0.00375081
0.00371932
0.00371579
0.00371694
0.00371885
0.00376296
0.00336772
0.00417672
0.00418136
0.00431405
0.00431405
0.00431405
0.00430769
0.00430713
0.00431115
0.0043089
0.00431089
0.00431224
0.00431032
0.00431066
0.00428233
0.00429499
0.00425347
0.00425694
0.00425691
0.00425323
0.00428877
0.00426243
0.00426108
0.00410775
0.00405794
0.00405755
0.00406388
0.00406285
0.00409813
0.00431142
0.00431288
0.00431294
0.00431267
0.00431282
0.00431108
0.00429929
0.00430943
0.00430379
0.0043019
0.00430934
0.00431182
0.00431184
0.0042715
0.00427227
0.00428363
0.00427369
0.00431176
0.00431175
0.0043077
0.00431173
0.00431174
0.00430913
0.00430831
0.0043117
0.0043117
0.00425574
0.00426741
0.00426241
0.00427163
0.00427004
0.00425476
0.00372664
0.00373018
0.0037271
0.00372531
0.00387324
0.00378576
0.00378071
0.00407368
0.00407287
0.00414754
0.00408556
0.0040989
0.00406155
0.00407192
0.00413575
0.00431401
0.004314
0.00431402
0.00431398
0.00431404
0.00431404
0.00431405
0.00431402
0.00431403
0.00431401
0.00409121
0.00417731
0.00417171
0.0041929
0.0041848
0.00409795
0.00412618
0.00415128
0.00414022
0.00416722
0.00416146
0.00411769
0.00431402
0.00431404
0.00431403
0.0043137
0.00431342
0.00431398
0.00431394
0.00359149
0.00367884
0.00361745
0.00361471
0.00370243
0.00369824
0.00384857
0.00385816
0.00375796
0.00359048
0.00358545
0.00372819
0.00363221
0.00363119
0.00362765
0.00380079
0.00364604
0.0036122
0.0041686
0.00417895
0.00422761
0.00414307
0.00414578
0.00413557
0.00413768
0.00420658
0.00415319
0.00415779
0.00378093
0.0037128
0.00371476
0.00371511
0.0037122
0.00378792
0.00431394
0.00431397
0.00431385
0.00431343
0.00431371
0.0043139
0.00430684
0.00431134
0.00430877
0.00430823
0.00430932
0.00430978
0.00430827
0.00430883
0.00428589
0.00429206
0.00426072
0.00426188
0.00425819
0.00425951
0.00430047
0.00427902
0.00427989
0.00426083
0.00426251
0.00429205
0.00426187
0.00422116
0.00421375
0.00419743
0.00423204
0.00422806
0.00425703
0.00422096
0.00421999
0.00423208
0.00422572
0.00425509
0.00427087
0.0042383
0.00424219
0.00422409
0.0042315
0.00426743
0.00421865
0.00413763
0.00420582
0.00420008
0.00405789
0.00406287
0.00429245
0.00430607
0.0043052
0.00429022
0.00430168
0.00430949
0.00430745
0.00425873
0.00424988
0.00428698
0.004289
0.00430332
0.00427634
0.00426783
0.00431053
0.0043116
0.00431337
0.00431229
0.00430913
0.00430463
0.00430888
0.00431307
0.00431358
0.00431368
0.00431305
0.00431327
0.00431216
0.0043108
0.00431202
0.0043137
0.0043133
0.00431308
0.00431373
0.0043134
0.00431379
0.00431279
0.00431287
0.00431232
0.00431302
0.00409713
0.00408239
0.00418619
0.00405487
0.00406814
0.00402699
0.00412074
0.00400532
0.0039945
0.00404904
0.00404128
0.00425995
0.00420125
0.00421501
0.0041745
0.00418726
0.00425632
0.0042983
0.00427705
0.00428364
0.00422332
0.00426163
0.00429171
0.00419275
0.00416937
0.00423701
0.00410027
0.00411095
0.00408299
0.00409141
0.00423355
0.00424948
0.00415408
0.00416347
0.00412341
0.00413782
0.00424648
0.00430192
0.0043055
0.00395859
0.00382846
0.0038464
0.00379196
0.00380927
0.00395747
0.00384631
0.00385494
0.00385347
0.00389371
0.0039493
0.00369977
0.00371603
0.00373043
0.00370184
0.00396369
0.00394917
0.00376203
0.00377625
0.00373436
0.00374927
0.00394645
0.00392587
0.00391617
0.00397026
0.00395603
0.00382497
0.00381284
0.00387726
0.00386846
0.00426813
0.00426895
0.00430896
0.00431172
0.00431173
0.0043117
0.0043117
0.00430856
0.00362256
0.00385845
0.00388344
0.00369575
0.00359415
0.0038028
0.00382904
0.00368804
0.00367121
0.0040606
0.00384035
0.00384176
0.00403258
0.00381709
0.00377571
0.00384149
0.00383518
0.00404533
0.00372579
0.00370611
0.00373909
0.00375771
0.00364342
0.00365543
0.00369907
0.00426251
0.00428614
0.0042842
0.00428898
0.00428761
0.00426418
0.00423901
0.00424448
0.0042444
0.00423449
0.00423427
0.00423821
0.00424593
0.00427538
0.00427319
0.00428152
0.00427834
0.00424934
0.00368141
0.00375371
0.00376243
0.00374003
0.00374697
0.00368239
0.00372006
0.00381618
0.00383503
0.00377581
0.00379481
0.00369967
0.00370259
0.0036294
0.00364017
0.00362868
0.00362726
0.00368314
0.00371548
0.00373072
0.0036624
0.00368875
0.00367807
0.00425628
0.00425299
0.00421466
0.00416522
0.00417955
0.00373924
0.0037547
0.00383101
0.00374501
0.00372644
0.00377422
0.00376367
0.00384646
0.00373005
0.00372915
0.00407131
0.00407093
0.00431405
0.00431405
0.00431405
0.00431405
0.00431405
0.00431405
0.00431405
0.00431405
0.00431405
0.00431405
0.00431405
0.00431405
0.00431405
0.00431405
0.00431405
0.00431405
0.00431405
0.00431405
0.00431405
0.00431405
0.00431405
0.00431405
0.00431405
0.00431405
0.00431405
0.00431405
0.00431405
0.00431405
0.00431405
0.00431405
0.00431405
0.00431405
0.00431405
0.00431405
0.00431405
0.00431405
0.00431405
0.00431405
0.00431405
0.00431405
0.00431405
0.00431405
0.00431405
0.00431405
0.00431405
0.00431405
0.00431405
0.00431405
0.00431405
0.00431405
0.00431405
0.00431405
0.00431405
0.00431405
0.00431405
0.00431405
0.00431405
0.00431405
0.00431405
0.00431405
0.00431405
0.00431405
0.00431405
0.00431405
0.00431405
0.00431405
0.00431405
0.00431405
0.00431405
0.00431405
0.00431405
0.00431405
0.00431405
0.00431405
0.00431405
0.00431405
0.00431405
0.00431405
0.00431405
0.00431405
0.00431405
0.00431405
0.00431405
0.00431405
0.00431405
0.00431404
0.00431404
0.00431405
0.00431405
0.00431405
0.00431405
0.00431405
0.00431405
0.00431405
0.00431405
0.00431405
0.00431405
0.00431405
0.00431405
0.00431405
0.00431404
0.00431404
0.00431405
0.00431405
0.00431405
0.00431405
0.00431405
0.00431405
0.00431405
0.00431405
0.00431405
0.00431405
0.00431404
0.00431404
0.00431405
0.00431405
0.00431405
0.00431405
0.00431405
0.00431405
0.00431405
0.00431405
0.00431405
0.00431405
0.00431405
0.00431405
0.00431405
0.00431405
0.00431405
0.00431405
0.00431405
0.00431405
0.00431405
0.00431405
0.00431405
0.00431405
0.00431354
0.00431354
0.00376277
0.00426999
0.00427314
0.00431405
0.00431405
0.00431405
0.00431405
0.00431405
0.00431405
0.00431405
0.00431405
0.00431405
0.00431405
0.00431405
0.00431405
0.00431404
0.00397732
0.00396913
0.00414569
0.00431405
0.00431405
0.00431405
0.00431405
0.00431405
0.00431405
0.00431405
0.00431405
0.00431405
0.00431404
0.00431405
0.00431246
0.00413447
0.0039797
0.00423359
0.00431399
0.00431405
0.00431405
0.00431405
0.00431405
0.00431405
0.00431405
0.00431405
0.00431405
0.00431405
0.00431405
0.00431405
0.00431405
0.00431405
0.00431404
0.00431404
0.00431405
0.00431405
0.00431404
0.00431403
0.00431405
0.00431405
0.00431405
0.00431404
0.00431404
0.00431405
0.00431405
0.00431403
0.00431403
0.00431403
0.00431403
0.00431405
0.00431404
0.00431404
0.00431405
0.00431405
0.00431404
0.00431404
0.00431403
0.00431404
0.00431405
0.00431405
0.00431405
0.00431405
0.00431404
0.00431405
0.00431405
0.00431353
0.00431373
0.00431405
0.00355587
0.00388238
0.00388566
0.00405778
0.00405847
0.00337583
0.00431405
0.00431405
0.00431405
0.00431405
0.00431405
0.00431405
0.00431405
0.00431405
0.00431404
0.00431405
0.00431405
0.00431405
0.00431405
0.00431405
0.00431405
0.00431405
0.00431405
0.00431405
0.00431405
0.00431405
0.00431405
0.00431405
0.00431405
0.00431405
0.00431405
0.00431405
0.00431405
0.00431405
0.00431405
0.00431405
0.00431404
0.00431401
0.00431405
0.00431405
0.00431405
0.00431405
0.00431405
0.00431405
0.00431405
0.00431405
0.00431405
0.00431405
0.00431405
0.00431405
0.00431405
0.00431405
0.00431405
0.00431405
0.00431405
0.00431405
0.00431405
0.00431405
0.00431405
0.00431405
0.00431405
0.00431405
0.00431329
0.00431385
0.0043138
0.00431401
0.00431399
0.00431382
0.00431319
0.00431272
0.00431349
0.00431405
0.00431405
0.00431405
0.00431405
0.00431405
0.00431405
0.00431405
0.00431405
0.00431405
0.00431405
0.00431405
0.00431405
0.00431405
0.00431405
0.00431405
0.00431405
0.00431405
0.00431405
0.00431404
0.00431404
0.00431405
0.00431039
0.00431316
0.00431316
0.00431324
0.0043132
0.00431063
0.00431405
0.00431405
0.00431405
0.00431405
0.00431405
0.00431405
0.00431405
0.00431405
0.00431405
0.00431405
0.00431405
0.00431405
0.00431405
0.00431405
0.00431405
0.00431405
0.00431405
0.00431405
0.00431404
0.00431404
0.00431405
0.00431144
0.00431401
0.00431401
0.00431331
0.00431333
0.00431115
0.00430315
0.00428377
0.00428635
0.00431405
0.00431405
0.00431405
0.00431405
0.00431405
0.00431405
0.00431405
0.00431405
0.00431405
0.00431199
0.00429905
0.00430207
0.00430687
0.00430741
0.00431186
0.00431405
0.00431405
0.00431405
0.00431405
0.00431405
0.00431405
0.00431405
0.00431405
0.00431405
0.00431356
0.00431212
0.00431226
0.00431082
0.0043111
0.00431331
0.00431376
0.00431354
0.00431405
0.00379487
0.00430775
0.00430741
0.00417841
0.00418078
0.00366161
0.00431251
0.00431237
0.0039688
0.00431405
0.00431393
0.00431399
0.00431399
0.00431393
0.00431405
0.00431398
0.00431403
0.00431402
0.00431405
0.00431405
0.00431404
0.00431405
0.00431405
0.00431405
0.00431403
0.00431382
0.004314
0.00431405
0.00431405
0.00431405
0.00431403
0.00431404
0.00431405
0.00431377
0.00431346
0.00431338
0.00431404
0.00431404
0.00431404
0.00431405
0.00431405
0.00431405
0.00431405
0.00431405
0.00431405
0.00431403
0.00431403
0.00431399
0.00431119
0.00431334
0.00431329
0.00431374
0.00431368
0.00431258
0.00431405
0.00431404
0.00431405
0.00430945
0.00430276
0.00430454
0.00428412
0.00428479
0.00430187
0.00430568
0.00430647
0.00431084
0.00431404
0.00431404
0.00431405
0.00431231
0.00431318
0.00431327
0.00431371
0.00431401
0.00431402
0.00431332
0.00431336
0.00431261
0.00431405
0.00431405
0.00431404
0.00431087
0.00431326
0.00431329
0.00431317
0.00431318
0.00431051
0.00431405
0.00431404
0.00431404
0.00430038
0.00428099
0.00428015
0.00428957
0.0042888
0.00430392
0.00430086
0.00428291
0.00428351
0.00427954
0.00427915
0.00429959
0.00431403
0.00431403
0.00431405
0.00431245