/*--------------------------------*- C++ -*----------------------------------*\
| =========                 |                                                 |
| \\      /  F ield         | OpenFOAM: The Open Source CFD Toolbox           |
|  \\    /   O peration     | Version:  5.x                                   |
|   \\  /    A nd           | Web:      www.OpenFOAM.org                      |
|    \\/     M anipulation  |                                                 |
\*---------------------------------------------------------------------------*/
FoamFile
{
    version     2.0;
    format      ascii;
    class       volScalarField;
    location    "200";
    object      massFlux;
}
// * * * * * * * * * * * * * * * * * * * * * * * * * * * * * * * * * * * * * //

dimensions      [0 0 0 0 0 0 0];

internalField   nonuniform List<scalar> 
6584
(
0.0241652
0.0241651
0.0241651
0.0241652
0.0241652
0.0241652
0.0241652
0.0241652
0.0241652
0.0241652
0.0241652
0.0241652
0.0241652
0.0241652
0.0241652
0.0241652
0.0241652
0.0241652
0.0241652
0.0241652
0.0241651
0.0241651
0.0241651
0.0241651
0.0241388
0.0241388
0.0241388
0.0241388
0.0241388
0.0241389
0.0241389
0.024139
0.024139
0.024139
0.024139
0.024139
0.024139
0.024139
0.024139
0.024139
0.024139
0.0241389
0.0241389
0.0241389
0.0241388
0.0241388
0.0241388
0.0241387
0.0241124
0.0241124
0.0241124
0.0241124
0.0241125
0.0241125
0.0241126
0.0241127
0.0241128
0.0241259
0.0241259
0.0241259
0.0241259
0.0241259
0.0241259
0.0241128
0.0241127
0.0241126
0.0241126
0.0241125
0.0241125
0.0241125
0.0241124
0.0241124
0.024086
0.0240861
0.0240861
0.0240861
0.0240861
0.0240862
0.0240863
0.0240864
0.0240865
0.0240996
0.0240996
0.0240995
0.0240995
0.0240996
0.0240996
0.0240997
0.0240864
0.0240863
0.0240863
0.0240862
0.0240862
0.0240861
0.0240861
0.0240861
0.0240597
0.0240597
0.0240598
0.0240598
0.0240598
0.0240599
0.0240599
0.0240599
0.0240732
0.0240733
0.0240731
0.024073
0.024073
0.024073
0.0240733
0.0240733
0.0240733
0.0240601
0.02406
0.0240599
0.0240599
0.0240598
0.0240598
0.0240597
0.0240334
0.0240334
0.0240334
0.0240335
0.0240336
0.0240336
0.0240337
0.0240468
0.0240467
0.0240466
0.0240531
0.0240528
0.0240527
0.024053
0.0240468
0.024047
0.0240471
0.0240341
0.0240338
0.0240337
0.0240336
0.0240335
0.0240335
0.0240334
0.0240071
0.0240071
0.0240071
0.0240072
0.0240073
0.0240074
0.0240075
0.0240205
0.0240204
0.0240202
0.0240261
0.0240288
0.0240283
0.0240259
0.0240271
0.024021
0.024021
0.0240081
0.0240077
0.0240075
0.0240074
0.0240073
0.0240072
0.0240071
0.0239808
0.0239808
0.0239809
0.023981
0.0239811
0.0239812
0.0239815
0.0239944
0.0239943
0.0239943
0.0239996
0.0240007
0.0240018
0.024001
0.0239953
0.0239952
0.0239822
0.0239817
0.0239814
0.0239812
0.023981
0.0239809
0.0239808
0.0239545
0.0239545
0.0239546
0.0239547
0.0239549
0.0239551
0.0239555
0.0239684
0.0239685
0.0239688
0.023974
0.0239752
0.0239766
0.0239759
0.02397
0.0239696
0.0239565
0.0239557
0.0239553
0.023955
0.0239548
0.0239547
0.0239546
0.0239282
0.0239283
0.0239284
0.0239285
0.0239287
0.023929
0.0239295
0.0239425
0.0239427
0.0239435
0.0239491
0.0239512
0.0239535
0.0239516
0.023945
0.0239442
0.0239307
0.0239298
0.0239292
0.0239289
0.0239286
0.0239284
0.0239283
0.0239019
0.023902
0.0239021
0.0239023
0.0239026
0.0239029
0.0239035
0.0239166
0.0239171
0.0239181
0.0239243
0.0239273
0.0239307
0.0239275
0.0239201
0.0239188
0.023905
0.0239039
0.0239032
0.0239027
0.0239024
0.0239022
0.023902
0.0238757
0.0238758
0.0238759
0.0238761
0.0238764
0.0238768
0.0238775
0.0238907
0.0238913
0.0238926
0.0238992
0.0239027
0.023907
0.023903
0.0238949
0.0238934
0.0238792
0.0238779
0.0238771
0.0238766
0.0238762
0.0238759
0.0238757
0.0238494
0.0238495
0.0238497
0.0238499
0.0238503
0.0238508
0.0238515
0.0238647
0.0238655
0.0238669
0.0238736
0.0238771
0.023882
0.0238778
0.0238695
0.0238678
0.0238534
0.0238519
0.023851
0.0238504
0.0238499
0.0238496
0.0238494
0.0238231
0.0238233
0.0238235
0.0238237
0.0238241
0.0238246
0.0238254
0.0238259
0.0238394
0.0238406
0.023847
0.0238497
0.0168964
0.0238521
0.023852
0.0238438
0.023842
0.0238274
0.0238259
0.0238249
0.0238241
0.0238236
0.0238233
0.0238231
0.0237969
0.023797
0.0237972
0.0237975
0.0237979
0.0237984
0.0237991
0.0237994
0.0238129
0.0238141
0.0238205
0.0238199
0.021907
0.0238256
0.0238187
0.0238177
0.0238022
0.0238011
0.0237996
0.0237986
0.023798
0.0237974
0.023797
0.0237967
0.0237706
0.0237707
0.023771
0.0237713
0.0237717
0.0237722
0.0237728
0.0237732
0.0237866
0.0237879
0.0237878
0.0237934
0.0219977
0.0237928
0.0237926
0.0237916
0.0237761
0.0237749
0.0237733
0.0237723
0.0237715
0.0237709
0.0237706
0.0237703
0.0237443
0.0237445
0.0237447
0.023745
0.0237455
0.0237459
0.0237465
0.023747
0.0237478
0.0237617
0.0237616
0.0237273
0.0228903
0.0237665
0.0237664
0.0237654
0.0237499
0.0237486
0.0237469
0.0237459
0.0237451
0.0237445
0.0237441
0.0237438
0.023718
0.0237182
0.0237184
0.0237188
0.0237192
0.0237196
0.0237203
0.0237209
0.0237217
0.0237224
0.0237355
0.0236855
0.0228809
0.0237402
0.023727
0.0237251
0.0237236
0.0237223
0.0237206
0.0237195
0.0237187
0.0237181
0.0237177
0.0237173
0.0236917
0.0236919
0.0236922
0.0236925
0.023693
0.0236934
0.0236941
0.0236948
0.0236956
0.0236962
0.0236907
0.0223186
0.0232924
0.0237011
0.0237008
0.0236989
0.0236973
0.0236959
0.0236942
0.0236931
0.0236923
0.0236916
0.0236912
0.0236907
0.0236654
0.0236657
0.0236659
0.0236663
0.0236667
0.0236671
0.0236679
0.0236686
0.0236695
0.0236701
0.0236594
0.0222928
0.0232663
0.0236749
0.0236746
0.0236727
0.023671
0.0236696
0.0236678
0.0236667
0.0236658
0.0236651
0.0236647
0.0236642
0.0236392
0.0236394
0.0236396
0.0236401
0.0236405
0.0236409
0.0236418
0.0236425
0.0236434
0.023644
0.0236283
0.0222666
0.0232398
0.0236487
0.0236484
0.0236464
0.0236447
0.0236432
0.0236414
0.0236402
0.0236393
0.0236386
0.0236382
0.0236377
0.0236129
0.0236131
0.0236134
0.0236138
0.0236143
0.0236148
0.0236157
0.0236164
0.0236174
0.0236179
0.0235973
0.0222399
0.023213
0.0236225
0.0236222
0.0236202
0.0236184
0.0236169
0.023615
0.0236138
0.0236129
0.0236121
0.0236117
0.0236111
0.0235866
0.0235868
0.0235871
0.0235876
0.0235881
0.0235886
0.0235895
0.0235903
0.0235913
0.0235918
0.0235664
0.022213
0.0231861
0.0235963
0.0235961
0.023594
0.0235921
0.0235905
0.0235886
0.0235873
0.0235864
0.0235856
0.0235851
0.0235846
0.0235603
0.0235606
0.0235609
0.0235613
0.0235619
0.0235624
0.0235634
0.0235643
0.0235653
0.0235656
0.0235356
0.0221859
0.0231589
0.0235701
0.0235699
0.0235678
0.0235658
0.0235641
0.0235622
0.0235609
0.0235599
0.0235591
0.0235586
0.023558
0.023534
0.0235343
0.0235346
0.0235351
0.0235357
0.0235363
0.0235373
0.0235382
0.0235393
0.0235396
0.023505
0.0221585
0.0231316
0.023544
0.0235438
0.0235416
0.0235395
0.0235378
0.0235358
0.0235344
0.0235334
0.0235326
0.0235321
0.0235315
0.0235078
0.0235081
0.0235084
0.0235089
0.0235095
0.0235101
0.0235112
0.0235121
0.0235133
0.0235135
0.023474
0.0221313
0.0231044
0.0235178
0.0235177
0.0235154
0.0235132
0.0235114
0.0235094
0.023508
0.0235069
0.023506
0.0235055
0.0235049
0.0234815
0.0234818
0.0234822
0.0234827
0.0234833
0.023484
0.0234851
0.0234861
0.0234873
0.0234873
0.0234426
0.0221045
0.0230774
0.0234917
0.0234916
0.0234893
0.023487
0.0234851
0.023483
0.0234815
0.0234804
0.0234796
0.023479
0.0234784
0.0234553
0.0234556
0.0234559
0.0234565
0.0234571
0.0234578
0.023459
0.02346
0.0234614
0.0234612
0.0234114
0.0220776
0.0230503
0.0234655
0.0234656
0.0234632
0.0234607
0.0234588
0.0234566
0.0234551
0.023454
0.0234531
0.0234525
0.0234519
0.023429
0.0234293
0.0234297
0.0234303
0.0234309
0.0234317
0.0234329
0.023434
0.0234354
0.0234351
0.0233803
0.0220507
0.0230231
0.0234394
0.0234395
0.023437
0.0234345
0.0234325
0.0234302
0.0234287
0.0234275
0.0234266
0.023426
0.0234254
0.0234028
0.0234031
0.0234035
0.0234041
0.0234048
0.0234056
0.0234069
0.023408
0.0234095
0.023409
0.0233493
0.0220236
0.0229959
0.0234132
0.0234135
0.0234109
0.0234083
0.0234061
0.0234039
0.0234023
0.0234011
0.0234001
0.0233995
0.0233989
0.0233765
0.0233769
0.0233773
0.0233779
0.0233786
0.0233794
0.0233808
0.0233821
0.0233835
0.0233829
0.0233183
0.0219966
0.0229687
0.0233871
0.0233874
0.0233848
0.023382
0.0233798
0.0233775
0.0233758
0.0233746
0.0233736
0.023373
0.0233724
0.0233503
0.0233506
0.0233511
0.0233517
0.0233524
0.0233534
0.0233548
0.0233561
0.0233576
0.0233568
0.0232874
0.0219695
0.0229415
0.0233609
0.0233614
0.0233586
0.0233558
0.0233535
0.0233511
0.0233494
0.0233481
0.0233471
0.0233465
0.0233459
0.0233241
0.0233244
0.0233249
0.0233255
0.0233263
0.0233273
0.0233288
0.0233301
0.0233317
0.0233306
0.0232565
0.0219425
0.0229143
0.0233348
0.0233353
0.0233325
0.0233296
0.0233272
0.0233247
0.023323
0.0233217
0.0233206
0.02332
0.0233193
0.0232978
0.0232982
0.0232987
0.0232993
0.0233001
0.0233012
0.0233027
0.0233041
0.0233057
0.0233045
0.0232255
0.0219155
0.022887
0.0233086
0.0233093
0.0233064
0.0233034
0.0233009
0.0232983
0.0232966
0.0232952
0.0232941
0.0232934
0.0232928
0.0232716
0.023272
0.0232725
0.0232731
0.023274
0.0232751
0.0232767
0.0232782
0.0232798
0.0232783
0.0231946
0.0218885
0.0228598
0.0232824
0.0232832
0.0232802
0.0232771
0.0232745
0.023272
0.0232701
0.0232687
0.0232676
0.0232669
0.0232663
0.0232454
0.0232458
0.0232463
0.0232469
0.0232479
0.0232491
0.0232507
0.0232522
0.0232539
0.0232521
0.0231635
0.0218617
0.0228327
0.0232562
0.0232572
0.0232541
0.0232509
0.0232482
0.0232456
0.0232437
0.0232423
0.0232411
0.0232404
0.0232398
0.0239782
0.0239793
0.0240012
0.0239542
0.0239564
0.0239764
0.0239303
0.0239337
0.0239535
0.0239058
0.0239102
0.0239308
0.0238804
0.0238853
0.0239071
0.0238531
0.014695
0.0166572
0.0238591
0.0238821
0.0240041
0.0240283
0.0240045
0.0240289
0.0239803
0.0239787
0.0240014
0.0239882
0.0240003
0.0239796
0.0239817
0.0240005
0.0239553
0.0239543
0.0239756
0.0239661
0.0239579
0.0239732
0.0239485
0.0239724
0.0239564
0.0239575
0.0239756
0.0239305
0.0239304
0.0239513
0.0239423
0.0239153
0.0239288
0.0237557
0.0238584
0.0239336
0.0239336
0.0239515
0.0239055
0.0239058
0.0239273
0.0239182
0.0238989
0.0239054
0.0238653
0.0237924
0.0239101
0.0239094
0.0239276
0.0238828
0.0238922
0.0238852
0.0238845
0.0239032
0.0238651
0.0238747
0.0238265
0.0163614
0.0147237
0.0203973
0.0238318
0.0238556
0.0239752
0.023987
0.0239876
0.0239866
0.0239721
0.0240004
0.0239882
0.0239736
0.0239874
0.0239883
0.0239871
0.0239754
0.0239316
0.0239549
0.0239631
0.0239365
0.0238655
0.0239689
0.0239401
0.0238651
0.0239472
0.0239649
0.0239552
0.0239278
0.0239744
0.0239563
0.0239677
0.0239063
0.023914
0.0239393
0.0238321
0.0238456
0.0238619
0.0238321
0.0237899
0.0237495
0.0239422
0.0239096
0.0239057
0.0239269
0.0239107
0.0239451
0.0238114
0.0238298
0.0238468
0.0238083
0.023892
0.0238694
0.0239191
0.0239064
0.023903
0.0239053
0.0239063
0.0239221
0.0238431
0.0238451
0.0238319
0.0238423
0.0238759
0.0238822
0.0239019
0.023893
0.0238979
0.0238403
0.0238086
0.0238449
0.0238412
0.023851
0.0238634
0.0239908
0.0239887
0.024001
0.0239913
0.023999
0.02388
0.0238802
0.0239026
0.0238932
0.0238829
0.0238906
0.0235482
0.0234147
0.023859
0.0238589
0.0238782
0.0239995
0.0239918
0.024001
0.0239886
0.0239914
0.0238916
0.023898
0.0239151
0.0160084
0.017158
0.0208432
0.0215295
0.0172082
0.0185506
0.0233895
0.0231612
0.0238948
0.0238916
0.0238813
0.021614
0.0220498
0.0238798
0.0238685
0.0238724
0.0240151
0.0240137
0.0240022
0.0240022
0.0240138
0.0240151
0.0239904
0.0239932
0.0239908
0.0239996
0.0239917
0.0239949
0.0239581
0.0239623
0.0238137
0.0238192
0.0238414
0.0238325
0.0238839
0.0231913
0.0238922
0.0236593
0.0235637
0.0235998
0.0236821
0.0238708
0.0238922
0.0239815
0.0237081
0.0239532
0.0236553
0.0239795
0.0239608
0.0239912
0.0239932
0.0239893
0.0239182
0.0239803
0.0239812
0.0238983
0.0238938
0.0239595
0.0239574
0.0239003
0.0239049
0.0239344
0.02396
0.0239643
0.0239543
0.0239586
0.0239336
0.0239665
0.0239716
0.0239761
0.0239658
0.0239702
0.0239645
0.0238384
0.023839
0.0238418
0.0238397
0.0236783
0.0236881
0.023901
0.0239377
0.0239418
0.0239321
0.0239363
0.0239001
0.0239201
0.0239487
0.0239529
0.0239432
0.0239473
0.0239191
0.016174
0.0238202
0.0176793
0.0164515
0.0190871
0.0177443
0.0238228
0.0237952
0.016632
0.0237982
0.0238867
0.0238852
0.0239058
0.0239265
0.0239307
0.0239208
0.0239251
0.0239064
0.0198912
0.0206959
0.0238373
0.0202609
0.0191748
0.0212151
0.020383
0.0238388
0.0186781
0.0197701
0.023879
0.0234449
0.023584
0.0232199
0.0234176
0.02388
0.0231053
0.0219737
0.0221317
0.015602
0.0221017
0.0219086
0.0188176
0.0236454
0.023668
0.0239974
0.0238539
0.0238532
0.023877
0.0238673
0.0238627
0.0238722
0.0200372
0.0238221
0.023843
0.0239974
0.0238725
0.0238817
0.02389
0.0159
0.0160748
0.0140156
0.0218691
0.021804
0.016282
0.0166263
0.023574
0.0236389
0.0131935
0.0240065
0.0240071
0.0240006
0.0240002
0.0240071
0.0240066
0.0239651
0.0239696
0.0239651
0.0239509
0.0239535
0.023968
0.02392
0.0239456
0.0239413
0.0239515
0.0239471
0.0239218
0.0237827
0.0238427
0.0238552
0.0237981
0.0224993
0.0223058
0.0238694
0.0236909
0.0237557
0.0237544
0.0237436
0.0161737
0.023995
0.0239926
0.0240001
0.0239764
0.0239649
0.0239566
0.0239823
0.0239838
0.0239886
0.0239776
0.0239823
0.0239807
0.0239411
0.0239575
0.023953
0.0239635
0.023959
0.0239444
0.0239198
0.0232604
0.0236721
0.0229164
0.0230036
0.0238771
0.0237123
0.0237554
0.0239483
0.0238799
0.0239202
0.0239438
0.0239608
0.0239623
0.0239512
0.0239535
0.0239303
0.0239398
0.0239354
0.0239104
0.0238358
0.0226273
0.0223916
0.0238521
0.0227874
0.0228906
0.0223563
0.0224153
0.0238334
0.0237465
0.0237143
0.0239053
0.0239373
0.0239393
0.0239284
0.0239315
0.0239038
0.0239241
0.0239483
0.0239505
0.0239399
0.023942
0.0239145
0.0238903
0.0236533
0.0237033
0.0235935
0.0235582
0.0238775
0.0239074
0.023915
0.0239194
0.023909
0.0239135
0.0239064
0.0238448
0.0218821
0.0213097
0.0225714
0.0223807
0.023845
0.0178043
0.017999
0.023844
0.0227829
0.0226305
0.0175571
0.0177478
0.0227417
0.0225485
0.0239944
0.0239973
0.0239955
0.0223294
0.0234984
0.0224844
0.0225734
0.0225617
0.0234815
0.0239961
0.0239948
0.0239981
0.0239933
0.023995
0.0161252
0.016526
0.0160868
0.0159434
0.0211722
0.0167958
0.0166542
0.0172086
0.0168342
0.0212591
0.0175339
0.017802
0.0233029
0.0232635
0.0218292
0.0178315
0.0174274
0.0166471
0.0168155
0.0239875
0.0239897
0.0239926
0.0239858
0.0239887
0.0239862
0.0239519
0.0239668
0.0237887
0.0238372
0.0238529
0.0238025
0.0232521
0.0237104
0.0236748
0.0237474
0.0237216
0.02324
0.0235919
0.0235597
0.023664
0.0236114
0.0236254
0.0228712
0.0229907
0.0226573
0.0228108
0.0236112
0.022198
0.0222742
0.023828
0.0239744
0.0239641
0.0239847
0.0239775
0.0238594
0.0239088
0.0238897
0.023957
0.0239169
0.0239835
0.0239896
0.0239862
0.023981
0.0239742
0.0239756
0.023967
0.0239774
0.0239707
0.0239808
0.0239847
0.0239728
0.0239794
0.0239839
0.0239812
0.0239768
0.0231172
0.0231966
0.0239135
0.022508
0.0221644
0.0233312
0.0225788
0.0216344
0.0212786
0.0220551
0.0217813
0.0238812
0.0230336
0.0230961
0.0236678
0.0235922
0.0238802
0.0237324
0.0235045
0.0234199
0.023579
0.0235258
0.0239507
0.0237653
0.0237926
0.0238849
0.0239174
0.0239574
0.0239599
0.0239393
0.0239312
0.0239543
0.0239567
0.0226721
0.0226651
0.0238368
0.0206453
0.0206308
0.0193224
0.020492
0.0204814
0.0208666
0.0205912
0.0204924
0.0226399
0.0227538
0.0238492
0.0206796
0.0202893
0.0211884
0.0208002
0.0195629
0.0192325
0.0201388
0.01974
0.0238351
0.0224688
0.0225962
0.0237156
0.0237064
0.0239347
0.0239366
0.0239041
0.0239019
0.0239321
0.023934
0.0239454
0.0239476
0.0239231
0.0239156
0.0239426
0.0239447
0.0165025
0.0169953
0.0224825
0.0226692
0.0222477
0.0224171
0.0165493
0.0185586
0.0229228
0.022552
0.0227198
0.0228737
0.0182682
0.0214924
0.0215767
0.0211002
0.0214594
0.0171723
0.0220244
0.0222031
0.021629
0.0219251
0.0172119
0.0236114
0.0236414
0.0238897
0.0234606
0.0235326
0.023544
0.0234566
0.0235328
0.0238793
0.0235367
0.023584
0.0202051
0.015745
0.0158653
0.016521
0.0158162
0.0203212
0.0161144
0.0190584
0.015922
0.0192435
0.0233229
0.0237769
0.0237554
0.0238034
0.0237843
0.0233385
0.0230208
0.0230587
0.0180972
0.0183135
0.0169772
0.0174694
0.0228654
0.0227856
0.0240052
0.0240069
0.0240266
0.0238691
0.0238657
0.023855
0.0240027
0.0240031
0.023999
0.0239983
0.0240029
0.0240027
0.0240149
0.0240143
0.0240029
0.0239758
0.0239712
0.0239673
0.0239493
0.0239243
0.0239203
0.0237625
0.0238531
0.023928
0.0239236
0.0239025
0.0236829
0.0236656
0.0237939
0.0237139
0.0237377
0.0238926
0.0239805
0.0239821
0.0239774
0.0239374
0.0239505
0.0239748
0.0239856
0.0239824
0.0239848
0.0239667
0.0238789
0.0239317
0.02387
0.023916
0.0239116
0.0239443
0.0239413
0.023942
0.0239287
0.023964
0.0239656
0.023959
0.0239093
0.0239339
0.0239295
0.0227476
0.0226589
0.0238419
0.0237847
0.0237066
0.0236992
0.0237432
0.0239085
0.0239285
0.0239291
0.023926
0.0239397
0.0239405
0.0239298
0.0239304
0.0239118
0.0237897
0.0228967
0.0227983
0.0239043
0.0239258
0.0239271
0.0238982
0.0239028
0.0239074
0.0157316
0.015709
0.0229457
0.0228288
0.0238434
0.0157789
0.0157535
0.0237605
0.0237698
0.0238586
0.0239921
0.023992
0.0158903
0.01581
0.0159562
0.0170766
0.017263
0.0155217
0.0156607
0.0167231
0.0165367
0.0183687
0.0229667
0.022923
0.0231952
0.018148
0.0178957
0.0218884
0.024008
0.0240074
0.0240008
0.023989
0.0239894
0.0239902
0.0239913
0.0239831
0.0239844
0.0239936
0.0239966
0.0239949
0.0239446
0.0239424
0.023955
0.0239644
0.0239585
0.0239548
0.023802
0.0238246
0.0237189
0.0237306
0.0238471
0.0238211
0.023667
0.0236945
0.0233013
0.0233083
0.0234438
0.0234252
0.0231924
0.0233232
0.0233402
0.0238925
0.0237475
0.0237743
0.0238685
0.0237658
0.0239045
0.0238878
0.023973
0.0239658
0.0239376
0.0234798
0.0234173
0.0238459
0.0237279
0.0235594
0.0239923
0.0239905
0.0239865
0.0239868
0.0239799
0.023984
0.0239386
0.0239785
0.0239814
0.0238016
0.0238491
0.0239651
0.0233355
0.0232608
0.0238956
0.0239094
0.0239704
0.023972
0.02397
0.02396
0.0239671
0.0239688
0.0238411
0.0226555
0.0226666
0.0236782
0.0236941
0.0239353
0.023936
0.0239211
0.0239178
0.0239339
0.0239346
0.0163431
0.0175913
0.0196553
0.0197581
0.0184783
0.0185567
0.0162958
0.0229548
0.0229122
0.0237924
0.0173155
0.0171197
0.0183682
0.0183541
0.0168222
0.0184104
0.0184392
0.0169849
0.017025
0.0239232
0.0239245
0.0239042
0.0239065
0.0239207
0.023922
0.019717
0.022767
0.0228359
0.0226234
0.0226946
0.0195288
0.0235076
0.0237843
0.0238085
0.0237973
0.0237912
0.0235294
0.0232627
0.023496
0.023469
0.0230453
0.0229851
0.0231288
0.0159122
0.0160341
0.0160453
0.01591
0.0222417
0.0187194
0.0182904
0.0190865
0.0188248
0.0218376
0.0219634
0.022009
0.0230222
0.0231261
0.0236893
0.0239966
0.0239975
0.0239956
0.0158813
0.0159257
0.0179366
0.0178019
0.0139146
0.0164895
0.0160844
0.0161028
0.0159362
0.0160188
0.0165861
0.0132334
0.0227327
0.0228498
0.0240038
0.0240032
0.0239989
0.0239321
0.0239283
0.0239501
0.0239467
0.023957
0.0239648
0.0239525
0.0239551
0.0237739
0.0238479
0.0235876
0.0236084
0.0236081
0.0235863
0.0237956
0.0236529
0.0236448
0.0224588
0.0221275
0.022105
0.0221947
0.0221781
0.0224052
0.0239625
0.0239701
0.0239711
0.0239677
0.0239692
0.0239599
0.0238749
0.0239375
0.0239068
0.0238954
0.0239295
0.0239428
0.0239436
0.0237067
0.0237111
0.0237729
0.0237261
0.0239272
0.0239278
0.0239068
0.0239382
0.023939
0.0239251
0.0239133
0.0239311
0.0239318
0.0235944
0.0236648
0.0236381
0.023686
0.0236783
0.0235867
0.0156936
0.0156992
0.015842
0.0158053
0.0176271
0.0164665
0.0164283
0.0221156
0.022128
0.0226824
0.0222453
0.0223239
0.0221126
0.0221654
0.0226132
0.0239939
0.0239931
0.0239933
0.0239938
0.0239965
0.0239968
0.023998
0.0239948
0.0239956
0.0239956
0.0224502
0.0229883
0.0229603
0.0230733
0.0230287
0.0224818
0.0227052
0.0228555
0.0227963
0.0229393
0.0229107
0.0226445
0.0239956
0.0239962
0.0239951
0.0239897
0.0239866
0.0239937
0.0239925
0.0158865
0.0169004
0.0160705
0.0160876
0.0160415
0.0159924
0.0179473
0.018055
0.0167231
0.015485
0.0154282
0.0173577
0.0158599
0.0157931
0.0158456
0.0181066
0.0161601
0.0157599
0.0229847
0.0230416
0.0233375
0.022818
0.0228384
0.0227695
0.022783
0.0232261
0.0229031
0.0229257
0.0166699
0.0157738
0.0158506
0.0157418
0.0157231
0.0167171
0.0239883
0.0239892
0.0239885
0.0239841
0.0239854
0.0239873
0.0239305
0.0239531
0.0239394
0.0239359
0.0239463
0.0239495
0.0239391
0.0239429
0.0237947
0.0238303
0.0236351
0.0236419
0.0236172
0.0236265
0.0238505
0.0237364
0.0237403
0.0236417
0.0236493
0.0238103
0.0236417
0.0233541
0.0233149
0.0232148
0.0234102
0.0233903
0.0235781
0.0233667
0.0233601
0.0234357
0.0233962
0.0235689
0.0236507
0.0234616
0.0234817
0.0233841
0.0234246
0.0236326
0.0233458
0.0227074
0.0231433
0.0231125
0.0221613
0.0221978
0.0238142
0.0239194
0.0239121
0.023797
0.0238861
0.0239474
0.0239308
0.0235824
0.0235279
0.0237835
0.0237956
0.0238965
0.0236992
0.0236415
0.0239601
0.0239695
0.023984
0.0239765
0.0239477
0.0239121
0.0239462
0.0239738
0.0239766
0.0239779
0.0239724
0.0239743
0.0239685
0.023962
0.0239683
0.023982
0.0239797
0.0239781
0.0239835
0.0239809
0.0239833
0.0239745
0.0239763
0.0239725
0.0239761
0.0224195
0.0222858
0.0231238
0.0221679
0.0222851
0.0219266
0.0226419
0.0215026
0.0213837
0.0219578
0.0218733
0.023629
0.0232658
0.0233495
0.0230995
0.0231797
0.0236072
0.0238627
0.0237241
0.0237637
0.0233978
0.02363
0.0238214
0.023192
0.0230605
0.0234826
0.022561
0.0226474
0.0224118
0.0224858
0.0234579
0.0235656
0.0229658
0.0230282
0.0227437
0.0228501
0.0235466
0.023891
0.0239138
0.0206856
0.0194779
0.0196596
0.0190892
0.0192747
0.0206674
0.0196534
0.0197442
0.0197383
0.0200976
0.0205308
0.018057
0.0182368
0.0183621
0.0180748
0.0206577
0.020555
0.0187628
0.0189177
0.0184502
0.0186208
0.0205228
0.0205789
0.0204608
0.0210932
0.0209381
0.0194099
0.0192756
0.0200091
0.0199006
0.0236909
0.0237001
0.0239221
0.0239368
0.0239375
0.0239325
0.0239332
0.0239167
0.016478
0.0192574
0.0194974
0.0174035
0.0162854
0.0187177
0.0189713
0.0177342
0.017519
0.0215172
0.0193935
0.0194167
0.0212889
0.0192033
0.0188031
0.0194234
0.0193698
0.0214011
0.0182129
0.0179641
0.0181576
0.0183383
0.0170165
0.0172894
0.0177455
0.0236253
0.0237587
0.0237493
0.0237719
0.0237655
0.0236334
0.0234849
0.0235184
0.023513
0.023451
0.0234494
0.0234789
0.0235336
0.0237043
0.0236934
0.0237358
0.0237195
0.023554
0.0157618
0.016822
0.0169123
0.0167027
0.01676
0.0158097
0.0162641
0.017557
0.0177865
0.0170673
0.0172963
0.0160136
0.0160959
0.0155668
0.0156249
0.015698
0.0156172
0.0159627
0.0164624
0.0166188
0.0158475
0.0161566
0.0159442
0.0235358
0.0235189
0.0233019
0.0230125
0.0231017
0.0157633
0.0158983
0.0171691
0.0160649
0.0158716
0.0163722
0.0162668
0.0173437
0.0159131
0.0158822
0.0220326
0.0220535
0.0240598
0.0240597
0.0240731
0.0240596
0.0240595
0.0240729
0.0240595
0.0240595
0.024073
0.0240597
0.0240599
0.0240731
0.0240333
0.0240331
0.0240465
0.0240328
0.0240325
0.024053
0.0240323
0.0240319
0.0240527
0.0240319
0.0240324
0.0240528
0.0240327
0.0240332
0.0240532
0.0240336
0.0240338
0.0240468
0.0240072
0.0240066
0.0240264
0.0240062
0.0240048
0.0240256
0.0240181
0.0240178
0.0240287
0.0240171
0.0240175
0.0240283
0.024019
0.0240194
0.024026
0.0240074
0.0240081
0.0240209
0.0239815
0.0239808
0.0240001
0.0239931
0.023993
0.0239994
0.0239974
0.0239971
0.0240005
0.023992
0.0239934
0.024003
0.0239821
0.0239829
0.0239954
0.0239561
0.0239556
0.0239744
0.0239677
0.0239677
0.023974
0.0239721
0.0239721
0.0239752
0.0239678
0.0239689
0.0239779
0.0239576
0.0239581
0.0239705
0.0239308
0.0239306
0.0239493
0.0239429
0.0239431
0.0239493
0.0239482
0.0239483
0.0239513
0.023945
0.0239454
0.0239542
0.0239335
0.0239335
0.0239458
0.0239054
0.0239055
0.0239244
0.023918
0.0239184
0.0239246
0.0239243
0.0239245
0.0239275
0.023922
0.0239218
0.0239307
0.0239091
0.0239087
0.0239211
0.0238798
0.02388
0.0238992
0.0238996
0.0238998
0.0239029
0.0238978
0.0238971
0.0239064
0.0238841
0.0238835
0.0238961
0.0238539
0.023854
0.0238735
0.0238722
0.0238722
0.0238786
0.0238585
0.0238579
0.0238708
0.0238272
0.0238268
0.02384
0.0238271
0.0238266
0.0238464
0.0238397
0.0238312
0.0238416
0.0176384
0.0234408
0.0234892
0.0238323
0.0238328
0.0238524
0.023832
0.0238321
0.023845
0.023801
0.0238006
0.0238137
0.023801
0.0238003
0.02382
0.0238001
0.0185808
0.0185278
0.0219794
0.023805
0.0238251
0.0238057
0.0238064
0.0238259
0.0238056
0.0238058
0.0238189
0.0237747
0.0237744
0.0237876
0.0237519
0.0209404
0.0185918
0.0228947
0.0237752
0.0237982
0.0237796
0.0237802
0.0237933
0.0239782
0.0239813
0.0239813
0.0239823
0.0239834
0.0239785
0.0240009
0.0239977
0.0239979
0.0239542
0.0239572
0.0239571
0.0239592
0.0239592
0.023955
0.023977
0.0239724
0.0239735
0.0239305
0.0239335
0.0239333
0.0239365
0.0239368
0.0239326
0.0239536
0.0239494
0.0239507
0.023906
0.0239091
0.023909
0.0239132
0.0239138
0.0239095
0.0239312
0.023927
0.0239279
0.0238885
0.0238881
0.0238849
0.0239065
0.0239035
0.0239041
0.0238451
0.0238594
0.0238638
0.0138966
0.0172091
0.0172151
0.0214819
0.0215017
0.0132683
0.0238817
0.0238785
0.0238789
0.0240029
0.0240142
0.0240146
0.0239994
0.0239994
0.0239984
0.0240284
0.0240174
0.024017
0.0239993
0.0239995
0.024008
0.0240077
0.0240043
0.0240288
0.024018
0.0240183
0.0239802
0.0239866
0.0239867
0.0239882
0.0239863
0.0239801
0.0239991
0.0239927
0.0239914
0.0239898
0.0239894
0.0239866
0.024
0.0239981
0.0239985
0.023981
0.0239903
0.0239888
0.0239879
0.0239879
0.0239818
0.0240003
0.0239941
0.0239941
0.0239554
0.0239616
0.0239615
0.0239633
0.0239616
0.0239555
0.0239739
0.0239677
0.0239664
0.0239661
0.0239691
0.0239691
0.0239604
0.0239645
0.0239627
0.0239746
0.023973
0.0239713
0.0239698
0.0239666
0.0239708
0.0239571
0.0239659
0.023965
0.0239635
0.0239638
0.0239579
0.0239757
0.0239698
0.0239695
0.0239308
0.023937
0.0239367
0.0239394
0.0239373
0.0239312
0.0239494
0.0239434
0.0239424
0.0239424
0.0239454
0.0239453
0.0239167
0.0239364
0.0239349
0.0239457
0.023944
0.0239262
0.0239337
0.0239425
0.0239422
0.0239396
0.0239402
0.0239343
0.023952
0.0239461
0.0239456
0.0239059
0.0239122
0.0239118
0.0239151
0.0239126
0.0239064
0.023925
0.0239188
0.0239182
0.0239184
0.0239214
0.0239212
0.0239016
0.023922
0.0239176
0.0239226
0.0239213
0.0239044
0.0238612
0.0237583
0.0237713
0.0239096
0.0239187
0.023919
0.0239155
0.0239163
0.0239102
0.0239284
0.0239224
0.0239216
0.0238833
0.023806
0.0238201
0.023865
0.023867
0.0238924
0.0238849
0.0238912
0.0238947
0.0238908
0.0238916
0.0238853
0.0239041
0.0238978
0.023897
0.0238665
0.0238552
0.0238544
0.0238573
0.0238573
0.0238734
0.0238211
0.0238277
0.0238331
0.0162252
0.0237393
0.0237247
0.0218098
0.0218013
0.0148517
0.0238088
0.0238188
0.0201393
0.0238385
0.0238364
0.0238279
0.0238514
0.0238398
0.0238454
0.023977
0.0239779
0.0239762
0.0239885
0.0239837
0.0239822
0.0239845
0.0239844
0.0239875
0.0239849
0.0239824
0.0239866
0.0239986
0.0239982
0.0240001
0.0239877
0.0239895
0.0239898
0.0239745
0.0239726
0.0239715
0.0239872
0.0239862
0.0239865
0.0239881
0.023985
0.0239852
0.0239855
0.0239859
0.0239875
0.0239766
0.0239781
0.0239774
0.0239346
0.0239493
0.0239475
0.0239608
0.0239589
0.0239514
0.0239601
0.0239601
0.0239631
0.0239319
0.0238889
0.0239011
0.0237446
0.0237512
0.0238692
0.0239091
0.0239149
0.0239431
0.023965
0.0239607
0.023962
0.0239536
0.0239584
0.0239596
0.023971
0.0239735
0.0239751
0.0239606
0.0239615
0.0239573
0.0239706
0.0239709
0.0239665
0.0239072
0.0239253
0.023924
0.0239335
0.0239321
0.0239128
0.0239363
0.0239365
0.0239394
0.0238335
0.0236823
0.0236786
0.0237157
0.0237115
0.0238441
0.0238585
0.023732
0.0237383
0.0236768
0.0236767
0.0238317
0.0239424
0.0239382
0.0239394
0.0239223
0.0239226
0.0239057
0.0239479
0.023948
0.0239438
0.0238145
0.0232587
0.0231912
0.0235721
0.0235561
0.0238276
0.0238482
0.0237245
0.0237202
0.023171
0.0230993
0.0238051
0.0238915
0.0238598
0.0238626
0.0237851
0.0237965
0.0238729
0.0239197
0.0239153
0.0239162
0.0239062
0.0239154
0.0239167
0.0239072
0.0239086
0.0239042
0.0239049
0.0239213
0.0239218
0.023918
0.0239194
0.0239064
0.023925
0.0239255
0.0239212
0.0238438
0.0236947
0.0236856
0.0237356
0.0237302
0.0238452
0.0238339
0.0236018
0.0235872
0.0236759
0.0236653
0.0238413
0.023877
0.0238566
0.023857
0.0238241
0.0238345
0.0238816
0.0239007
0.0239043
0.0239058
0.0238966
0.0239012
0.023897
0.023901
0.0239005
0.0238974
0.0238367
0.0230534
0.0229782
0.0228265
0.0229984
0.0238334
0.0238447
0.023745
0.0237406
0.0238567
0.0237696
0.0237647
0.0239907
0.0239939
0.0239941
0.0239938
0.0239951
0.0239902
0.0240002
0.0239968
0.0239956
0.0239986
0.0239974
0.0239978
0.0238899
0.0238873
0.0238808
0.0239
0.0238937
0.0238931
0.0238934
0.0238966
0.0238964
0.0238864
0.0238958
0.0238927
0.023902
0.0238989
0.0238875
0.0235317
0.0233238
0.0233507
0.0231498
0.0231915
0.0234399
0.0238592
0.0238658
0.023869
0.0239984
0.023998
0.0239992
0.0239904
0.0239921
0.0239929
0.0239955
0.023997
0.0240022
0.0239903
0.0239953
0.0239937
0.0239946
0.0239945
0.0239913
0.0238944
0.0239099
0.023905
0.023916
0.0239115
0.0238954
0.023912
0.0239122
0.0239153
0.0209681
0.019537
0.0194181
0.0201664
0.02004
0.0214374
0.0233648
0.0230769
0.0231099
0.0238943
0.0238912
0.0238917
0.0238873
0.0238903
0.023895
0.0238838
0.0238886
0.0238859
0.0216945
0.020416
0.0202946
0.0209428
0.0208592
0.0219971
0.023875
0.0238774
0.0238807
0.023871
0.0238742
0.0238734
0.0238757
0.0238753
0.023872
0.0240153
0.0240092
0.0240088
0.0240099
0.0240096
0.0240155
0.0240012
0.0240075
0.024008
0.0240041
0.0240039
0.0240019
0.0240155
0.0240095
0.0240099
0.0240089
0.0240092
0.0240152
0.0239934
0.0239904
0.0239915
0.0239961
0.0239976
0.0239996
0.0239923
0.0239933
0.0239927
0.0239967
0.0239963
0.0239945
0.0237809
0.0238002
0.0238836
0.0238923
0.0238748
0.0238759
0.0236495
0.0234962
0.0235116
0.023376
0.0233978
0.0235777
0.023641
0.0238071
0.0238025
0.0238143
0.023811
0.0236521
0.0238721
0.0238572
0.0238569
0.0239746
0.0239807
0.0239833
0.0239772
0.0239554
0.0239714
0.0239674
0.0239805
0.023977
0.0239921
0.023991
0.0239897
0.0239915
0.0239912
0.0239928
0.0239794
0.0239783
0.0239794
0.0239821
0.0239813
0.0239804
0.0238028
0.0238115
0.0239029
0.0238896
0.0237873
0.0237948
0.0239445
0.0239486
0.0239615
0.0239553
0.0239365
0.0239405
0.0239477
0.0239488
0.0239353
0.0239614
0.0239607
0.0239592
0.0239636
0.0239621
0.0239629
0.0239557
0.0239549
0.0239534
0.0239577
0.0239563
0.0239571
0.0239328
0.023946
0.0239469
0.0239687
0.0239697
0.0239679
0.0239731
0.0239726
0.0239711
0.0239756