/*--------------------------------*- C++ -*----------------------------------*\
| =========                 |                                                 |
| \\      /  F ield         | OpenFOAM: The Open Source CFD Toolbox           |
|  \\    /   O peration     | Version:  5.x                                   |
|   \\  /    A nd           | Web:      www.OpenFOAM.org                      |
|    \\/     M anipulation  |                                                 |
\*---------------------------------------------------------------------------*/
FoamFile
{
    version     2.0;
    format      ascii;
    class       volScalarField;
    location    "200";
    object      p;
}
// * * * * * * * * * * * * * * * * * * * * * * * * * * * * * * * * * * * * * //

dimensions      [0 2 -2 0 0 0 0];

internalField   nonuniform List<scalar> 
6584
(
20.999
19.1746
17.3497
15.5251
13.7006
11.8762
10.0518
8.22801
6.40444
4.58084
2.75667
0.931323
-0.895587
-2.72396
-4.55321
-6.38268
-8.21187
-10.0406
-11.869
-13.6971
-15.5249
-17.352
-19.1782
-21.0034
21.0006
19.1789
17.3553
15.5311
13.7068
11.8814
10.0547
8.22934
6.40558
4.58226
2.75837
0.933225
-0.893733
-2.72239
-4.55204
-6.38232
-8.21287
-10.0432
-11.8734
-13.7028
-15.5309
-17.3581
-19.183
-21.0047
21.0009
19.1821
17.3619
15.5392
13.7153
11.8899
10.0611
8.23226
6.4072
5.03955
3.21705
1.39303
-0.433446
-2.26254
-4.09327
-6.38598
-8.22107
-10.0534
-11.8837
-13.7123
-15.5392
-17.3644
-19.1859
-21.0057
21.0009
19.1827
17.3642
15.5443
13.722
11.8978
10.0693
8.23899
6.41127
5.04179
3.22102
1.39881
-0.427369
-2.25896
-4.09827
-5.93693
-8.23698
-10.0675
-11.8953
-13.7217
-15.5462
-17.3679
-19.1873
-21.0065
21.0005
19.1825
17.3643
15.546
13.7262
11.9037
10.0783
8.25373
6.87627
5.0465
3.22654
1.40707
-0.418243
-2.26254
-4.11724
-5.96067
-7.79368
-10.0803
-11.9055
-13.7293
-15.5505
-17.3699
-19.1886
-21.0073
21
19.1821
17.364
15.5459
13.7276
11.9077
10.0867
8.72078
6.89762
5.07394
3.47168
1.64956
-0.171137
-2.04601
-4.14089
-5.97938
-7.80764
-10.091
-11.9139
-13.7344
-15.5532
-17.3716
-19.1897
-21.008
20.9995
19.1816
17.3635
15.5454
13.7271
11.9083
10.0888
8.72291
6.90388
5.0884
3.50512
1.80334
-0.0105841
-2.06793
-3.93409
-5.99855
-7.82201
-10.1007
-11.9202
-13.7379
-15.5555
-17.3731
-19.1908
-21.0087
20.9991
19.1811
17.3629
15.5446
13.7261
11.9071
10.0882
8.72307
6.90093
5.07999
3.49241
1.80795
-2.02037
-3.97062
-6.01832
-7.83493
-10.1071
-11.9244
-13.7407
-15.5575
-17.3745
-19.1918
-21.0092
20.9987
19.1806
17.3623
15.5438
13.725
11.9054
10.0855
8.72031
6.89438
5.06406
3.45866
1.71883
-2.13591
-4.01046
-6.03398
-7.8421
-10.1092
-11.9261
-13.7426
-15.5589
-17.3754
-19.1924
-21.0095
20.9984
19.1802
17.3618
15.5431
13.7241
11.9043
10.0837
8.71698
6.88768
5.05277
3.43856
1.68369
-2.18688
-4.03204
-6.04074
-7.84424
-10.1074
-11.924
-13.7419
-15.5593
-17.3758
-19.1926
-21.0095
20.9982
19.1798
17.3614
15.5426
13.7236
11.9037
10.0829
8.71531
6.88552
5.05179
3.44048
1.70096
-2.16319
-4.02291
-6.03382
-7.83869
-10.1016
-11.9183
-13.7374
-15.5575
-17.3756
-19.1924
-21.0093
20.9981
19.1797
17.3612
15.5425
13.7235
11.904
10.0833
8.71547
6.88763
5.05886
3.4569
1.74095
-2.09601
-3.99035
-6.01543
-7.82606
-10.0917
-11.9099
-13.7301
-15.5523
-17.3735
-19.1918
-21.0087
20.9982
19.1797
17.3613
15.5427
13.7239
11.905
10.0848
8.7173
6.89209
5.06866
3.47607
1.78121
-2.02271
-3.94891
-5.99108
-7.80877
-10.0783
-11.8988
-13.7207
-15.5446
-17.3695
-19.1907
-21.0079
20.9983
19.1798
17.3615
15.543
13.7246
11.9061
10.0862
8.26395
6.89595
5.07354
3.48117
1.77544
0.0584787
-2.06897
-3.91038
-5.96368
-7.78896
-10.0623
-11.8856
-13.7095
-15.5366
-17.3638
-19.1877
-21.0068
20.9984
19.18
17.3617
15.5433
13.725
11.9065
10.0855
8.25938
6.89151
5.05714
3.45886
1.64549
-0.176895
-2.03434
-4.10702
-5.94073
-8.22515
-10.0511
-11.8768
-13.7015
-15.5292
-17.3563
-19.1812
-21.0042
20.9985
19.18
17.3617
15.5433
13.7249
11.9059
10.0828
8.25108
6.87546
5.04881
3.22818
1.63453
-0.195214
-2.26039
-4.09864
-5.93257
-8.21859
-10.0455
-11.8713
-13.6991
-15.525
-17.3507
-19.1758
-21.0014
20.9986
19.18
17.3616
15.543
13.7243
11.9042
10.0784
8.24584
6.41496
5.04704
3.22392
1.39885
-0.428991
-2.2626
-4.0969
-5.92779
-8.2124
-10.0389
-11.8659
-13.6938
-15.5208
-17.3471
-19.1745
-21
20.9986
19.1799
17.3613
15.5425
13.7232
11.9011
10.073
8.24126
6.41356
4.58889
3.22107
1.39636
-0.435843
-2.26434
-4.55199
-6.38054
-8.20862
-10.0354
-11.8625
-13.6899
-15.5166
-17.3434
-19.1707
-20.998
20.9985
19.1796
17.3608
15.5418
13.722
11.8977
10.0677
8.23804
6.41183
4.58764
2.75863
0.937121
-0.8913
-2.72467
-4.54978
-6.37882
-8.2063
-10.0332
-11.86
-13.687
-15.5138
-17.3408
-19.1676
-20.996
20.9984
19.1793
17.3602
15.541
13.7208
11.895
10.0643
8.23637
6.41043
4.5863
2.75815
0.934786
-0.89262
-2.72341
-4.54886
-6.37767
-8.2045
-10.0314
-11.858
-13.6848
-15.5117
-17.3386
-19.1653
-20.9945
20.9982
19.179
17.3596
15.54
13.7195
11.8931
10.0621
8.23519
6.40946
4.58512
2.75758
0.932834
-0.894105
-2.72288
-4.54849
-6.37675
-8.20316
-10.03
-11.8564
-13.6831
-15.51
-17.3368
-19.1633
-20.9932
20.9981
19.1786
17.3589
15.539
13.7182
11.8916
10.0607
8.23425
6.40845
4.58418
2.75696
0.931763
-0.89489
-2.72276
-4.54832
-6.37609
-8.2022
-10.029
-11.8552
-13.6818
-15.5086
-17.3353
-19.1617
-20.9922
20.9978
19.1781
17.3582
15.5381
13.717
11.8904
10.0595
8.23311
6.40759
4.58343
2.75656
0.931096
-0.895366
-2.72266
-4.54822
-6.37559
-8.2015
-10.0282
-11.8543
-13.6808
-15.5075
-17.334
-19.1603
-20.9912
20.9976
19.1777
17.3575
15.5371
13.7158
11.8892
10.0585
8.23206
6.40681
4.58264
2.75622
0.930634
-0.895702
-2.7226
-4.54816
-6.37519
-8.20098
-10.0276
-11.8535
-13.6799
-15.5065
-17.3329
-19.1591
-20.9904
20.9973
19.1772
17.3567
15.5362
13.7146
11.8881
10.0575
8.23108
6.40592
4.58185
2.75595
0.930286
-0.89594
-2.72254
-4.5481
-6.37489
-8.20057
-10.027
-11.8528
-13.6792
-15.5057
-17.332
-19.1581
-20.9898
20.9971
19.1767
17.356
15.5352
13.7135
11.887
10.0566
8.23016
6.40502
4.5811
2.75519
0.929624
-0.896483
-2.72276
-4.54828
-6.37484
-8.20048
-10.0269
-11.8527
-13.679
-15.5052
-17.3313
-19.1573
-20.9891
20.9968
19.1763
17.3554
15.5344
13.7124
11.8859
10.0557
8.22934
6.40415
4.57969
2.75379
0.928281
-0.897666
-2.72378
-4.5493
-6.37567
-8.20126
-10.0276
-11.8534
-13.6795
-15.5054
-17.3314
-19.1573
-20.989
20.9965
19.1758
17.3547
15.5336
13.7114
11.885
10.0549
8.22854
6.40292
4.57793
2.75211
0.926562
-0.899358
-2.72537
-4.55087
-6.37709
-8.20265
-10.0288
-11.8546
-13.6806
-15.5065
-17.3324
-19.1582
-20.9893
20.9963
19.1754
17.3541
15.5328
13.7105
11.8841
10.0542
8.22736
6.40128
4.57624
2.75044
0.924881
-0.901017
-2.72696
-4.55243
-6.37853
-8.20404
-10.0301
-11.8558
-13.6818
-15.5076
-17.3334
-19.1592
-20.9897
20.996
19.175
17.3535
15.532
13.7096
11.8831
10.053
8.22568
6.39967
4.57455
2.7488
0.92323
-0.902646
-2.72851
-4.55399
-6.37996
-8.20545
-10.0315
-11.8571
-13.683
-15.5087
-17.3345
-19.1602
-20.9901
20.9958
19.1746
17.3529
15.5313
13.7087
11.8817
10.0512
8.22401
6.39804
4.57288
2.74718
0.921603
-0.904251
-2.73005
-4.55551
-6.3814
-8.20687
-10.0328
-11.8584
-13.6842
-15.5098
-17.3356
-19.1613
-20.9905
20.9956
19.1742
17.3524
15.5307
13.7072
11.8793
10.0492
8.22233
6.39644
4.57124
2.74556
0.919991
-0.90584
-2.73158
-4.55704
-6.38282
-8.20829
-10.0341
-11.8596
-13.6854
-15.511
-17.3368
-19.1624
-20.991
20.9954
19.1738
17.3519
15.5296
13.7047
11.8764
10.0472
8.22066
6.39484
4.56959
2.74397
0.918396
-0.907415
-2.73311
-4.55853
-6.38427
-8.20969
-10.0355
-11.8609
-13.6867
-15.5122
-17.3379
-19.1635
-20.9914
20.9952
19.1735
17.3515
15.5281
13.7017
11.8736
10.0452
8.21899
6.39324
4.56796
2.74236
0.916812
-0.908982
-2.73462
-4.56003
-6.3857
-8.21111
-10.0368
-11.8623
-13.6879
-15.5135
-17.3391
-19.1646
-20.9919
20.995
19.1732
17.351
15.5265
13.6989
11.8709
10.0432
8.21731
6.39161
4.56631
2.74074
0.915236
-0.910537
-2.7361
-4.56152
-6.38709
-8.21253
-10.0382
-11.8636
-13.6892
-15.5147
-17.3403
-19.1658
-20.9923
20.9949
19.1729
17.3507
15.5255
13.6971
11.8686
10.0413
8.21566
6.39008
4.56473
2.73912
0.913668
-0.912092
-2.73767
-4.56299
-6.38852
-8.21393
-10.0395
-11.8649
-13.6905
-15.516
-17.3415
-19.167
-20.9928
1.7273
-1.9071
-1.78836
1.68494
-1.97271
-1.92038
1.69684
-1.95283
-1.97492
1.73558
-1.88487
-1.94593
1.7769
-1.80511
-1.87494
1.78856
0.185806
0.0656368
-1.73575
-1.79553
1.81752
0.219234
-1.77149
-1.7054
3.46671
1.96176
2.03083
-1.02738
-0.884342
-2.12418
-3.55467
-3.51582
3.44141
1.92137
1.954
1.69898
0.922201
0.947389
-1.19792
-1.15564
-2.1845
-3.58879
-3.566
3.43817
1.92986
1.92013
1.68501
0.910495
0.904705
-1.2326
-1.23889
-2.16979
-3.58606
-3.59172
3.4521
1.96428
1.93352
1.71487
0.964839
0.940308
-1.12378
-1.1739
-2.10515
-3.55262
-3.57984
-1.00499
-1.07731
-2.03165
-3.5064
-3.54157
-0.905675
-0.948116
1.64914
0.168305
0.175422
-0.0623187
-1.56743
-1.72762
0.952061
1.00222
1.75878
0.883262
0.830762
0.992142
0.893157
-1.15221
-1.06829
-1.86083
-1.1487
-1.20536
0.905295
0.919072
1.69423
0.830095
0.813396
0.826431
0.831229
-1.23464
-1.20324
-1.958
-1.25781
-1.2753
-1.20825
-1.25403
-1.95064
0.936879
0.913726
1.68717
0.821136
0.849314
0.813874
0.818715
-1.17932
-1.22857
-1.9692
-1.26868
-1.23625
-1.27825
-1.2723
-1.97271
0.8527
0.879526
0.851889
0.849126
-1.08028
-1.1227
-1.91256
-1.17831
-1.16433
-1.23187
-1.17986
-1.92154
0.91539
0.939038
0.883362
0.911515
-0.95445
-0.998903
-1.15867
-1.11663
-1.84466
0.964645
0.939722
0.941533
0.962332
-0.851386
-0.901074
1.77091
1.01247
1.09981
-0.532756
-0.381677
3.47156
2.00184
1.96915
1.75714
1.02402
0.997326
-0.49734
-0.522411
-1.9662
-3.46195
-3.49457
0.613821
0.488864
-1.0068
-1.1345
-1.84292
0.993659
0.968409
1.7199
0.433149
0.452431
0.5107
0.521216
0.45042
0.46914
-0.526101
-0.548222
-1.83475
-1.11049
-1.06764
0.522987
0.532702
-1.06156
-1.02215
-1.76765
0.225005
0.954587
1.00461
-0.866103
-0.741768
0.0981092
-0.560271
-0.970354
-0.610898
-0.452183
-0.592179
-0.949424
-1.1771
-1.17886
-1.24709
-1.24696
-1.15095
-1.14817
-1.02287
-0.631087
-1.05311
-0.471338
-0.494624
-0.580482
-0.556298
-0.929006
0.422118
0.855769
0.458547
0.478979
0.46037
0.848188
0.482118
0.541523
0.932728
0.4744
0.421107
-1.11778
-1.11333
0.816617
0.816752
0.841495
0.840707
-1.20879
-1.2057
-1.24892
-1.60003
-1.58999
-1.61071
-1.60291
-1.252
-1.22883
-1.56616
-1.54684
-1.586
-1.57152
-1.22944
0.83575
0.83768
0.813205
0.814129
-1.19058
-1.19536
-1.23805
-1.59807
-1.60835
-1.58025
-1.59389
-1.23382
-1.28618
-1.61544
-1.61252
-1.611
-1.61518
-1.28616
0.437338
0.86342
0.489595
0.469232
0.508443
0.488033
0.867416
0.833235
0.47311
0.836884
-1.10121
-1.10319
-1.20483
-1.55956
-1.57485
-1.53873
-1.55449
-1.20399
0.491446
0.508074
0.89553
0.525553
0.508272
0.546159
0.527659
0.899514
0.470352
0.489275
-0.973437
-0.604733
-0.583878
-0.624089
-0.604436
-0.980021
-0.542293
0.525825
0.536955
0.200917
0.534487
0.521409
-0.0104869
-0.417096
-0.468555
-0.0419436
3.4852
2.12917
2.00583
1.79269
1.12629
1.11064
-0.0335147
-0.742535
-0.788584
0.424416
1.04971
1.02766
1.76238
0.289573
0.282312
0.17766
0.525788
0.50207
0.290389
0.304072
-0.367384
-0.401853
0.0415163
0.31245
0.621938
0.626686
-0.360353
-0.26873
0.179134
0.930714
1.29136
1.28111
-1.18122
-1.01908
-1.16387
0.905519
1.26819
1.27068
1.26769
1.26661
0.904741
-1.24143
-1.2435
-1.13615
-1.15371
-0.230393
-0.236174
-0.922829
-0.553331
-0.560134
0.880457
0.870073
0.197191
0.947672
0.553755
0.664764
-1.13546
-0.978445
-1.01218
-1.18813
-1.50395
-1.47021
-1.53938
-1.51298
-1.19869
0.90846
1.2716
1.2672
1.27959
1.27213
0.909994
0.821932
0.628056
0.654705
0.623456
0.62271
0.815065
0.657273
0.656351
0.835699
-1.22581
-1.19675
-1.25368
-1.41173
-1.38408
-1.4329
-1.42709
-1.26685
1.27321
1.27839
0.924309
0.828244
0.650724
0.625846
0.81277
0.623105
0.623687
0.622195
0.620447
0.816098
-1.17602
-1.21621
-1.25693
-1.42217
-1.42802
-1.36316
-1.39805
-1.23488
-1.28327
-1.43727
-1.43322
-1.43084
-1.4345
-1.28069
-1.08877
-0.914858
-0.914213
-0.976624
-0.958413
-1.11651
-1.1885
-1.51735
-1.53338
-1.49572
-1.51179
-1.18305
0.92649
0.563116
0.548453
0.604727
0.59581
0.929821
0.33033
0.332316
0.95033
0.616198
0.60794
0.323013
0.329285
-0.223608
-0.224173
-0.47824
-0.149393
-0.454457
-0.277698
-0.509059
-0.337562
-0.315124
-0.349449
-0.513744
0.553218
0.376959
0.479507
0.354367
0.533429
0.426035
0.437997
0.299816
0.293376
0.516028
0.34559
0.347785
0.344829
0.343268
0.516792
0.448046
0.453279
-0.533836
-0.534424
0.527735
0.359436
0.351305
0.301123
0.295645
-0.655907
-0.80981
-0.769939
-0.8523
-0.821502
-0.676472
-1.17651
-1.1686
-1.24362
-1.24607
-1.14171
-1.14807
-0.664149
-0.816648
-0.826347
-0.804775
-0.815041
-0.659494
-0.834194
-0.855922
-0.830841
-0.831159
-0.48131
-0.300769
-0.291799
-0.320431
-0.302423
-0.484184
-0.240424
-0.272334
0.449766
0.646882
0.637294
0.67006
0.651498
0.450643
0.615048
0.616735
0.63266
0.616565
0.507862
0.695916
0.675583
0.449099
0.444083
-0.961041
-0.971482
-1.13183
-0.918877
-0.883039
-0.861943
-0.908016
-0.88984
-1.09522
-0.94087
-0.953829
0.620221
0.622589
0.820544
0.562127
0.560624
0.599324
0.564748
0.563461
0.564733
0.561582
0.564334
0.814776
0.622815
0.620923
0.592452
0.587089
0.616841
0.600727
0.596122
0.600726
0.588863
0.59418
0.836197
0.655463
0.653017
-1.22303
-1.19861
-1.41783
-1.41207
-1.24892
-1.26385
-1.42622
-1.41895
0.660139
0.655907
0.83108
0.600271
0.601714
0.558896
0.594284
0.596048
0.605665
0.600836
0.597377
0.622168
0.62309
0.813455
0.564173
0.562594
0.565155
0.564104
0.559988
0.558918
0.562339
0.561183
0.814895
0.621042
0.621866
-1.17722
-1.21018
-1.4115
-1.41889
-1.25181
-1.23002
-1.40076
-1.40814
-1.43875
-1.43689
-1.28495
-1.28274
-1.43663
-1.43752
0.437974
0.474722
0.655614
0.662939
0.646221
0.652248
0.462025
0.500416
0.674136
0.650764
0.664728
0.67125
0.49319
0.625815
0.624318
0.614199
0.625494
0.481604
0.639259
0.645347
0.624685
0.635151
0.476354
-0.938453
-0.921076
-1.09251
-0.871442
-0.897732
-0.859541
-0.86206
-0.901835
-1.11222
-0.948996
-0.931956
0.495628
0.319375
0.327904
0.343712
0.317666
0.49788
0.299829
0.473057
0.329924
0.476794
-0.623335
-0.79436
-0.801619
-0.780223
-0.790999
-0.615534
-0.562641
-0.573569
0.334517
0.346457
0.299606
0.319805
-0.19816
-0.22139
-2.00635
-3.50325
-3.47317
-1.75926
-1.07012
-1.03742
0.362957
0.492481
0.47754
-0.0136852
0.0266241
0.295367
-1.73694
-0.996241
-0.990537
1.30754
1.29394
0.934048
-1.19205
-1.15007
-1.15685
-1.23698
-1.24042
1.29173
1.2996
0.950495
-1.13259
-1.12476
-1.16741
-0.911903
-0.895734
-1.06732
0.96941
1.32904
1.31146
0.677198
0.680062
0.835449
-0.912259
-0.934602
-1.08971
0.849603
0.663357
0.676137
-1.23119
-1.16405
-1.17005
-1.20671
-1.3322
-1.3298
-1.27233
-1.37959
-1.37348
-1.23968
0.927367
1.28146
1.28839
0.666571
0.659374
0.84363
-1.1831
-1.14486
-1.13891
-1.22476
-1.2651
-1.32425
-1.32718
-1.28012
-1.33613
-1.33436
-1.33007
-1.33268
-1.2759
0.826715
0.682272
0.671915
-1.21587
-1.35469
-1.36059
-1.14089
-1.47347
-1.49012
0.22366
0.222227
0.631668
0.619603
0.952912
0.222449
0.223765
-0.554044
-0.534882
-0.884391
-0.520025
-0.470299
0.429114
0.400746
0.404342
0.453099
0.448157
0.392363
0.396655
0.413934
0.411142
0.46637
-0.501649
-0.492432
-0.544204
0.356687
0.358249
0.528713
-0.824741
-0.414015
-0.432712
-0.579505
-0.623207
-0.676405
-0.661663
-0.754666
-0.738307
-0.757084
-0.717935
-0.534796
-1.12075
-1.12408
-1.17466
-1.17753
-1.1237
-1.12588
-1.24834
-1.24712
-1.09643
-1.09464
-1.1504
-1.14478
-1.09114
-1.09008
-0.706474
-0.715437
-0.686225
-0.69252
-0.640503
-0.724969
-0.733477
-1.06405
-0.892277
-0.886903
0.423786
0.456469
0.514137
0.514278
0.54327
0.536793
0.474651
0.495174
0.498524
0.511111
0.494309
0.454706
0.695973
0.701747
0.515327
0.462441
0.397188
0.400321
0.423488
-0.783899
-0.772563
0.652399
0.657858
0.847982
0.501186
0.50386
-1.21295
-1.20284
-1.35795
-1.35221
-1.22019
-1.23535
-1.36749
-1.36256
0.841696
0.659455
0.660131
-1.18486
-1.19986
-1.34111
-1.34103
-1.28614
-1.28623
-1.34072
-1.34093
0.440958
0.490016
0.545639
0.546867
0.525454
0.524211
0.464841
0.685345
0.683537
0.829867
0.508046
0.504658
0.514171
0.520726
0.4769
0.529088
0.527453
0.501188
0.499222
-1.34297
-1.3482
-1.21098
-1.19469
-1.33277
-1.33842
0.513349
0.662474
0.667754
0.653623
0.657299
0.509626
-0.594516
-0.740501
-0.777241
-0.728313
-0.734584
-0.592303
-0.622909
-0.683404
-0.683089
-0.544306
-0.50634
-0.588433
0.191644
0.226976
0.240294
0.208321
0.54265
0.373972
0.359687
0.384405
0.377217
0.517233
-0.0606271
-0.0875266
-0.287118
-0.282366
-0.457852
0.394858
0.423793
0.360824
0.28551
0.282489
0.33295
0.323466
0.171131
0.303649
0.259028
0.255699
0.252388
0.25666
0.305693
0.106223
-0.155463
-0.187153
-0.324016
-0.0644515
-0.104666
-1.13849
-1.14393
-1.18645
-1.02283
-1.0511
-1.05449
-1.06231
-1.05577
-1.24006
-1.24163
-1.02081
-1.02854
-1.00694
-1.01279
-1.16039
-1.1163
-1.10826
-0.23801
-0.183762
-0.172795
-0.19769
-0.193207
-0.242595
-0.988668
-1.03322
-1.02604
-1.05059
-1.04232
-1.00063
-1.22808
-1.20542
-1.17182
-1.17142
-1.26946
-1.32747
-1.325
-1.15545
-1.15027
-1.18269
-1.22178
-1.31757
-1.32111
-1.26158
-1.3388
-1.33745
-1.28161
-1.27872
-1.33495
-1.33665
-0.972825
-1.01248
-1.0054
-1.00458
-1.01031
-0.965943
0.219836
0.217264
0.216973
0.218839
0.325446
0.269959
0.267978
-0.119944
-0.121897
-0.222634
-0.159584
-0.167371
-0.163901
-0.158234
-0.221639
-0.425291
-0.442544
-0.500724
-0.368393
-0.186382
-0.265968
-0.226361
-0.331612
-0.307177
-0.238114
-0.326352
-0.383821
-0.391832
-0.377887
-0.379075
-0.317771
-0.3645
-0.40103
-0.403317
-0.400574
-0.406249
-0.359886
0.390724
0.458784
0.428631
0.374575
0.36929
0.391322
0.383977
0.425632
0.450841
0.406179
0.401533
0.298448
0.296355
0.401051
0.402807
0.348422
0.385226
0.388096
0.446768
0.366164
0.364524
0.361374
0.460867
0.396735
0.385888
-0.472407
-0.477922
-0.533529
-0.431265
-0.436219
-0.411401
-0.421527
-0.538243
-0.482574
-0.474603
0.297993
0.242641
0.247558
0.234825
0.238121
0.295668
-0.705969
-0.690431
-0.634495
-0.694185
-0.729138
-0.720643
-1.09447
-1.17348
-1.1268
-1.13269
-1.07695
-1.06987
-1.09019
-1.08426
-1.24632
-1.24753
-1.05219
-1.05888
-1.03668
-1.04478
-1.14675
-1.08912
-1.08229
-1.10096
-1.09471
-1.14467
-1.06372
-0.697858
-0.699699
-0.650524
-0.699564
-0.703684
-0.840769
-0.78979
-0.77999
-0.809493
-0.800337
-0.848829
-0.83299
-0.777119
-0.773522
-0.772841
-0.770861
-0.831951
-0.737998
-0.315026
-0.373533
-0.37717
-0.250018
-0.261568
0.418106
0.513311
0.512761
0.452437
0.458405
0.527147
0.5183
0.487325
0.491093
0.555096
0.552647
0.615999
0.487438
0.485313
0.393774
0.392833
0.453329
0.361089
0.428246
0.388202
0.394269
-0.967024
-1.01949
-1.01454
-1.02316
-1.022
-0.966218
-0.938322
-0.929262
-0.87562
-0.824666
-0.83888
-0.81259
-0.816714
-0.869564
-0.898077
-0.850561
-0.858051
-0.890672
0.560875
0.559891
0.593994
0.54434
0.545796
0.533756
0.570069
0.563877
0.564377
0.562454
0.563414
0.587205
0.525197
0.527921
0.528246
0.525855
0.586024
0.615176
0.5574
0.55697
0.534781
0.553675
0.610297
0.504511
0.49706
0.597953
0.54256
0.54021
0.546766
0.544694
0.599569
0.590956
0.534102
0.530839
0.537572
0.535151
0.592402
-1.21747
-1.19921
0.602203
0.550313
0.551449
0.547076
0.548523
0.602302
0.562599
0.549531
0.541478
0.577235
0.596044
0.534664
0.537457
0.536109
0.53349
0.598987
0.599801
0.543967
0.545571
0.54041
0.542532
0.598718
0.564341
0.564205
0.565633
0.564175
0.559554
0.558941
0.562153
0.562471
-1.17975
-1.20483
-1.28602
-1.3408
-1.33993
-1.33833
-1.33971
-1.2848
0.442761
0.538411
0.543097
0.487621
0.46142
0.525544
0.530957
0.514334
0.511248
0.62536
0.566161
0.568091
0.620187
0.564981
0.549902
0.569234
0.568928
0.623802
0.52064
0.517391
0.526512
0.529247
0.480188
0.499811
0.513291
-0.935421
-0.990879
-0.992696
-0.980608
-0.986239
-0.928756
-0.881567
-0.890253
-0.853331
-0.822025
-0.817681
-0.855304
-0.940057
-0.991834
-0.997551
-0.991141
-0.989582
-0.933747
0.32206
0.376407
0.375644
0.379204
0.377838
0.324859
0.328465
0.389844
0.396982
0.376968
0.381943
0.318883
0.293228
0.353442
0.350921
0.361014
0.357273
0.331231
0.376289
0.379353
0.351714
0.361475
0.326203
-0.680371
-0.683493
-0.6282
-0.552245
-0.583369
0.21624
0.218016
0.30706
0.243772
0.234906
0.26549
0.260177
0.314679
0.215066
0.216243
-0.100708
-0.112232
3.23268
2.09728
2.31665
1.6444
0.280538
0.495736
-0.176657
-1.56841
-1.3361
-2.03965
-3.20245
-3.19153
5.08645
3.95499
4.16324
3.50095
2.13647
2.1029
1.68196
0.209865
0.286376
-0.0191073
-1.58334
-1.57576
-2.0573
-3.46641
-3.4429
-3.92774
-5.07312
-5.06184
5.0855
3.95061
3.95694
3.49872
2.03895
2.14778
1.82819
1.16381
1.12958
0.0196672
-0.740096
-0.747279
-1.96804
-2.55352
-2.54078
-3.96099
-5.09732
-5.08419
5.07244
3.9252
3.94568
3.48451
3.02906
3.03952
1.79667
1.57242
1.58623
-2.06651
-2.7424
-2.71434
-4.00141
-5.12179
-5.10951
5.05725
3.90373
3.91862
3.45158
2.98814
2.99657
1.71124
1.47485
1.48297
-2.16355
-2.81026
-2.78794
-4.02962
-5.14009
-5.13241
5.05097
3.89978
3.90118
3.43707
2.97247
2.97363
1.68321
1.44548
1.44581
-2.18673
-2.82945
-2.8275
-4.02806
-5.14169
-5.14338
5.05467
3.91036
3.90145
3.44369
2.98291
2.97854
1.70531
1.47283
1.46775
-2.14017
-2.79738
-2.81251
-3.99998
-5.12506
-5.13535
5.06373
3.92625
3.91424
1.74637
1.51858
1.5124
-2.06809
-2.74047
-2.76288
-3.95943
-5.09744
-5.11202
5.07281
3.93852
3.93004
-1.99655
-2.57159
-2.58635
-3.91949
-5.06665
-5.0821
5.06759
4.15069
4.16099
3.46013
2.10142
2.11654
1.76722
1.09428
1.10206
0.0304664
-0.314197
-0.353477
-2.03487
-3.4244
-3.45197
-4.1181
-5.03436
-5.0511
5.05082
4.13973
4.14294
3.22984
2.09196
2.09883
1.63675
0.266949
0.283358
-0.191795
-1.56993
-1.56863
-2.0308
-3.18065
-3.41892
-4.10095
-5.02039
-5.02463
3.22586
2.31373
2.31662
1.40065
0.489466
0.263495
-0.426591
-1.34424
-1.57028
-2.26131
-3.17921
-3.17818
1.49228
1.50293
1.73689
-1.89201
-1.62152
-1.64536
-1.55326
-1.5737
-1.80614
1.44711
1.44943
1.68721
-1.96909
-1.70643
-1.71278
-1.65226
-1.67106
-1.93191
1.4629
1.45837
1.69316
-1.95906
-1.69587
-1.6853
-1.7138
-1.71531
-1.97568
1.50646
1.50092
1.73028
-1.89384
-1.62147
-1.66253
-1.68101
-1.66718
-1.93836
-1.81485
-1.58952
-1.5793
-1.65319
-1.6424
-1.86477
1.1063
1.13116
1.79529
0.163679
0.294469
0.286497
-0.0676513
-0.0919196
0.103704
-1.56888
-1.55829
-1.7859
1.11055
1.17338
1.82881
0.422188
0.451796
0.476033
0.901559
0.941439
0.265855
0.263676
0.356052
-1.75769
-1.51792
-1.53349
-0.989955
-0.989334
-1.72861
3.00651
3.01761
3.47556
1.99017
2.56053
2.54652
2.58866
2.57515
2.00052
-1.01032
-0.87376
-0.903332
-0.758796
-0.783169
-0.904809
-2.78058
-2.7518
-2.08198
-3.54214
-3.09177
-3.10776
-3.05889
-3.07499
-3.52897
2.97659
2.98146
3.44582
1.93069
2.51594
2.5104
2.53411
2.52385
1.93511
1.46185
1.46786
1.70472
0.924998
1.04496
1.04205
1.06777
1.06306
0.943251
-1.10671
-1.10686
-1.15805
-2.8271
-2.81424
-2.17042
-3.5833
-3.14391
-3.15068
-3.12219
-3.13442
-3.57574
2.97517
2.97304
3.43701
1.92203
2.50764
2.51079
2.50724
2.50638
1.92029
1.448
1.44623
1.68374
0.908256
1.03035
1.03214
1.02689
1.02659
0.904385
-2.81814
-2.82637
-2.18411
-3.59025
-3.15275
-3.14769
-3.15439
-3.15508
-3.59228
2.99375
2.98809
3.44768
1.95027
2.52791
2.53506
2.51543
2.52125
1.94569
1.48374
1.4782
1.71003
0.954056
1.30302
1.31158
1.05766
1.06071
0.943316
-1.12645
-1.0641
-1.0626
-2.77058
-2.79034
-2.13174
-3.56289
-3.11983
-3.10761
-3.14023
-3.13088
-3.5721
-1.01095
-0.871773
-0.862776
-1.0218
-1.01856
-1.07419
-2.60208
-2.61657
-2.05902
-3.51823
-3.06761
-3.05402
-3.09457
-3.08109
-3.53006
-0.911111
-0.796307
-0.790636
-0.83502
-0.828419
-0.941718
1.19713
1.09097
1.65204
0.188362
0.866126
0.858681
0.498494
0.488878
0.146164
-0.747379
-0.74145
-0.0418664
-1.57223
-0.978936
-1.09953
-1.02538
-0.986951
-1.70144
0.957146
1.07802
1.07264
1.35659
1.33465
0.976541
1.74729
1.51484
1.52822
0.872779
0.715266
0.731167
0.978032
0.868315
0.885935
0.772532
0.785121
0.904791
-1.14722
-1.09704
-1.10345
-1.01622
-1.02478
-1.07692
-1.63969
-1.65878
-1.87746
-1.16343
-1.2694
-1.25575
-1.32984
-1.32194
-1.21737
0.906135
1.02824
1.02738
1.0393
1.03649
0.915395
1.69022
1.45264
1.45681
0.827166
0.766957
0.770294
0.75055
0.750803
0.814357
0.772382
0.773854
0.833308
-1.69385
-1.70397
-1.96417
-1.26011
-1.30718
-1.30408
-1.2168
-1.34556
-1.33836
-1.30191
-1.29764
-1.24923
-1.94197
-1.67617
-1.69019
0.933511
1.05117
1.05431
1.03446
1.03702
0.917619
1.68985
1.45426
1.45076
0.822978
0.760766
0.757308
0.789201
0.786937
0.847334
0.812997
0.750298
0.750529
0.754686
0.753148
0.817872
-1.70801
-1.69947
-1.96459
-1.28623
-1.28941
-1.23928
-1.97491
-1.71455
-1.71052
0.856383
0.71151
0.705957
0.764312
0.760766
0.875773
0.854949
0.792886
0.791647
0.704508
0.698515
0.845404
-1.0828
-1.02627
-1.02431
-1.06509
-1.06766
-1.1219
-1.6424
-1.62691
-1.90333
-1.17432
-1.31015
-1.31508
-1.27502
-1.28081
-1.17023
-1.2268
-1.27779
-1.282
-1.32019
-1.32626
-1.1901
-1.93019
-1.66226
-1.64757
0.919217
0.807062
0.803
0.827705
0.824767
0.936096
0.887369
0.772625
0.768306
0.798885
0.794633
0.907547
-0.960803
-0.848169
-0.841595
-0.859725
-0.852851
-0.992837
-1.15262
-1.2633
-1.26924
-1.45115
-1.46776
-1.1352
-1.85468
-1.63167
-1.62111
0.972107
0.64576
0.63577
0.610061
0.641753
0.968585
0.944669
0.833392
0.830514
-0.879437
-0.524959
-0.497676
1.54268
1.55769
1.78376
1.04846
1.38839
1.36401
1.36698
1.35006
1.06169
-0.305293
-0.335716
-0.405604
1.9885
2.55744
2.56443
2.54251
2.55003
1.98377
1.53057
1.52464
1.75179
1.01266
1.29796
1.30455
1.28423
1.29117
1.00885
-0.500433
-0.440576
-0.437912
-0.463076
-0.462033
-0.519819
-2.54446
-2.55781
-1.98858
0.593853
0.543241
0.567204
0.418846
0.43039
0.501834
-1.06328
-1.40799
-1.37362
-1.45867
-1.42087
-1.08279
-1.82449
-1.59586
-1.61813
0.982833
1.32743
1.27845
1.31502
1.324
0.979258
1.72501
1.49508
1.48938
0.51325
0.457503
0.455194
0.463457
0.46128
0.519274
-0.530523
-0.473403
-0.467112
-1.61053
-1.6
-1.8248
-1.09203
-1.42854
-1.44557
-1.35254
-1.42301
-1.08595
0.524957
0.468585
0.466077
0.475354
0.473903
0.53104
-1.04303
-1.33064
-1.3421
-1.30971
-1.31978
-1.03722
-1.77658
-1.54813
-1.53848
0.572438
0.609354
0.287057
1.02301
0.711441
0.677744
0.704464
0.719635
1.02279
-0.850533
-0.718324
-0.736999
-0.42248
-0.409753
-0.815486
0.156206
-0.269654
-0.294287
-0.826492
-0.862965
-0.990867
-0.514093
-0.656956
-0.628829
-0.645547
-0.629011
-0.574177
-0.927511
-0.809234
-0.832963
-0.883274
-0.873894
-1.01685
-1.05789
-1.00335
-1.00215
-0.475084
-0.416133
-0.412615
-0.43572
-0.432551
-0.491534
-0.571166
-0.715016
-0.721653
-0.70133
-0.708176
-0.567288
-0.935335
-0.821771
-0.815145
0.699821
0.710951
0.863724
0.84113
0.682276
0.695607
0.488549
0.554829
0.548506
0.607472
0.596579
0.530853
0.91818
0.800132
0.814791
-1.06597
-1.07074
-1.12349
-1.10688
-1.05502
-1.0607
0.752317
0.753012
0.81802
0.815609
0.751783
0.75209
0.779772
0.781244
0.843854
0.838674
0.777845
0.778831
-1.30938
-1.30664
-1.24648
-1.59685
-1.49207
-1.49514
-1.48557
-1.48819
-1.5935
-1.60836
-1.50298
-1.50498
-1.49793
-1.5006
-1.60584
-1.25576
-1.31573
-1.31239
-1.28197
-1.27888
-1.22684
-1.5602
-1.4564
-1.46223
-1.44298
-1.45
-1.55386
-1.58143
-1.47712
-1.48163
-1.46744
-1.47236
-1.57668
-1.23025
-1.28464
-1.28243
0.777187
0.775884
0.834672
0.838723
0.779621
0.778513
0.750068
0.750136
0.81366
0.813898
0.750417
0.750288
-1.30202
-1.30588
-1.2424
-1.60183
-1.49123
-1.48707
-1.49879
-1.49521
-1.60538
-1.58494
-1.47691
-1.47592
-1.48302
-1.47969
-1.58963
-1.23
-1.29437
-1.2981
-1.61493
-1.50828
-1.50832
-1.50657
-1.50771
-1.61405
-1.61294
-1.50446
-1.50195
-1.50765
-1.50643
-1.61446
0.748551
0.713777
0.860114
0.507464
0.56331
0.565029
0.547174
0.547571
0.4869
0.871604
0.756289
0.752026
0.841153
0.695315
0.686601
-1.04663
-1.04419
-1.09917
-1.10515
-1.04958
-1.04803
-1.2589
-1.2596
-1.20541
-1.56456
-1.45681
-1.45137
-1.46976
-1.463
-1.56968
-1.54405
-1.43578
-1.43027
-1.44635
-1.44123
-1.54938
-1.20222
-1.25649
-1.25755
0.492898
0.435578
0.435208
0.451724
0.447006
0.504697
0.781713
0.777211
0.891477
0.522475
0.580776
0.583537
0.565993
0.566838
0.507795
0.536196
0.681444
0.686309
0.672173
0.676539
0.533026
0.903515
0.790273
0.786007
0.470722
0.411837
0.413436
0.433734
0.430444
0.486058
-0.861068
-0.854872
-0.967104
-0.602253
-0.659908
-0.662331
-0.641408
-0.644892
-0.587516
-0.663936
-0.666016
-0.604602
-0.986694
-0.873583
-0.867268
0.52992
0.390696
0.386052
0.40147
0.393021
0.534015
0.5369
0.47989
0.477368
-0.425395
-0.2802
-0.263656
-0.409375
-0.406295
-0.46485
2.1324
2.58109
2.58153
2.57085
2.57655
2.0165
1.12096
1.34305
1.34761
1.33328
1.3382
1.11545
-0.267698
-0.262783
-0.0266335
-0.753068
-0.502558
-0.502432
-0.489771
-0.517789
-0.772171
1.04141
1.32298
1.32837
1.31099
1.31716
1.03822
1.76747
1.54201
1.53638
0.225408
0.235244
0.20979
0.515322
0.40263
0.388458
0.395058
0.399366
0.507049
-0.377249
-0.243919
-0.224248
-0.252855
-0.259783
-0.387155
0.123393
-0.0177833
-0.0465235
0.423833
0.485455
0.335855
0.631036
0.537643
0.523021
0.508103
0.531955
0.629711
-0.342146
-0.260457
-0.280103
-0.120763
-0.0650111
-0.273798
0.268983
0.0206906
0.0312847
1.05118
1.0479
0.927738
1.28702
1.16785
1.17133
1.16194
1.16496
1.285
-1.16037
-1.10649
-1.10793
1.02783
1.02886
0.906638
1.26811
1.14842
1.14759
1.1514
1.1499
1.27018
1.26633
1.14649
1.147
1.14678
1.14664
1.26735
0.904408
1.0267
1.02704
-1.07529
-1.06896
-1.13087
-0.808561
-0.802256
-0.916808
-0.572628
-0.68807
-0.694663
-0.675451
-0.681605
-0.566444
0.877862
0.657292
0.607213
0.647329
0.652708
0.874125
0.205768
0.425838
0.420281
0.83152
0.84976
0.963003
0.596467
0.73804
0.715401
0.781852
0.761159
0.613402
-1.08278
-1.08961
-1.14185
-1.29297
-1.28164
-1.17644
-1.49251
-1.38674
-1.3979
-1.36261
-1.3752
-1.4824
-1.53139
-1.42686
-1.43515
-1.40815
-1.41795
-1.52284
-1.20821
-1.3129
-1.30331
1.03059
1.02924
0.907176
1.26915
1.14951
1.1511
1.14745
1.14853
1.26912
1.27614
1.15677
1.15945
1.15258
1.1547
1.27508
0.912191
1.03411
1.0321
0.758814
0.7628
0.825139
0.636978
0.699881
0.694014
0.711379
0.70683
0.648701
0.623204
0.687504
0.687497
0.68757
0.687465
0.622895
0.813992
0.750886
0.751237
0.657592
0.714898
0.71385
0.715411
0.715244
0.657125
0.833869
0.7747
0.775603
-1.30606
-1.30769
-1.25872
-1.4097
-1.36137
-1.36072
-1.43038
-1.37609
-1.37794
-1.37259
-1.37454
-1.42981
1.2742
1.1556
1.15353
1.16046
1.15811
1.27702
0.921172
1.03973
1.0424
0.768691