/*--------------------------------*- C++ -*----------------------------------*\
| =========                 |                                                 |
| \\      /  F ield         | OpenFOAM: The Open Source CFD Toolbox           |
|  \\    /   O peration     | Version:  5.x                                   |
|   \\  /    A nd           | Web:      www.OpenFOAM.org                      |
|    \\/     M anipulation  |                                                 |
\*---------------------------------------------------------------------------*/
FoamFile
{
    version     2.0;
    format      ascii;
    class       volScalarField;
    location    "200";
    object      p_rgh;
}
// * * * * * * * * * * * * * * * * * * * * * * * * * * * * * * * * * * * * * //

dimensions      [0 2 -2 0 0 0 0];

internalField   nonuniform List<scalar> 
6584
(
0.00539337
0.00583579
0.00636392
0.00715043
0.00814999
0.00943
0.0109712
0.0127863
0.0146857
0.0165423
0.0178269
0.0179738
0.016576
0.0137254
0.00998941
0.00605849
0.00247473
-0.000600326
-0.00307483
-0.00501076
-0.00646654
-0.00756173
-0.00827952
-0.00885869
0.005238
0.00572314
0.00622066
0.00700136
0.00797909
0.00926029
0.0108213
0.0127277
0.0147673
0.0168604
0.0183874
0.0187023
0.0172608
0.0141623
0.0101343
0.00589931
0.00217073
-0.000959603
-0.003416
-0.00531149
-0.00671269
-0.00777791
-0.00844292
-0.00906602
0.00490441
0.00540083
0.00584119
0.00658366
0.00750531
0.00877333
0.0103835
0.0125435
0.0148971
0.0170898
0.0199077
0.021279
0.0202691
0.0167304
0.0117732
0.0053135
0.00124071
-0.00200217
-0.00438781
-0.00614584
-0.00739613
-0.0083501
-0.0089047
-0.00951023
0.00446578
0.00493077
0.00528747
0.0059455
0.00675944
0.00794874
0.00958306
0.0120028
0.0152202
0.0183255
0.0227958
0.025904
0.0251786
0.0199067
0.0127569
0.00622142
-0.00037848
-0.00373229
-0.0059273
-0.00741507
-0.00841478
-0.00917094
-0.00956542
-0.0100807
0.00395527
0.00434663
0.00458865
0.00509759
0.00572345
0.0066947
0.00818821
0.0106469
0.0136502
0.0192037
0.0262416
0.0330092
0.0331649
0.0240947
0.0127021
0.00401951
-0.00154802
-0.00643816
-0.00816376
-0.00911016
-0.00972541
-0.0101784
-0.010363
-0.0107202
0.00340147
0.00367736
0.00377175
0.00405336
0.00438119
0.00487012
0.00591842
0.00748757
0.0114417
0.0175693
0.0276922
0.0447004
0.051353
0.0329313
0.0100071
-0.00112739
-0.00639256
-0.0100221
-0.0109804
-0.0111564
-0.0112577
-0.0113066
-0.0112377
-0.0113744
0.00284623
0.00297235
0.00289729
0.00288834
0.0028357
0.00266758
0.00297435
0.00388793
0.00578316
0.0106198
0.0237169
0.0552418
0.0976502
0.0352464
0.00241524
-0.0112562
-0.0135095
-0.0146621
-0.0142688
-0.0134244
-0.0128882
-0.0124528
-0.0121043
-0.0119728
0.00233702
0.00229594
0.00205172
0.00172692
0.00124863
0.000329339
-0.000484504
-0.000726143
-0.00230148
-0.00338141
0.000608616
0.0207
-0.00702328
-0.0260392
-0.0271291
-0.0228839
-0.0198106
-0.0176559
-0.0156585
-0.0144269
-0.0134819
-0.0128596
-0.0124395
0.00191815
0.00171648
0.0013327
0.00072685
-0.000136395
-0.00172095
-0.00367659
-0.00544849
-0.0108698
-0.0202577
-0.0342503
-0.071724
-0.118659
-0.0656069
-0.0443404
-0.0322075
-0.0243632
-0.020476
-0.0174742
-0.0156303
-0.0142412
-0.0133965
-0.0127053
0.00162273
0.00129335
0.000829558
4.45841e-05
-0.00104996
-0.00298149
-0.00563967
-0.00855648
-0.0160936
-0.0299083
-0.0530488
-0.106601
-0.169527
-0.089446
-0.0543958
-0.0379506
-0.0269932
-0.0220128
-0.0184757
-0.0162647
-0.0145947
-0.0136239
-0.0127197
0.0014648
0.00106033
0.000592441
-0.000230488
-0.00133833
-0.00318907
-0.00584835
-0.00903484
-0.0159689
-0.0280716
-0.0479596
-0.0866101
-0.149391
-0.0857371
-0.0529957
-0.0379995
-0.026906
-0.0218757
-0.018442
-0.0161972
-0.0144669
-0.0134909
-0.0124622
0.00143582
0.00101532
0.000613653
-0.000113537
-0.00103535
-0.00245035
-0.00449284
-0.00708314
-0.0114035
-0.0178495
-0.0276263
-0.0422012
-0.0894689
-0.0618336
-0.0423503
-0.0329016
-0.0242977
-0.0201867
-0.0174118
-0.0154506
-0.0138677
-0.0130025
-0.0119476
0.00150805
0.00112286
0.000833514
0.000290079
-0.000327575
-0.00114394
-0.00227208
-0.00379443
-0.00505327
-0.00544607
-0.0047301
0.00310338
-0.0280212
-0.0325255
-0.0282159
-0.0251177
-0.0201493
-0.0174878
-0.0156444
-0.0141791
-0.0128949
-0.0122157
-0.0112224
0.0016434
0.00132805
0.00116607
0.000835175
0.000538798
0.000293279
-1.45439e-05
0.00059267
0.000407146
0.00413008
0.0101271
0.0299955
0.0854019
0.0114931
-0.0100734
-0.0158325
-0.0172971
-0.0156296
-0.0144371
-0.0135074
-0.0126053
-0.011678
-0.0112211
-0.010351
0.00180345
0.00157351
0.00152766
0.00138932
0.00135951
0.00152407
0.00182262
0.00286123
0.00392608
0.0083195
0.0148116
0.0271824
0.0345377
0.0165464
-0.000412396
-0.00772381
-0.0105604
-0.0115321
-0.0115368
-0.0113301
-0.0109402
-0.0103524
-0.0101151
-0.00939956
0.00195638
0.00181187
0.00185582
0.00186551
0.00201933
0.00242286
0.00302933
0.00438282
0.00564216
0.00916897
0.0145942
0.0191705
0.0182983
0.0104904
0.00285684
-0.00334318
-0.00713258
-0.00843464
-0.0090932
-0.00933574
-0.00933993
-0.00903844
-0.00898579
-0.00843461
0.00208027
0.0020114
0.00211435
0.00222378
0.00247793
0.00299464
0.00366035
0.00509247
0.00653704
0.00840285
0.0113549
0.0129786
0.0126642
0.00802867
0.00304901
-0.0011804
-0.00449389
-0.00611966
-0.00710952
-0.00761833
-0.00789053
-0.00779967
-0.00788946
-0.00749295
0.00216283
0.00215533
0.0022889
0.0024564
0.00274249
0.00327773
0.00386975
0.00504052
0.00632848
0.00754025
0.0090158
0.0110226
0.00638117
0.00559996
0.00171899
-0.000435482
-0.00272409
-0.00446955
-0.00554735
-0.00619648
-0.00662764
-0.00668288
-0.00686907
-0.00660613
0.00219964
0.00223869
0.00238054
0.00257568
0.00284838
0.0033513
0.00381632
0.00476661
0.00540778
0.00721646
0.0043607
0.00921063
0.00786961
0.00115328
0.00251479
-0.000304721
-0.00189988
-0.00340043
-0.00437908
-0.00506093
-0.00555924
-0.00570647
-0.00594794
-0.00579482
0.00219181
0.00226437
0.00239924
0.00260366
0.00283776
0.00329724
0.00360744
0.00446539
0.00451888
0.00643318
0.00443226
0.00716432
0.00641332
0.00181564
0.00247735
-0.000325945
-0.00129441
-0.0026601
-0.00349389
-0.00416139
-0.00466714
-0.00486794
-0.00513341
-0.00506686
0.00214372
0.00223948
0.00235802
0.00256222
0.00274455
0.00316603
0.00332166
0.00412541
0.0038539
0.00547
0.00395888
0.00510115
0.00458899
0.00175209
0.00208292
-0.000291985
-0.000858129
-0.00212972
-0.00280784
-0.00344668
-0.00392499
-0.00415534
-0.00442269
-0.00442244
0.00206128
0.00217263
0.00226973
0.00246976
0.00259556
0.00298574
0.00300824
0.00374771
0.0033077
0.0046038
0.00333153
0.00387145
0.00346979
0.00139977
0.00167084
-0.000273939
-0.00059078
-0.00174976
-0.00227659
-0.00287894
-0.00330902
-0.00355368
-0.00380809
-0.00385738
0.00195103
0.00207262
0.00214638
0.00234124
0.00241224
0.00277615
0.00269566
0.00336722
0.00284981
0.00390171
0.00284346
0.0030521
0.00273243
0.00113079
0.00133809
-0.000268967
-0.000429595
-0.00146947
-0.00186458
-0.00242623
-0.00279799
-0.00304718
-0.00327945
-0.00336485
0.00181939
0.00194766
0.00199846
0.00218849
0.00221056
0.00255199
0.00239761
0.0030039
0.00246398
0.00332044
0.00243747
0.00242745
0.00216757
0.000905557
0.00106146
-0.00026802
-0.000329922
-0.00125483
-0.00154196
-0.00206149
-0.002373
-0.0026206
-0.00282578
-0.00293673
0.00167231
0.00180493
0.00183455
0.00202046
0.00200141
0.00232297
0.00211933
0.00266413
0.00213377
0.00283176
0.00209294
0.00194722
0.00172464
0.000708065
0.000828512
-0.000269233
-0.000269052
-0.00108566
-0.00128645
-0.00176396
-0.00201779
-0.00225973
-0.002436
-0.00256426
0.00151508
0.00165042
0.00166149
0.0018438
0.00179202
0.00209548
0.00186235
0.00235052
0.00184816
0.00241916
0.0017931
0.00156721
0.00137525
0.000546506
0.000636761
-0.000270389
-0.000232441
-0.000948895
-0.00108186
-0.00151771
-0.0017188
-0.00195228
-0.00209989
-0.00223904
0.00135225
0.00148908
0.00148454
0.0016635
0.00158705
0.00187357
0.00162617
0.00206326
0.00159891
0.00207241
0.00153425
0.00126827
0.00111326
0.000416456
0.00048037
-0.000270592
-0.000210554
-0.000835083
-0.000915395
-0.00131079
-0.00146515
-0.00168813
-0.00180851
-0.00195312
0.0011876
0.00132487
0.00130767
0.0014831
0.00138913
0.00165955
0.00140927
0.00180129
0.00137871
0.00177848
0.0013157
0.00103221
0.000901464
0.000293534
0.000351548
-0.000268149
-0.000194559
-0.000735707
-0.000775871
-0.00113235
-0.00124647
-0.00145728
-0.00155283
-0.00169875
0.00102425
0.00116078
0.00113367
0.00130493
0.00119967
0.00145444
0.00120961
0.00156274
0.00118183
0.00152419
0.00112545
0.000833953
0.000724737
0.00019246
0.000248279
-0.000263234
-0.000181073
-0.000647124
-0.000656373
-0.000975386
-0.00105525
-0.0012525
-0.00132579
-0.00146961
0.000864686
0.000999179
0.000964534
0.00113067
0.00101906
0.00125832
0.00102452
0.00134379
0.00100416
0.00130165
0.000957895
0.000665731
0.000576314
0.000110015
0.000165661
-0.000255004
-0.000167244
-0.000565762
-0.000551215
-0.000834067
-0.000885038
-0.00106736
-0.00112088
-0.00125967
0.000710896
0.000841643
0.000801437
0.000960984
0.000847048
0.00107115
0.000851178
0.00113982
0.000840535
0.00110318
0.000807707
0.000521191
0.00045055
4.2299e-05
9.99999e-05
-0.00024259
-0.000151008
-0.000488485
-0.000455568
-0.000703634
-0.000730414
-0.000896461
-0.000932667
-0.00106365
0.000564837
0.000689558
0.000645558
0.000796199
0.000683714
0.000891711
0.000688082
0.000948457
0.00068766
0.000922483
0.000670093
0.000394973
0.000341892
-1.38527e-05
4.86229e-05
-0.000225414
-0.000131008
-0.000412869
-0.000366089
-0.000580313
-0.000587083
-0.000735431
-0.00075656
-0.000877069
0.000427101
0.000542447
0.000496455
0.000635142
0.000527086
0.00071572
0.000531864
0.000764163
0.000540834
0.000752116
0.000539959
0.000282896
0.000247415
-5.78352e-05
1.09545e-05
-0.000201711
-0.000106263
-0.000336493
-0.000280051
-0.000460599
-0.000451315
-0.000579954
-0.000588139
-0.000695155
0.000302895
0.000404536
0.000358646
0.00048126
0.000381027
0.000546331
0.000385876
0.000588015
0.000402137
0.000590755
0.000412106
0.000181672
0.000162967
-9.61089e-05
-1.51398e-05
-0.000170853
-7.65453e-05
-0.00025779
-0.000196562
-0.000343073
-0.000322182
-0.000428905
-0.000426626
-0.000516867
0.000178866
0.000256717
0.000215857
0.00031109
0.000228487
0.000356701
0.000231172
0.000387983
0.000248932
0.000403312
0.000272778
9.15678e-05
9.1049e-05
-0.000101869
-2.28355e-05
-0.000123859
-4.22212e-05
-0.00016997
-0.00011319
-0.000218598
-0.000192426
-0.000270125
-0.000260636
-0.000326708
0.000115317
0.000169367
0.000137228
0.000205108
0.000143888
0.000236242
0.000147387
0.000264005
0.000168738
0.00029429
0.000124737
8.10415e-06
1.64415e-05
-0.000192532
-2.89507e-05
-7.50842e-05
-3.8033e-06
-8.65472e-05
-4.10091e-05
-0.000111458
-8.79047e-05
-0.000140016
-0.000129249
-0.000172908
-0.0631654
-0.116675
-0.00242523
-0.105501
-0.181363
-0.129605
-0.091208
-0.16414
-0.183663
-0.0481908
-0.102594
-0.157848
-0.00183195
-0.0335365
-0.0937438
0.0286784
0.0962057
0.0917841
0.0148237
-0.0257214
0.0315452
0.0979951
0.0126463
0.0461433
-0.0262336
-0.0554856
0.0165369
-0.0893802
0.0478049
-0.107215
-0.0636719
-0.0259198
-0.0506956
-0.0956388
-0.0632947
-0.0917262
-0.13275
-0.106678
-0.225397
-0.187572
-0.167001
-0.0989965
-0.0750291
-0.0512
-0.08461
-0.0967103
-0.104567
-0.14161
-0.14885
-0.253893
-0.259502
-0.155335
-0.100631
-0.10265
-0.0334377
-0.045908
-0.0804687
-0.071223
-0.0864384
-0.112365
-0.162852
-0.202129
-0.0974738
-0.074894
-0.096005
-0.0701998
-0.111303
-0.035159
-0.0400939
-0.0663412
0.0178878
-0.0187838
0.0297171
0.0343373
0.0872207
0.0331461
0.0234394
0.0169806
-0.101775
-0.0504955
-0.0310568
-0.0560321
-0.109569
0.057822
-0.045859
-0.183783
-0.101342
-0.0716171
-0.0965277
-0.179896
-0.148182
-0.135481
-0.0964482
-0.140007
-0.153954
-0.114374
-0.139277
-0.257081
-0.227342
-0.166675
-0.22765
-0.244672
-0.183031
-0.225808
-0.159393
-0.115725
-0.138726
-0.102096
-0.144267
-0.117964
-0.153601
-0.146273
-0.204415
-0.251718
-0.178998
-0.238711
-0.207108
-0.246069
-0.240722
-0.182127
-0.0852355
-0.0567351
-0.115676
-0.0891974
-0.114297
-0.159278
-0.127377
-0.156352
-0.113781
-0.204523
-0.159107
-0.135531
-0.0183343
0.00757126
-0.0525304
-0.0224871
-0.0244323
-0.0645882
-0.108344
-0.0695491
-0.0671367
0.0361843
0.0544787
0.0103933
0.0335701
0.0467067
0.0216815
-0.0185318
-0.0399595
0.0514896
-0.0402665
0.117213
-0.0100536
-0.00342474
-0.0404264
-0.024116
-0.022707
-0.051472
0.00747126
-0.0155851
0.0094982
-0.0113931
-0.0318161
0.109679
-0.0169384
0.0392358
-0.0827873
-0.0543519
-0.0554408
-0.0826145
-0.0656377
-0.0794657
-0.0631428
0.000297586
0.0138391
-0.0604247
-0.0424227
-0.0190431
-0.0412543
-0.0585447
-0.0639266
-0.0256903
0.01494
0.0249427
-0.0203605
0.0129091
-0.00431135
0.16036
0.106257
0.0719602
0.0641998
0.103364
0.160867
-0.0585732
-0.0340332
-0.0553283
0.105803
-0.0375888
-0.0140088
-0.214945
-0.211927
-0.261047
-0.261136
-0.182734
-0.185067
-0.0871133
-0.0719962
-0.088548
0.0336468
0.0105894
-0.0161409
0.00615094
-0.00208285
-0.0927188
-0.0840305
-0.117954
-0.0888148
-0.12023
-0.091383
-0.0831917
-0.0227463
-0.00501142
-0.0307715
-0.0871993
-0.151621
-0.147035
-0.148812
-0.148944
-0.12689
-0.127973
-0.249674
-0.249727
-0.236152
-0.20496
-0.194644
-0.214868
-0.2077
-0.236825
-0.205085
-0.171432
-0.152432
-0.190761
-0.176793
-0.20846
-0.133562
-0.131278
-0.153945
-0.15278
-0.235529
-0.237079
-0.223873
-0.203918
-0.21313
-0.186582
-0.200039
-0.222108
-0.248501
-0.21931
-0.21653
-0.215483
-0.219122
-0.248377
-0.0811044
-0.0739544
-0.081433
-0.0961622
-0.0621063
-0.0788238
-0.0695946
-0.10513
-0.0978347
-0.100851
-0.134423
-0.1374
-0.183654
-0.167134
-0.181444
-0.147411
-0.162245
-0.179906
-0.0194827
-0.00154367
-0.0395541
-0.0420123
-0.0593366
-0.0214956
-0.0395092
-0.0353298
-0.0399063
-0.0220513
-0.041544
-0.0424921
-0.0194227
-0.0688272
-0.0450465
-0.0475599
-0.0443602
0.0475731
0.0614639
0.0799802
0.026749
0.0422086
0.0946709
0.0557192
0.03618
0.216238
0.00773257
0.0213802
0.00113634
0.0163775
0.0282661
0.0106334
0.0569045
0.0427713
0.0467754
0.15963
0.0055608
-0.0187582
-0.0182604
0.01429
0.0158479
0.0811868
0.0641846
0.0712507
0.0169007
0.0185351
0.0656615
0.060391
0.0898213
0.240587
0.171364
0.124288
0.136801
0.178098
0.244244
-0.123498
-0.102812
-0.11316
-0.221091
-0.207587
-0.199735
-0.147569
-0.12558
-0.122697
-0.126406
-0.12726
-0.148595
-0.258058
-0.260005
-0.172359
-0.193838
0.0429872
0.0339725
0.00323764
0.00910407
0.0289725
0.0535354
0.0463536
0.0582679
0.0105319
-0.0106468
0.10264
-0.171143
-0.194572
-0.205866
-0.135714
-0.110649
-0.0779474
-0.145185
-0.119473
-0.1465
-0.144331
-0.122601
-0.126939
-0.114687
-0.122093
-0.142578
-0.14491
-0.158001
-0.150684
-0.166738
-0.165455
-0.151775
-0.1491
-0.145734
-0.134398
-0.255083
-0.236364
-0.232698
-0.215882
-0.214782
-0.234409
-0.230022
-0.241953
-0.120039
-0.114407
-0.129604
-0.140269
-0.149292
-0.155386
-0.154823
-0.168252
-0.167078
-0.15803
-0.163665
-0.149474
-0.216791
-0.246448
-0.23302
-0.225775
-0.229974
-0.19499
-0.203273
-0.215096
-0.247583
-0.237493
-0.234316
-0.23233
-0.234923
-0.245178
-0.123123
-0.124862
-0.117113
-0.169375
-0.158426
-0.149894
-0.137496
-0.127479
-0.142398
-0.107606
-0.122335
-0.131509
-0.0063063
-0.00334022
-0.0190813
0.0117923
0.00100672
-0.00266027
0.0525351
0.0597804
0.0202964
0.0236722
0.0146927
0.0366149
0.0492168
0.053718
0.0460559
0.0217119
0.162812
0.0464201
0.0100419
-0.00254207
-0.00109266
0.01111
-0.00416216
-0.00583025
0.04884
0.046539
0.150964
0.0195627
0.0299011
-0.0748614
-0.0688023
0.00444936
0.0128631
0.00715246
0.0105004
0.00239578
0.0163635
0.0123144
0.00884385
-0.0512536
-0.0474333
-0.0284602
-0.0315978
0.0186349
0.0187969
0.0173579
0.0194252
0.0231941
-0.0952342
-0.0743805
-0.0355187
-0.114794
-0.0853565
-0.105564
-0.219774
-0.203162
-0.259363
-0.261519
-0.175022
-0.191358
-0.0851202
-0.081504
-0.0909629
-0.0694776
-0.0784664
-0.0803696
-0.104252
-0.112769
-0.0938562
-0.10118
0.0236574
0.0303834
0.040065
0.0139087
0.0261737
0.0206638
0.0266222
0.0141204
-0.107364
-0.0903874
-0.102331
-0.0695037
-0.0858393
-0.103516
-0.118517
-0.125257
-0.105923
-0.11599
-0.0606191
-0.0437938
-0.0640379
-0.0620411
-0.0697225
-0.169331
-0.191508
-0.16775
-0.180911
-0.146887
-0.123903
-0.177265
-0.153109
-0.128317
-0.14789
-0.165064
-0.161802
-0.158965
-0.145336
-0.159614
-0.16466
-0.154427
-0.159142
-0.169404
-0.17051
-0.165345
-0.167395
-0.151813
-0.164397
-0.162397
-0.138599
-0.14393
-0.127434
-0.136189
-0.150503
-0.153026
-0.145329
-0.149581
-0.133571
-0.144567
-0.140234
-0.254691
-0.24645
-0.223607
-0.217194
-0.234408
-0.241052
-0.229725
-0.224256
-0.141657
-0.148067
-0.13822
-0.152016
-0.145203
-0.16312
-0.153951
-0.134829
-0.124724
-0.142987
-0.136748
-0.167791
-0.168129
-0.154092
-0.172403
-0.172629
-0.170817
-0.17262
-0.168383
-0.163701
-0.1718
-0.169111
-0.151071
-0.164645
-0.167204
-0.226178
-0.243228
-0.217652
-0.223137
-0.230272
-0.216709
-0.206911
-0.214815
-0.238494
-0.236901
-0.24841
-0.24642
-0.236801
-0.237277
-0.0862475
-0.0861906
-0.081933
-0.0765022
-0.0913093
-0.0840242
-0.0925953
-0.0661771
-0.0642985
-0.0599395
-0.074135
-0.0667422
-0.0689162
-0.116667
-0.109791
-0.122228
-0.119066
-0.10233
-0.099599
-0.0936806
-0.107418
-0.10074
-0.104315
-0.136423
-0.127926
-0.126332
-0.133597
-0.141577
-0.115634
-0.130029
-0.147311
-0.146753
-0.155433
-0.140655
-0.0110991
-0.0101698
-0.0184502
-4.2304e-06
-0.00789304
-0.00835393
0.00193576
-0.03121
-0.0216657
-0.0283524
-0.0576129
-0.0583844
-0.0665113
-0.0454774
-0.0555915
-0.0545108
-0.056733
-0.0596032
0.0619659
0.0721111
0.0252342
0.0329201
0.0715652
0.0567177
0.00561515
-0.0143498
0.00778985
0.00157334
0.0194071
0.0352619
0.320934
0.245034
0.212877
0.235947
0.266463
0.328366
0.0394108
0.0841243
0.0537821
-0.0863954
-0.100184
-0.119916
-0.223608
-0.235653
-0.237321
-0.256451
-0.259602
-0.100101
-0.0915062
-0.101417
-0.21364
-0.210681
-0.199529
-0.114539
-0.105572
-0.102399
-0.0839301
-0.0645387
-0.0823936
-0.121459
-0.113831
-0.104077
-0.117063
-0.140894
-0.122628
-0.119088
-0.131579
-0.123693
-0.255847
-0.239804
-0.242164
-0.229309
-0.245847
-0.24474
-0.243517
-0.210979
-0.206605
-0.21986
-0.126204
-0.11116
-0.103641
-0.124182
-0.131178
-0.123758
-0.206857
-0.218159
-0.215601
-0.249857
-0.236865
-0.239761
-0.241382
-0.246657
-0.247707
-0.246891
-0.243091
-0.244616
-0.242798
-0.113013
-0.11723
-0.122249
-0.196591
-0.188968
-0.193132
-0.091864
-0.0874022
-0.102491
0.058349
0.0605373
0.0401736
0.0273231
0.0232235
0.0498125
0.0548058
0.0345801
0.0496439
0.0347366
-0.0291243
-0.0240506
-0.0778613
-0.0626123
-0.0646541
-0.0658043
-0.0577219
-0.0584109
-0.0604536
-0.0432456
-0.0452898
-0.0437073
-0.0423968
-0.0394453
-0.0382891
0.0238914
0.0198509
0.0199172
0.0960066
0.153227
0.1235
-0.0721251
-0.0728941
-0.0621451
-0.0467509
-0.130024
-0.121318
-0.0227679
0.016283
0.0237314
-0.21982
-0.229599
-0.217568
-0.208999
-0.210111
-0.213028
-0.262554
-0.261589
-0.181362
-0.178184
-0.18026
-0.186978
-0.195281
-0.187457
-0.089992
-0.0926481
-0.0692318
-0.0720253
-0.0747842
-0.0951218
-0.0981558
-0.0993253
-0.102192
-0.0930383
-0.0968561
-0.113602
-0.109819
-0.113319
-0.0810701
-0.086739
-0.0937205
-0.131601
-0.134009
-0.116127
-0.121439
-0.1238
-0.0136951
-0.037813
-0.0523226
-0.042131
-0.0454094
-0.0426301
-0.0802036
-0.147679
-0.139489
-0.138782
-0.13378
-0.120417
-0.136558
-0.138184
-0.250627
-0.249654
-0.19055
-0.184543
-0.196189
-0.217646
-0.201773
-0.196372
-0.126061
-0.133246
-0.139504
-0.232841
-0.238593
-0.249677
-0.249745
-0.248696
-0.248671
-0.249415
-0.249455
-0.0827501
-0.0839244
-0.0820589
-0.0796783
-0.094963
-0.0924308
-0.0952553
-0.108218
-0.11492
-0.109413
-0.116155
-0.114508
-0.126471
-0.124263
-0.0994705
-0.0996438
-0.0972752
-0.113318
-0.111941
-0.177872
-0.183603
-0.193644
-0.170666
-0.166477
-0.172157
-0.0479026
-0.0454689
-0.0411809
-0.0556232
-0.0504729
-0.0507597
-0.0326808
-0.0345905
-0.0423008
-0.0224716
-0.0286891
-0.0292639
-0.0640895
-0.063952
-0.066373
-0.0498331
-0.0466709
-0.0674546
0.0684092
0.0686734
0.0769407
0.0245589
0.0345946
0.0328992
0.0257382
0.0469594
0.0361133
0.0372874
0.0867418
0.0704097
0.0432363
0.0516815
0.0464612
0.12174
0.211793
0.0773488
0.0150619
0.0154695
0.073125
0.0892772
0.105625
0.0174144
0.0183444
0.0184403
0.0189565
0.0185963
0.017784
0.103447
0.0870889
0.0744127
0.165887
0.239259
0.209309
-0.234366
-0.234683
-0.222242
-0.212373
-0.203255
-0.196432
-0.21667
-0.212726
-0.2579
-0.259445
-0.176488
-0.178464
-0.168846
-0.173045
-0.1966
-0.207228
-0.204122
0.0395409
0.0418456
0.0453731
0.0344746
0.0386565
0.0364514
-0.19789
-0.186061
-0.182826
-0.193297
-0.189642
-0.201755
-0.255027
-0.230886
-0.242615
-0.246935
-0.242576
-0.243785
-0.242759
-0.232125
-0.222269
-0.209355
-0.249249
-0.236189
-0.238094
-0.235372
-0.248793
-0.248188
-0.246978
-0.244267
-0.245913
-0.24683
-0.163187
-0.156645
-0.161268
-0.151354
-0.153828
-0.160036
0.0616745
0.0622636
0.0359275
0.0421668
0.0408552
0.0406398
0.0355255
0.0562666
0.0537506
0.0512603
0.053513
0.0556292
0.0481012
0.0505078
0.0488057
0.0132051
-0.00145627
-0.00245657
0.0257754
0.134288
0.115231
0.151618
0.0541894
0.0726653
0.0949567
0.00221204
0.00274951
-0.000700761
0.00966926
0.00633765
0.00579687
-0.0107817
-0.00975424
-0.0148542
-0.00403355
-0.00711664
-0.00730296
0.0630193
0.0702335
0.0418348
-0.0139142
-0.0290426
0.0126879
0.00454653
-0.0769355
-0.0674824
-0.0664688
-0.068711
0.00755043
0.0105659
0.00203006
0.00457361
0.0053238
-0.0550089
-0.0567025
-0.0547952
-0.0440088
-0.0420337
-0.0463404
-0.0445864
-0.0479296
-0.0527138
-0.0275171
-0.0244261
-0.0256588
-0.0250394
-0.0293048
-0.0184604
-0.0217048
-0.0350615
-0.0364231
-0.0328461
0.020415
0.0198349
0.0193888
0.0207495
0.0203427
0.021624
-0.0884625
-0.0759347
-0.0827139
-0.118178
-0.112672
-0.0994103
-0.230503
-0.218303
-0.231233
-0.233376
-0.22018
-0.219193
-0.223784
-0.221698
-0.261245
-0.262362
-0.185817
-0.189591
-0.180811
-0.183326
-0.177601
-0.175304
-0.172614
-0.201357
-0.198311
-0.189133
-0.197548
-0.0811714
-0.086877
-0.0773324
-0.0748592
-0.0777186
-0.107267
-0.111997
-0.108542
-0.116831
-0.114911
-0.110136
-0.096434
-0.0948986
-0.0921033
-0.104767
-0.0984707
-0.0986349
-0.103242
0.0175133
0.0161085
0.0125866
0.0219005
0.0178278
-0.102391
-0.102936
-0.106586
-0.110564
-0.100216
-0.0930194
-0.0983386
-0.128051
-0.129797
-0.130672
-0.128575
-0.123001
-0.12236
-0.125918
-0.0643037
-0.0564546
-0.0534017
-0.0415662
-0.077958
-0.0795899
-0.0718037
-0.17409
-0.170547
-0.16517
-0.180244
-0.176043
-0.182457
-0.193148
-0.184628
-0.140095
-0.149856
-0.158151
-0.130226
-0.140902
-0.132723
-0.172121
-0.163235
-0.168994
-0.162147
-0.161357
-0.163794
-0.155292
-0.160621
-0.159583
-0.164895
-0.163523
-0.169826
-0.170107
-0.166122
-0.166794
-0.14092
-0.14357
-0.141123
-0.146602
-0.145283
-0.142572
-0.12974
-0.134329
-0.13264
-0.141793
-0.136033
-0.132218
-0.139757
-0.143413
-0.151429
-0.15461
-0.153616
-0.156646
-0.155744
-0.152335
-0.146606
-0.149007
-0.148108
-0.152864
-0.151817
-0.148379
-0.251954
-0.247735
-0.14974
-0.150939
-0.152064
-0.147327
-0.149482
-0.147472
-0.161138
-0.153996
-0.156136
-0.155702
-0.13219
-0.136667
-0.137814
-0.132718
-0.135197
-0.128557
-0.140843
-0.143042
-0.145152
-0.138959
-0.140725
-0.138697
-0.172032
-0.171804
-0.170953
-0.17264
-0.166757
-0.165365
-0.170837
-0.169302
-0.229467
-0.240701
-0.24892
-0.249781
-0.249324
-0.247891
-0.248776
-0.247784
-0.0842308
-0.0828711
-0.0829517
-0.085313
-0.0945486
-0.0891946
-0.0854261
-0.120061
-0.118068
-0.114368
-0.116846
-0.119037
-0.122141
-0.125171
-0.126647
-0.121455
-0.123629
-0.121197
-0.122614
-0.121872
-0.103273
-0.102025
-0.100969
-0.110624
-0.103927
-0.133578
-0.135209
-0.137728
-0.129414
-0.132431
-0.130876
-0.136646
-0.138648
-0.119515
-0.125254
-0.119889
-0.126164
-0.151693
-0.14538
-0.148465
-0.139902
-0.142299
-0.147696
-0.0128748
-0.0138836
-0.0108298
-0.0197725
-0.0169046
-0.0158239
-0.00268944
-0.00189828
6.54533e-05
-0.00771718
-0.00460418
-0.00561279
-0.00137327
-0.035633
-0.0337126
-0.0399589
-0.0376179
-0.0238089
-0.0247427
-0.0225606
-0.0313865
-0.0277423
-0.026287
-0.0587888
-0.0615818
-0.0606693
-0.0535058
-0.0628688
0.0631558
0.0645205
0.027553
0.023951
0.0217537
0.0311936
0.0277968
0.0300343
0.0278938
0.0312698
0.0634735
0.0585112
0.0278269
0.0375168
0.0298719
0.0413134
0.0466118
0.0343524
0.0458398
0.0362573
0.0295636
0.0310837
0.0187339
0.0183539
0.0147624
0.0214614
0.0225499
0.0261857
0.0462071
0.0399725
0.0564662
0.0887849
0.0521678
0.0883942
0.0489919
0.0391239
0.036492
0.0118134
0.0166612
0.00626661
-0.00121083
0.00353974
0.00451366
0.00584152
0.0190584
0.00847676
0.0257242
0.0462114
0.0550369
0.0882046
0.0765402
0.139424
0.0992902
0.0805797
0.034635
0.0182606
0.0240463
-0.0169453
-0.0167968
-0.00768379
-0.012123
-0.0223071
-0.000574434
-0.00823219
-0.0091782
0.00217031
0.0084023
0.0111944
0.0260781
-0.0510291
-0.0461001
-0.0195301
-0.0563925
-0.040578
-0.028182
-0.0264573
-0.0427967
-0.0287976
-0.0411961
-0.0503518
-0.0420117
-0.0793893
-0.0891654
-0.080939
-0.145967
-0.113148
-0.0907706
-0.0862145
-0.0610736
-0.052125
-0.030366
-0.0440406
-0.0448395
-0.0539121
-0.0643579
-0.0638268
-0.106887
-0.118208
-0.118046
-0.170207
-0.134353
-0.131225
-0.0892744
-0.0671408
-0.0662323
-0.0236329
-0.0298211
-0.0414642
-0.0438165
-0.0503624
-0.0557275
-0.0817666
-0.0879965
-0.0935576
-0.128574
-0.108013
-0.120695
-0.0689869
-0.0575854
-0.064005
-0.011542
-0.0103063
-0.0250033
-0.0361491
-0.0377005
-0.0444966
-0.0654039
-0.0607204
-0.0790854
-0.0396342
-0.0393282
-0.0489724
-0.000165791
0.00512099
-0.0057917
-0.00828216
-0.0181702
-0.0288893
-0.0144993
-0.0210125
-0.029723
0.00675612
0.0101188
0.00730892
0.0148197
0.0256713
0.0248518
0.0318528
0.0425864
0.047177
0.0602843
0.0613956
0.0638643
0.0173765
0.0024025
-0.00658629
-0.00384063
-0.00818648
-0.0138346
0.00906096
0.0120158
0.0116476
0.0154412
0.0192978
0.0239951
0.0208854
0.0223891
0.036181
0.0216486
0.0167706
0.0215957
0.0132024
0.00681457
0.00350854
0.00207746
-0.00211271
-0.00456775
0.0128741
0.0140417
0.0163272
0.0145422
0.0169569
0.0192273
0.0153356
0.0115486
0.0154836
0.00906772
0.00672054
0.00740862
-0.0715107
-0.0606959
-0.0534517
-0.101878
-0.114667
-0.137925
0.00519211
-0.0138255
-0.0191137
-0.116855
-0.114624
-0.103344
-0.177704
-0.197843
-0.203971
-0.144616
-0.163009
-0.140909
-0.0988704
-0.103816
-0.095323
-0.169823
-0.188775
-0.178795
-0.204955
-0.206521
-0.184565
-0.051061
-0.0572165
-0.054085
-0.110569
-0.119466
-0.105426
-0.174779
-0.16186
-0.150904
-0.0416612
-0.0410327
-0.0323973
-0.0971
-0.0873842
-0.0847039
0.0449788
0.0336869
0.019542
0.0997633
0.0895494
0.0830528
0.0854396
0.0809337
0.0984934
-0.0237255
-0.0151451
-0.0181033
0.0635793
0.089508
0.0521131
0.375874
0.32982
0.337099
0.0841512
0.102475
0.139346
0.373339
0.390239
0.0241939
0.0356401
0.0226843
0.0717835
0.0830123
0.043801
-0.0320711
-0.0208997
-0.0173549
-0.0265844
-0.0237864
-0.0379866
0.00589508
-0.00868149
-0.0158676
-0.0728066
-0.0795572
-0.108242
0.0590032
0.0361611
0.0286249
-0.0834865
-0.0551728
-0.0659677
-0.0512044
-0.0547182
-0.0705016
-0.0233816
-0.0385986
-0.0384896
-0.0613391
-0.0568204
-0.0466663
-0.0866336
-0.0683777
-0.0736299
-0.0504122
-0.0606161
-0.0822663
-0.102286
-0.0962337
-0.0859623
-0.129869
-0.122934
-0.125872
-0.0995944
-0.104366
-0.11079
-0.194896
-0.198417
-0.191744
-0.130556
-0.117227
-0.152805
-0.0929771
-0.107043
-0.114212
-0.0848723
-0.0972096
-0.085001
-0.0600485
-0.0630134
-0.0532007
-0.0937199
-0.0746176
-0.0706059
-0.0763579
-0.0766344
-0.0958055
-0.115189
-0.117231
-0.106117
-0.144069
-0.136335
-0.134419
-0.140528
-0.140812
-0.149198
-0.125559
-0.131807
-0.168019
-0.103378
-0.118931
-0.115237
-0.118552
-0.120122
-0.104186
-0.0374642
-0.0441882
-0.0388791
-0.0616875
-0.0504756
-0.0421991
-0.0649931
-0.0581726
-0.0668101
-0.0761162
-0.0821444
-0.0765719
-0.0975209
-0.0878436
-0.0785565
-0.108107
-0.104876
-0.1093
-0.166377
-0.165228
-0.162318
-0.0855474
-0.101936
-0.121017
-0.0828439
-0.0926089
-0.0826528
-0.109322
-0.101646
-0.0900291
-0.0757831
-0.078065
-0.0696173
-0.112268
-0.109498
-0.10846
-0.0409235
-0.0520168
-0.0576896
-0.0486816
-0.0508838
-0.0406417
-0.0721287
-0.0613486
-0.057518
0.013271
0.0165349
0.0214974
-0.0175672
-0.011652
-0.013158
0.0342241
0.040163
0.0314758
0.0509351
0.0434581
0.0387714
0.0688762
0.0617733
0.0613032
0.0365753
0.0403726
0.0501084
0.0237033
0.0352339
0.0294467
0.0383999
0.0363051
0.0231655
-0.0963768
-0.0890342
-0.094572
-0.0362597
-0.0587744
-0.0767879
-0.0427912
-0.0484768
-0.0348002
-0.0666696
-0.0808864
-0.0658138
0.0425595
0.0466893
0.0656674
-0.052769
-0.0399637
-0.0338818
-0.179871
-0.187286
-0.191355
-0.106319
-0.114868
-0.109875
-0.0772124
-0.0956527
-0.0877425
-0.110993
-0.103471
-0.0901971
-0.162314
-0.155035
-0.165179
-0.147162
-0.139123
-0.14003
-0.128482
-0.131009
-0.138187
-0.100414
-0.111465
-0.107328
-0.142108
-0.145497
-0.143795
-0.158187
-0.157668
-0.152852
-0.14241
-0.140927
-0.137232
-0.185347
-0.195439
-0.172784
-0.229772
-0.222107
-0.218728
-0.193405
-0.178095
-0.170764
-0.217568
-0.214891
-0.223723
-0.150815
-0.168058
-0.18177
-0.11922
-0.1149
-0.111583
-0.132133
-0.129746
-0.135732
-0.0990483
-0.108303
-0.112133
-0.143268
-0.146331
-0.14814
-0.120337
-0.12214
-0.119778
-0.154563
-0.158835
-0.158437
-0.150039
-0.1516
-0.147103
-0.199939
-0.192134
-0.174838
-0.201899
-0.205411
-0.210072
-0.184024
-0.20584
-0.202245
-0.081255
-0.0833389
-0.089639
-0.0590858
-0.0627714
-0.0607371
-0.112863
-0.118146
-0.118655
-0.0918383
-0.0974481
-0.0929196
-0.117076
-0.117646
-0.114956
-0.160108
-0.158131
-0.155969
-0.138737
-0.124458
-0.11906
-0.150606
-0.144863
-0.149828
-0.111857
-0.117302
-0.119554
-0.202054
-0.195954
-0.198614
-0.15512
-0.16074
-0.16771
-0.143402
-0.157199
-0.143533
-0.0142066
-0.0137057
-0.0180779
0.00887389
0.00560161
0.00429123
-0.0481632
-0.0495876
-0.0544933
-0.0224115
-0.0267893
-0.0267073
-0.0301323
-0.0296511
-0.0235707
-0.0667571
-0.059947
-0.0590328
-0.102835
-0.100985
-0.106459
-0.0673631
-0.0822383
-0.0866694
-0.075861
-0.0778444
-0.0684867
0.0453334
0.0569094
0.0447765
0.0654728
0.0596176
0.0467834
0.013899
0.0151783
0.0119714
0.037207
0.05368
0.0586866
-0.0198846
-0.00426874
-0.0051619
-0.00278906
-0.00326582
-0.0286247
0.0339849
0.0159288