/*--------------------------------*- C++ -*----------------------------------*\
| =========                 |                                                 |
| \\      /  F ield         | OpenFOAM: The Open Source CFD Toolbox           |
|  \\    /   O peration     | Version:  5.x                                   |
|   \\  /    A nd           | Web:      www.OpenFOAM.org                      |
|    \\/     M anipulation  |                                                 |
\*---------------------------------------------------------------------------*/
FoamFile
{
    version     2.0;
    format      ascii;
    class       surfaceScalarField;
    location    "200";
    object      phi;
}
// * * * * * * * * * * * * * * * * * * * * * * * * * * * * * * * * * * * * * //

dimensions      [0 3 -1 0 0 0 0];

internalField   nonuniform List<scalar> 
13181
(
8.44739e-06
0.00915681
8.01614e-06
0.00916743
6.75062e-06
0.00916777
5.38803e-06
0.00916786
3.26783e-06
0.00916912
-4.35881e-06
0.00917413
-9.15341e-06
0.00917144
-9.94911e-06
0.0091675
-8.73136e-06
0.00916543
-3.80964e-06
0.00916173
5.34046e-06
0.00915755
1.69885e-05
0.009155
2.78113e-05
0.00915583
3.45202e-05
0.00915999
3.59722e-05
0.0091652
3.30757e-05
0.00916955
2.74375e-05
0.00917234
2.04163e-05
0.00917367
9.10815e-06
0.00917781
-6.49011e-07
0.00917676
-1.32232e-05
0.00917907
-1.83904e-05
0.00917167
-1.946e-05
0.00916807
0.0091454
1.18901e-05
0.00914174
3.45027e-05
0.00914482
3.45848e-05
0.00916768
3.37912e-05
0.00916866
2.74822e-05
0.00917543
8.00804e-06
0.0091936
-1.73643e-05
0.00919682
-2.55259e-05
0.00917566
-2.45173e-05
0.00916442
-1.49159e-05
0.00457596
0.00457617
3.60944e-06
0.00456946
0.00456956
2.81175e-05
0.00456504
0.00456545
5.09414e-05
0.00456602
0.00456698
6.49252e-05
0.00457242
0.00457359
6.76736e-05
0.00458065
0.0045818
5.39567e-05
0.00918326
3.24279e-05
0.00919387
1.08295e-05
0.00919527
-1.20168e-05
0.00920065
-2.00568e-05
0.0091848
-2.07228e-05
0.00917974
-2.1859e-05
0.0091728
1.64109e-08
0.00914619
0.00914131
-4.57323e-06
0.00914115
-1.77002e-06
0.00914202
1.7795e-05
0.00914812
1.55259e-05
0.00917093
1.62361e-05
0.00917472
1.71767e-05
0.00919266
-1.60214e-05
0.00923002
-3.79794e-05
0.00919762
-1.99423e-05
0.00917118
-2.47914e-05
0.00457273
-1.67094e-05
0.00456412
-7.20945e-06
1.25537e-05
7.85973e-08
0.00455679
8.1764e-06
-1.72486e-05
0.00455737
2.59082e-05
-3.34179e-05
0.00456669
3.915e-05
-4.23026e-05
0.00458029
4.26577e-05
4.30039e-05
0.00460945
-3.30864e-05
-4.435e-05
0.00460825
5.44445e-06
0.00923143
-6.98681e-06
0.0092077
-5.5669e-06
0.00919923
-7.03722e-06
0.00918627
-8.68676e-06
0.00918139
8.53238e-06
0.00915558
9.16142e-06
0.00914557
0.00914386
-1.07076e-05
0.00914474
-1.39721e-05
0.00914528
-1.47762e-05
0.00914892
-1.43129e-06
0.00915758
-6.41248e-06
0.0091797
-6.58093e-06
0.00919283
-1.1411e-05
0.00923485
-3.21036e-05
0.00921831
-3.59976e-05
0.00461576
-3.91508e-05
0.00459846
0.00456759
-3.23328e-05
-0.00457126
0.00454981
-1.97045e-05
-0.00455757
2.74601e-05
8.03553e-06
0.00453037
7.12665e-06
-0.00454553
-2.43757e-05
0.00452858
4.10722e-05
-0.00454528
-5.36821e-05
0.00456106
5.30664e-05
-0.00456045
-3.65904e-05
0.00460986
1.59127e-05
-0.00458919
-2.3451e-06
0.00461213
-3.36015e-07
3.39888e-05
0.00461176
-1.42095e-05
-2.69628e-06
0.00460258
2.76731e-05
0.00921402
1.94065e-05
0.0092075
8.55562e-06
0.00919712
1.97916e-05
0.00917015
1.87363e-05
0.00915664
1.3069e-05
0.00915123
0.00914809
-1.27876e-05
0.00914872
-1.7807e-05
0.0091503
-2.36524e-05
0.00915477
-2.60319e-05
0.00915996
-2.00544e-05
0.00917372
-2.40432e-05
0.00919682
8.63097e-06
0.00920217
1.8587e-05
0.00459096
6.32968e-06
0.00461107
0.00464326
-8.91024e-06
0.00457546
-3.5489e-05
-0.0045686
2.86236e-05
0.00454759
-4.32142e-05
-0.00454327
3.88961e-05
2.71897e-05
-3.56585e-07
-0.0045102
0.00224139
0.00224198
-3.29343e-05
6.58588e-05
-0.00450573
0.00223643
0.00223638
-7.72256e-05
4.22229e-05
-0.00457809
0.00230045
0.00231265
-5.35567e-05
0.00460886
5.55149e-05
-0.00461082
-4.76715e-05
0.00461909
4.82121e-05
-0.00461963
-4.64756e-05
0.00461267
4.55678e-05
5.43885e-05
0.00924161
-4.39867e-05
-3.79912e-05
3.44394e-05
0.00922745
3.61002e-05
0.00919546
3.03406e-05
0.00917591
2.17097e-05
0.00916527
1.53681e-05
0.00915757
0.00915294
-1.40729e-05
0.00915271
-1.93918e-05
0.00915562
-2.62176e-05
0.00916159
-3.56189e-05
0.00916936
-4.13629e-05
0.00917947
-4.48346e-05
0.00920029
-2.80828e-05
0.00922209
-3.66722e-05
0.00460015
-3.72725e-05
0.0046057
-4.40909e-07
-0.00463752
3.22682e-05
0.00458266
1.80559e-05
-0.00458504
-1.56758e-05
-0.00228312
7.06125e-07
0.00228842
-6.00911e-06
-0.00222862
1.57254e-05
0.00223049
-1.75947e-05
-0.00221288
-2.01964e-05
0.00219962
3.34576e-05
-0.00228933
-2.82021e-05
0.00226065
5.68814e-05
-4.22599e-05
0.000106658
-0.00461509
-4.63138e-05
0.00229427
0.00230273
-0.000103224
0.00463427
8.93199e-05
-0.00462036
-7.36664e-05
-0.00462284
0.00463619
6.03205e-05
6.97144e-05
0.00927794
-5.53808e-05
-5.06663e-05
5.59874e-05
0.00924118
4.42455e-05
0.0092072
3.16889e-05
0.00918847
2.29561e-05
0.009174
1.62208e-05
0.00916431
0.00915778
-1.48858e-05
0.00915678
-2.04332e-05
0.00916117
-2.69648e-05
0.00916813
-3.57592e-05
0.00917816
-4.8306e-05
0.00919201
-6.02685e-05
0.00921225
-3.93001e-05
0.00924046
-3.93382e-05
-0.00460927
0.00461917
-4.91928e-05
-0.00460753
0.00462278
-7.68785e-05
6.16263e-05
-0.00459372
0.00461862
9.65378e-05
-5.73899e-05
-6.40492e-05
-0.00227652
5.88526e-05
0.00227767
-5.99994e-05
-0.0011114
2.10533e-05
0.00110745
-1.71031e-05
-1.14719e-05
-0.00105507
0.00104934
1.72018e-05
-4.7386e-05
-0.00227804
9.34836e-05
-3.38029e-05
0.00111988
0.00114586
-0.000106539
-0.00230826
0.00232026
9.45415e-05
-0.000143432
-0.00465784
0.00468668
0.000114589
-9.10889e-05
-0.00465164
0.00467075
7.19786e-05
8.06372e-05
0.00930974
-5.60089e-05
-5.64279e-05
6.05665e-05
0.00926125
4.18451e-05
0.00922592
2.92327e-05
0.00920108
2.05939e-05
0.00918264
1.43775e-05
0.00917053
0.00916095
-1.41611e-05
0.00916005
-1.93463e-05
0.00916635
-2.52403e-05
0.00917402
-3.40555e-05
0.00918697
-4.5666e-05
0.00920362
-6.23149e-05
0.0092289
-3.80791e-05
0.00925923
-4.30075e-05
-0.00462966
0.00464063
-4.90578e-05
-0.00464238
0.0046615
-8.26314e-05
6.35145e-05
-0.00465315
0.00469106
0.000109153
-7.20985e-05
-7.49617e-05
-0.00231387
0.000100505
0.00233441
-0.000121044
-0.00112699
0.000106309
0.00114085
-0.000120174
-0.000145574
-0.0011571
0.00117097
0.000131707
-0.000149497
-0.00236591
0.00238774
0.000127671
-0.00016813
-0.00472465
0.00476207
0.000130713
-0.000102725
-0.00469367
0.0047141
8.22991e-05
7.75154e-05
0.00935701
-5.94095e-05
-6.53796e-05
4.7089e-05
0.00929167
3.22913e-05
0.00924072
2.22545e-05
0.00921112
1.60523e-05
0.00918884
1.22936e-05
0.00917428
0.00916333
-1.29977e-05
0.00916276
-1.63098e-05
0.00916966
-2.08129e-05
0.00917852
-2.6336e-05
0.00919249
-3.37991e-05
0.00921109
-4.40873e-05
0.00923919
-3.30336e-05
0.0092755
-2.73188e-05
-0.00464361
0.00465246
-4.18835e-05
-0.00468394
0.0046987
-7.18832e-05
5.71225e-05
-0.0047278
0.00475427
9.0811e-05
-6.17822e-05
-5.54987e-05
-0.00239311
8.60338e-05
0.00240822
-0.00010115
-0.00122985
8.89859e-05
0.00123846
-9.75905e-05
-0.000123849
-0.00127214
0.00128298
0.000113011
-0.000116784
-0.00244904
0.00246705
9.87805e-05
-0.000120046
-0.00479734
0.00482427
9.31183e-05
-7.23288e-05
-0.00473246
0.0047465
5.82822e-05
5.84301e-05
0.00937859
-3.45369e-05
-4.54736e-05
3.20892e-05
0.00931802
1.73314e-05
0.00925548
1.23043e-05
0.00921615
9.18114e-06
0.00919197
7.14834e-06
0.00917632
0.009163
-1.06619e-05
0.00916427
-1.33334e-05
0.00917234
-1.55438e-05
0.00918073
-1.85887e-05
0.00919554
-2.07371e-05
0.00921324
-2.32024e-05
0.00924165
-1.59757e-05
0.0092776
-9.33124e-06
-0.00466032
0.00466817
-2.38265e-05
-0.00470787
0.00471115
-3.03047e-05
2.70193e-05
-0.00476939
0.00477195
3.29632e-05
-2.18395e-05
-1.36818e-05
-0.00243468
2.73135e-05
0.00243657
-2.92045e-05
-0.00126857
1.97792e-05
0.00126875
-1.99648e-05
-2.81775e-05
-0.00132453
0.00132571
2.69988e-05
-3.21582e-05
-0.00249946
0.00250294
2.86787e-05
-3.1839e-05
-0.00484033
0.00484407
2.81037e-05
-2.50053e-05
-0.00475586
0.00475956
2.13105e-05
2.36255e-05
0.00937815
-6.34524e-06
-1.68376e-05
2.37423e-05
0.0093179
5.72648e-06
0.00927349
-2.96557e-07
0.00922217
1.28305e-06
0.00919039
1.90225e-06
0.0091757
0.00916078
-8.53721e-06
0.00916517
-9.58779e-06
0.00917339
-1.00831e-05
0.00918123
-9.28102e-06
0.00919474
-8.44607e-06
0.0092124
-3.00884e-06
0.00923622
3.7788e-07
0.00927024
3.976e-06
-0.00467076
0.00467135
-2.13932e-07
-0.00470877
0.00470122
1.20769e-05
-4.5253e-06
-0.0047629
0.00474515
-2.42491e-05
1.75753e-05
2.44305e-05
-0.00242395
-2.91001e-05
0.00241504
3.80171e-05
-0.00124633
-3.88396e-05
0.00124112
4.40522e-05
6.06285e-05
-0.00130138
0.00129438
-5.36333e-05
5.24147e-05
-0.00249057
0.0024808
-4.26459e-05
5.43095e-05
-0.00483618
0.00481917
-3.72994e-05
2.35609e-05
-0.0047566
0.00474864
-1.5599e-05
-1.12728e-05
0.00935956
1.87052e-05
1.11606e-05
1.40169e-06
0.00930522
8.14672e-06
0.00926675
-1.2708e-05
0.00924302
-8.04916e-06
0.00918573
-3.82227e-06
0.00917147
0.0091568
-6.00932e-06
0.00916519
-5.23317e-06
0.00917261
-4.00819e-06
0.00918
-1.24283e-06
0.00919197
4.56254e-06
0.0092066
1.53397e-05
0.00922544
1.19819e-05
0.00925849
1.51079e-05
-0.00466588
0.00465992
1.79428e-05
-0.00469035
0.00467763
3.98953e-05
-2.7178e-05
-0.00472134
0.00469554
-5.81472e-05
4.09911e-05
4.29578e-05
-0.00238073
-5.99522e-05
0.00236818
7.25091e-05
-0.00119936
-6.40062e-05
0.001193
7.03682e-05
9.97222e-05
-0.0012373
0.00122909
-9.15067e-05
9.97003e-05
-0.00243914
0.0024236
-8.41621e-05
0.000108725
-0.00479337
0.00476249
-7.78505e-05
5.73026e-05
-0.00473627
0.00472159
-4.2626e-05
-3.48662e-05
0.00932745
3.52552e-05
3.17172e-05
-1.55589e-05
0.00928592
-2.96206e-06
0.00925415
2.46841e-06
0.00923759
-1.62285e-05
0.00920443
-9.88038e-06
0.00916512
0.00915097
-3.8894e-06
0.00916465
-2.25545e-06
0.00917098
-3.56882e-08
0.00917778
4.4903e-06
0.00918745
1.12328e-05
0.00919985
2.3288e-05
0.00921339
1.96844e-05
0.00924166
2.04316e-05
-0.00465237
0.00464501
2.70401e-05
-0.00466424
0.00465174
4.8347e-05
-3.58531e-05
-0.00467001
0.00464784
-6.48796e-05
4.44104e-05
4.26408e-05
-0.00233248
-6.13524e-05
0.00232247
7.1356e-05
-0.0011524
-5.81721e-05
0.00114816
6.24115e-05
9.50279e-05
-0.00117063
0.00116283
-8.72328e-05
0.000101172
-0.00237782
0.00236448
-8.78283e-05
0.000115535
-0.00472858
0.00470064
-8.75865e-05
6.70856e-05
-0.00470643
0.00469178
-5.24366e-05
-4.42027e-05
0.00929428
3.85513e-05
3.8819e-05
-2.30631e-05
0.00926478
-8.64189e-06
0.00923973
-7.00808e-06
0.00923596
-1.94636e-05
0.00921688
-1.5257e-05
0.00916092
0.00914382
-1.84204e-06
0.00916339
-3.44803e-07
0.00916948
2.65967e-06
0.00917478
6.82733e-06
0.00918328
1.33073e-05
0.00919337
2.28696e-05
0.00920382
3.5404e-05
0.00922913
3.22473e-05
0.0092606
2.32002e-05
-0.00463859
-0.00464205
-0.00464136
0.00463447
3.9131e-05
-0.00463057
0.00463787
3.3375e-05
-4.06826e-05
-0.0023086
-4.34759e-06
0.00233425
-2.12972e-05
-0.00115586
3.74685e-05
0.00113765
-1.92666e-05
-0.000334611
7.23495e-06
0.000343677
-1.63013e-05
3.39148e-05
-0.00113013
0.00227275
-6.98556e-05
2.88994e-05
-0.00113558
-0.00233593
6.9825e-05
0.00233182
-6.57071e-05
8.58924e-05
-0.00467934
0.00466331
-6.98607e-05
5.6336e-05
-0.00468098
0.00467771
-5.30686e-05
-4.11094e-05
0.00926962
3.06755e-05
3.50968e-05
-2.29317e-05
0.0092466
-9.95973e-06
0.00922676
-2.25205e-05
0.00924852
3.70518e-06
0.00919066
-1.71308e-05
0.00918175
0.00913843
-1.40472e-06
0.00916268
4.51388e-08
0.00916803
2.28444e-06
0.00917254
5.32876e-06
0.00918023
1.05088e-05
0.00918819
1.53929e-05
0.00919894
8.90905e-06
0.00923561
-9.64272e-06
0.0093107
-3.15524e-05
-0.00464436
0.00466257
-2.7852e-05
-0.00464845
0.00462862
-6.62377e-06
2.64548e-05
-0.00230083
-1.43921e-05
0.002297
1.82194e-05
-0.00227767
-8.3546e-06
0.002284
2.03062e-06
-0.000889162
2.88544e-05
0.00184602
-5.09918e-05
-0.000934726
-0.0022996
6.04947e-05
0.00229371
-5.46008e-05
-0.00463696
6.6401e-05
0.00464833
-0.000120637
4.28664e-05
0.000112192
-0.00465485
0.00464361
-0.000100958
-0.000122686
0.00926831
6.10567e-05
9.25183e-05
-0.00469378
-0.00460542
-9.65202e-05
0.00924345
-7.70325e-05
0.00922711
-5.93966e-05
0.00920912
-5.4891e-06
0.00919461
3.62311e-06
0.00918154
1.06334e-05
0.00917474
0.00916388
-1.00688e-06
0.00916223
-3.9121e-07
0.00916741
7.51331e-07
0.0091714
2.78965e-06
0.0091782
4.74245e-06
0.00918624
2.74274e-06
0.00920094
-2.17211e-05
0.00926008
-3.14048e-05
0.00931349
6.89428e-06
-0.00465929
0.00463053
-2.64452e-06
-0.00461594
0.00461539
1.29752e-05
-1.24281e-05
-0.00460088
0.00460907
7.96932e-07
-8.98807e-06
-0.00229674
6.36504e-06
0.00229668
-6.29912e-06
-0.00189161
1.9992e-05
0.00190618
-3.45571e-05
-0.00229344
3.58387e-05
0.0046036
-8.25609e-05
-0.00229837
3.49329e-05
-0.00464
9.18671e-05
0.00463417
-8.60399e-05
-0.00463682
8.15596e-05
0.00463104
-7.57791e-05
-9.01422e-05
0.00923257
5.86431e-05
6.72415e-05
-6.1838e-05
0.00921515
-5.2273e-05
0.00921755
-4.71342e-05
0.00920398
-4.16417e-05
0.00918912
-3.50492e-05
0.00917495
-2.56158e-05
0.00916531
0.00915548
-1.53992e-06
0.00916264
-9.1158e-07
0.00916679
-5.06203e-07
0.00917099
-7.67045e-08
0.00917777
-3.31641e-07
0.00918649
-1.14668e-05
0.00921207
-2.7854e-05
0.00927646
2.63693e-06
0.009283
3.19441e-06
0.00925214
-0.00462944
-0.00462365
3.9768e-07
-0.00461791
0.00461989
1.21849e-06
-0.00461607
0.00462209
-8.40983e-06
2.3929e-06
-0.00455371
1.60669e-05
0.00455495
-1.73038e-05
-0.0039624
3.36905e-05
0.00398753
-5.88181e-05
-0.0046118
6.03184e-05
0.00461397
-6.24891e-05
-0.00462925
6.17443e-05
0.00462669
-5.91788e-05
-0.00462716
5.8337e-05
0.00462412
-5.52967e-05
-8.89581e-05
0.00922179
4.87052e-05
5.10305e-05
-7.33073e-05
0.0091995
-5.72538e-05
0.00920149
-4.05011e-05
0.00918723
-2.56516e-05
0.00917427
-1.95837e-05
0.00916888
-1.80217e-05
0.00916375
0.00915652
-1.87673e-06
0.00916347
-2.2922e-06
0.0091672
-3.13007e-06
0.00917183
-3.7198e-06
0.00917836
-7.91875e-06
0.00919069
-3.00316e-05
0.00923419
-2.91412e-05
0.00927557
-7.13107e-06
0.00926099
-1.24031e-05
0.00925741
-7.95633e-06
0.00925455
-0.00462327
-0.00462522
-1.05107e-05
-0.00462742
0.00463398
-1.45128e-05
-0.00455174
2.13895e-05
0.00453777
-7.41269e-06
-0.00401164
3.01391e-05
0.00404162
-6.01222e-05
-0.00461625
4.38348e-05
0.00461876
-4.63497e-05
-8.75388e-05
0.0092435
-0.00462582
-0.00462236
4.48892e-05
4.73391e-05
-8.41342e-05
0.00923721
-0.00462137
-0.00461925
-7.67307e-05
0.00921439
-7.00525e-05
0.00919282
-5.59815e-05
0.00918742
-4.37246e-05
0.00917497
-3.35902e-05
0.00916414
-2.5313e-05
0.00916061
-1.35766e-05
0.00915201
0.0091632
-2.40824e-06
0.00916469
-3.84824e-06
0.00916864
-4.84642e-06
0.00917283
-6.27686e-06
0.00917979
-9.55111e-06
0.00919397
-2.6363e-05
0.009251
-1.81632e-05
0.00926737
-9.78277e-06
0.00925261
-1.80409e-05
0.00926567
-2.84182e-05
0.00926493
-3.39463e-05
0.00929467
-0.00464411
-0.00464503
-5.45357e-05
0.00873813
-0.00448655
-0.00423098
-7.75484e-05
0.00851452
-0.00410254
-0.00438897
-7.41257e-05
0.009255
-0.00462401
-0.00463442
-7.33105e-05
0.00924268
-7.21142e-05
0.00923602
-6.68116e-05
0.00920908
-6.16102e-05
0.00918762
-5.15844e-05
0.0091774
-4.29462e-05
0.00916633
-3.68856e-05
0.00915808
-2.68752e-05
0.0091506
-1.85693e-05
0.0091437
0.00916561
-3.04707e-06
0.00916629
-4.4494e-06
0.00917004
-6.50098e-06
0.00917488
-8.58406e-06
0.00918187
-1.21333e-05
0.00919752
-2.16676e-05
0.00926053
-1.71896e-05
0.00926289
-1.44081e-05
0.00924983
-2.03992e-05
0.00927166
-2.92452e-05
0.00927378
-3.44882e-05
0.00929991
-4.66835e-05
0.00875032
-6.01072e-05
0.00852795
-6.06018e-05
0.0092555
-6.29735e-05
0.00924505
-6.23514e-05
0.00923539
-5.88531e-05
0.00920559
-5.4661e-05
0.00918343
-4.75327e-05
0.00917027
-4.06009e-05
0.0091594
-3.4431e-05
0.00915191
-2.70512e-05
0.00914322
-2.01797e-05
0.00913683
0.00916678
-3.7305e-06
0.00916819
-6.02375e-06
0.00917234
-8.51145e-06
0.00917737
-1.10809e-05
0.00918444
-1.36478e-05
0.00920008
-1.71229e-05
0.00926401
-1.68769e-05
0.00926265
-1.7331e-05
0.00925028
-2.22987e-05
0.00927663
-3.03203e-05
0.0092818
-3.37878e-05
0.00930338
-4.20704e-05
0.0087586
-5.13329e-05
0.00853721
-5.12095e-05
0.00925537
-5.46691e-05
0.00924851
-5.43076e-05
0.00923503
-5.20522e-05
0.00920333
-4.91462e-05
0.00918052
-4.39724e-05
0.00916509
-3.8393e-05
0.00915382
-3.29066e-05
0.00914642
-2.65323e-05
0.00913684
-2.05361e-05
0.00913084
0.00916767
-4.41608e-06
0.00917035
-7.01958e-06
0.00917494
-9.3317e-06
0.00917968
-1.22501e-05
0.00918736
-1.51458e-05
0.00920298
-1.63938e-05
0.00926526
-1.82469e-05
0.0092645
-2.24235e-05
0.00925446
-2.34692e-05
0.00927767
-3.03837e-05
0.00928871
-3.33794e-05
0.00930637
-3.85996e-05
0.00876382
-4.46947e-05
0.0085433
-4.47816e-05
0.00925546
-4.78831e-05
0.00925162
-4.77436e-05
0.00923489
-4.64524e-05
0.00920204
-4.45427e-05
0.00917861
-3.99814e-05
0.00916053
-3.64585e-05
0.0091503
-3.09551e-05
0.00914092
-2.59482e-05
0.00913184
-2.1235e-05
0.00912612
0.00916772
-5.57917e-06
0.00917321
-7.41512e-06
0.00917678
-1.04619e-05
0.00918273
-1.31177e-05
0.00919001
-1.61966e-05
0.00920606
-1.75994e-05
0.00926666
-1.95983e-05
0.0092665
-2.36157e-05
0.00925848
-2.40181e-05
0.00927807
-2.99646e-05
0.00929466
-3.25604e-05
0.00930897
-3.58085e-05
0.00876707
-3.97401e-05
0.00854723
-3.96827e-05
0.0092554
-4.24123e-05
0.00925434
-4.23801e-05
0.00923486
-4.16539e-05
0.00920131
-3.97805e-05
0.00917674
-3.70625e-05
0.00915781
-3.38647e-05
0.0091471
-2.91579e-05
0.00913621
-2.48846e-05
0.00912756
-2.03618e-05
0.0091216
0.00916835
-5.69892e-06
0.00917571
-8.71049e-06
0.00917979
-1.14087e-05
0.00918542
-1.42222e-05
0.00919283
-1.73817e-05
0.00920922
-1.83453e-05
0.00926762
-2.04314e-05
0.00926859
-2.42118e-05
0.00926226
-2.66843e-05
0.00928055
-2.94683e-05
0.00929744
-3.15482e-05
0.00931105
-3.3512e-05
0.00876903
-3.59902e-05
0.00854971
-3.56296e-05
0.00925504
-3.79685e-05
0.00925668
-3.80219e-05
0.00923491
-3.76406e-05
0.00920093
-3.62632e-05
0.00917536
-3.36828e-05
0.00915523
-3.11138e-05
0.00914453
-2.80567e-05
0.00913315
-2.4387e-05
0.00912389
-2.09561e-05
0.00911817
0.009168
-6.27368e-06
0.0091783
-8.90097e-06
0.00918241
-1.21935e-05
0.00918872
-1.51019e-05
0.00919573
-1.77717e-05
0.00921189
-1.87373e-05
0.00926859
-2.09429e-05
0.00927079
-2.44533e-05
0.00926577
-2.76895e-05
0.00928378
-2.87898e-05
0.00929854
-3.04854e-05
0.00931274
-3.13724e-05
0.00876992
-3.31232e-05
0.00855146
-3.20801e-05
0.009254
-3.42761e-05
0.00925888
-3.43949e-05
0.00923503
-3.43535e-05
0.00920089
-3.33847e-05
0.00917439
-3.17806e-05
0.00915363
-2.9698e-05
0.00914245
-2.61731e-05
0.00912963
-2.3001e-05
0.00912072
-2.00683e-05
0.00911524
0.00916809
-6.79864e-06
0.00918095
-9.49967e-06
0.00918512
-1.23333e-05
0.00919155
-1.5291e-05
0.00919869
-1.84359e-05
0.00921503
-1.93669e-05
0.00926952
-2.11389e-05
0.00927256
-2.44269e-05
0.00926906
-2.74051e-05
0.00928676
-3.39139e-05
0.00930505
-3.36413e-05
0.00931247
-3.32783e-05
0.00876956
-3.34821e-05
0.00855167
-3.20835e-05
0.0092526
-3.35341e-05
0.00926033
-3.36432e-05
0.00923514
-3.39409e-05
0.00920119
-3.35328e-05
0.00917398
-3.32882e-05
0.00915338
-2.9088e-05
0.00913825
-2.59968e-05
0.00912654
-2.27294e-05
0.00911745
-1.97165e-05
0.00911222
0.00916804
-7.2734e-06
0.00918362
-1.00136e-05
0.00918786
-1.23551e-05
0.00919389
-1.5833e-05
0.00920217
-1.8421e-05
0.00921762
-1.97988e-05
0.0092709
-2.12055e-05
0.00927397
-2.42791e-05
0.00927213
-2.95379e-05
0.00929202
-3.52559e-05
0.00931077
-3.61808e-05
0.0093134
-3.62237e-05
0.0087696
-3.69934e-05
0.00855244
-3.57176e-05
0.00925132
-3.70918e-05
0.0092617
-3.71871e-05
0.00923524
-3.73032e-05
0.0092013
-3.61492e-05
0.00917283
-3.51762e-05
0.00915241
-3.37276e-05
0.0091368
-3.14605e-05
0.00912427
-2.94999e-05
0.00911549
-2.68273e-05
0.00910955
0.00916035
-7.69689e-06
0.00918629
-1.04515e-05
0.00919061
-1.32819e-05
0.00919672
-1.57501e-05
0.00920464
-1.82743e-05
0.00922014
-1.95854e-05
0.00927221
-2.12034e-05
0.00927559
-2.65063e-05
0.00927743
-3.11259e-05
0.00929664
-3.47501e-05
0.00931439
-3.52876e-05
0.00931393
-3.51366e-05
0.00876945
-3.55642e-05
0.00855287
-3.3817e-05
0.00924958
-3.50018e-05
0.00926289
-3.51435e-05
0.00923538
-3.53013e-05
0.00920146
-3.47134e-05
0.00917224
-3.3448e-05
0.00915115
-3.22117e-05
0.00913557
-3.07103e-05
0.00912277
-2.85045e-05
0.00911329
-2.66032e-05
0.00910765
0.00915241
-8.06954e-06
0.00918894
-1.03172e-05
0.00919286
-1.31182e-05
0.00919952
-1.55706e-05
0.00920709
-1.85306e-05
0.0092231
-1.97766e-05
0.00927345
-2.34912e-05
0.0092793
-2.86861e-05
0.00928263
-3.09553e-05
0.00929891
-3.42275e-05
0.00931767
-3.46187e-05
0.00931432
-3.4269e-05
0.0087691
-3.44244e-05
0.00855302
-3.23926e-05
0.00924755
-3.33847e-05
0.00926388
-3.35151e-05
0.00923551
-3.36851e-05
0.00920163
-3.31341e-05
0.00917169
-3.25146e-05
0.00915053
-3.0941e-05
0.00913399
-2.91561e-05
0.00912098
-2.81389e-05
0.00911227
-2.59632e-05
0.00910547
0.00914466
-7.88698e-06
0.00919106
-1.11238e-05
0.00919609
-1.33839e-05
0.00920178
-1.63178e-05
0.00921002
-1.82111e-05
0.009225
-2.24192e-05
0.00927766
-2.64907e-05
0.00928337
-2.86382e-05
0.00928477
-3.08119e-05
0.00930108
-3.39067e-05
0.00932076
-3.39816e-05
0.0093144
-3.36098e-05
0.00876873
-3.3538e-05
0.00855295
-3.1185e-05
0.00924519
-3.21198e-05
0.00926482
-3.21819e-05
0.00923557
-3.23985e-05
0.00920185
-3.18577e-05
0.00917115
-3.13498e-05
0.00915002
-2.98967e-05
0.00913254
-2.87747e-05
0.00911986
-2.69129e-05
0.00911041
-2.54088e-05
0.00910397
0.00913705
-8.65346e-06
0.00919363
-1.08617e-05
0.0091983
-1.30817e-05
0.009204
-1.59939e-05
0.00921294
-2.13645e-05
0.00923037
-2.80414e-05
0.00928434
-2.64971e-05
0.00928183
-2.85492e-05
0.00928683
-3.06165e-05
0.00930315
-3.36448e-05
0.00932379
-3.35817e-05
0.00931434
-3.31501e-05
0.0087683
-3.30209e-05
0.00855282
-3.03647e-05
0.00924254
-3.10601e-05
0.00926551
-3.12011e-05
0.00923571
-3.14039e-05
0.00920205
-3.08522e-05
0.0091706
-2.99245e-05
0.00914909
-2.95551e-05
0.00913217
-2.80633e-05
0.00911837
-2.68132e-05
0.00910916
-2.54447e-05
0.0091026
0.00912907
-8.35294e-06
0.00919565
-1.10411e-05
0.00920099
-1.3722e-05
0.00920669
-1.5613e-05
0.00921483
-3.10221e-05
0.00924578
-2.75849e-05
0.0092809
-2.65459e-05
0.00928079
-2.85423e-05
0.00928882
-3.05884e-05
0.0093052
-3.35021e-05
0.0093267
-3.32808e-05
0.00931411
-3.28833e-05
0.0087679
-3.26606e-05
0.0085526
-2.97567e-05
0.00923963
-3.03791e-05
0.00926613
-3.04337e-05
0.00923577
-3.06122e-05
0.00920223
-3.00839e-05
0.00917007
-2.97099e-05
0.00914872
-2.84083e-05
0.00913087
-2.80103e-05
0.00911797
-2.63457e-05
0.00910749
-2.50819e-05
0.00910134
0.00912116
-8.98698e-06
0.00919812
-1.06523e-05
0.00920266
-1.32935e-05
0.00920933
-2.42539e-05
0.00922579
-3.15619e-05
0.00925308
-2.81187e-05
0.00927746
-2.65362e-05
0.00927921
-2.85226e-05
0.00929081
-3.05762e-05
0.00930725
-3.34948e-05
0.00932962
-3.31005e-05
0.00931372
-3.28174e-05
0.00876762
-3.26492e-05
0.00855243
-2.93958e-05
0.00923638
-2.98942e-05
0.00926663
-2.99513e-05
0.00923582
-3.01009e-05
0.00920238
-2.95258e-05
0.00916949
-2.91955e-05
0.00914839
-2.84321e-05
0.0091301
-2.71171e-05
0.00911665
-2.60089e-05
0.00910638
-2.43299e-05
0.00909966
0.00911381
-8.53324e-06
0.00920002
-1.12021e-05
0.00920532
-1.33007e-05
0.00921143
-2.68051e-05
0.00923929
-3.05431e-05
0.00925682
-2.76314e-05
0.00927455
-2.65679e-05
0.00927814
-2.85468e-05
0.00929279
-3.06249e-05
0.00930933
-3.36076e-05
0.0093326
-3.32151e-05
0.00931333
-3.29569e-05
0.00876736
-3.28255e-05
0.0085523
-2.92891e-05
0.00923284
-2.96509e-05
0.00926699
-2.96237e-05
0.0092358
-2.97454e-05
0.0092025
-2.91493e-05
0.0091689
-2.88612e-05
0.0091481
-2.81158e-05
0.00912936
-2.73676e-05
0.00911591
-2.57993e-05
0.00910482
-2.46813e-05
0.00909854
0.00910599
-8.46676e-06
0.00920186
-1.06719e-05
0.00920753
-1.27101e-05
0.00921346
-2.32732e-05
0.00924985
-2.89441e-05
0.00926249
-2.81586e-05
0.00927376
-2.65022e-05
0.00927649
-2.86787e-05
0.00929497
-3.07577e-05
0.00931141
-3.39491e-05
0.0093358
-3.36032e-05
0.00931298
-3.3384e-05
0.00876714
-3.33354e-05
0.00855225
-2.94313e-05
0.00922894
-2.96594e-05
0.00926722
-2.94426e-05
0.00923558
-2.96385e-05
0.0092027
-2.94291e-05
0.00916869
-2.87141e-05
0.00914738
-2.79519e-05
0.0091286
-2.67867e-05
0.00911474
-2.62186e-05
0.00910425
-2.4674e-05
0.00909699
0.00909817
-8.81344e-06
-1.10772e-05
-1.25605e-05
-1.81832e-05
-2.17586e-05
-2.81805e-05
-2.64984e-05
-2.87969e-05
-3.07448e-05
-3.4088e-05
-3.42559e-05
-3.39124e-05
-3.37388e-05
-3.00335e-05
-2.9888e-05
-2.94309e-05
-2.96112e-05
-2.88228e-05
-2.8681e-05
-2.78942e-05
-2.73062e-05
-2.57464e-05
-2.52652e-05
9.64498e-05
-0.000106096
-0.00122021
0.00127839
0.000133013
-0.00126475
-7.21765e-05
-7.44766e-05
-0.00114702
-0.000161005
0.00116246
2.89541e-05
-3.00651e-05
-0.00126745
0.00133413
4.10593e-05
-0.00133207
-2.02481e-05
-2.28699e-05
0.00129032
-6.68624e-05
-6.89133e-05
-3.32848e-05
3.82565e-05
-0.0012513
0.00130534
-5.20173e-05
-0.00131217
3.03846e-05
2.8464e-05
0.00133476
-1.31123e-05
-1.56943e-05
-6.25443e-05
6.88063e-05
-0.00120562
0.0012368
-9.79597e-05
-0.00124618
0.00010734
0.00129795
3.48824e-05
3.31387e-05
-6.01732e-05
6.52226e-05
-0.00115745
0.00116323
-9.78626e-05
-0.00117203
0.000106663
0.000109628
0.0012269
3.95521e-05
-5.47006e-05
-0.00114071
-7.87232e-06
0.000398715
-1.786e-06
-0.00020384
-0.000185217
-2.13171e-05
-0.000144804
-0.000176362
0.00111998
-5.21085e-05
-0.00111933
5.14539e-05
0.000102316
0.00115594
0.000100184
-0.000110803
-0.00111637
-0.00104892
9.95976e-07
0.00103645
0.000134798
-0.0011339
-0.000147926
-0.00111036
-5.30411e-05
0.00111602
9.63469e-05
-0.000114687
-0.00237477
0.00122462
-0.00121603
8.78577e-05
-0.00113856
9.55335e-05
0.00114934
0.000308002
0.000124528
-0.000608184
0.000309232
-6.60278e-05
-6.75502e-05
0.000112482
-0.000535796
-0.000122061
0.000545375
0.000120832
-0.00125996
0.00246325
0.000132359
-0.00243887
-0.000156734
-0.00235973
-0.000175444
0.00238568
4.3379e-05
-4.86573e-05
-0.0024294
0.00126092
-0.00125976
2.77949e-05
8.10654e-05
0.00123254
0.00125757
6.48656e-05
-7.01329e-05
-0.0012523
0.000644849
-2.22207e-05
-0.000643113
4.15493e-05
-2.10643e-05
-0.000630772
-6.50211e-05
6.24739e-05
0.000633319
0.000323816
9.65906e-06
-0.000332296
-1.17857e-06
-0.000328133
5.12507e-05
-5.61939e-05
0.000333076
3.86823e-05
-0.00132215
0.00252208
5.55508e-05
-0.00251447
-6.31616e-05
-0.00013835
0.00248481
-1.67906e-05
2.38564e-05
-0.00243102
0.00124262
-0.00124703
-2.88776e-05
1.92389e-05
0.00126146
0.00126348
-5.96307e-06
8.47881e-06
-0.001266
0.00065636
9.33722e-06
-0.000658316
-1.11132e-05
3.73253e-06
-0.000659316
-6.7299e-06
1.13844e-05
0.000658838
-4.17637e-06
0.000296019
-1.40791e-07
-0.000295843
-3.47925e-08
-0.000300602
1.85612e-07
0.0003008
-3.82999e-07
-4.55623e-05
-0.00130783
0.00250693
-3.32375e-05
-0.00251684
4.31494e-05
-3.5084e-05
0.002525
-5.52717e-05
6.75107e-05
-0.00239297
0.00119946
-0.00120531
-5.66962e-05
-3.41966e-05
0.00123798
0.00122393
-5.20839e-05
5.80453e-05
-0.0012299
4.09086e-05
0.000614472
-0.00061664
-3.8741e-05
-0.000632695
1.64395e-05
-3.01581e-05
0.000629406
1.70079e-05
0.000314023
-3.90787e-05
-0.000322005
4.70604e-05
-0.000302813
-8.41302e-06
1.80364e-06
0.000309423
-8.89201e-05
-0.00124634
0.00244365
-9.07008e-05
-0.00246197
0.000109022
6.50475e-05
0.0024943
0.000550278
-7.28308e-05
-0.000552251
3.7736e-05
3.70678e-05
-0.000287328
-3.53813e-05
3.597e-05
0.000286739
-8.98639e-05
-0.00117863
0.00237152
-0.000104387
-0.00238857
0.00012144
0.000118028
0.00242532
0.000506806
-5.52743e-05
-0.000509093
5.75612e-05
-0.000528795
-6.76707e-05
7.05259e-05
0.00052594
-1.50704e-05
7.77498e-06
-0.00227038
-1.48995e-05
0.000953628
-0.000942649
3.92052e-06
3.73533e-07
0.000405576
-3.02342e-05
-0.000873827
-6.62621e-05
0.00227568
-0.0022859
7.64865e-05
3.01162e-05
0.00112378
-6.64694e-05
-0.000629326
6.50231e-05
-9.03964e-05
-0.000599197
8.47632e-05
0.00060483
-0.00118434
0.00011201
0.00119715
-0.00012482
-0.000600419
0.000606914
-4.88225e-05
-4.80692e-05
0.000632229
-0.000633513
-3.28816e-05
-3.23042e-05
8.69222e-05
-0.00053759
0.000544877
-9.42088e-05
9.25318e-05
-9.83822e-05
-0.000594568
4.56019e-05
-0.000330322
-4.34129e-05
6.20337e-05
-6.3818e-05
0.000309787
-0.00121718
0.000152857
-0.000169704
0.00123403
-0.000613821
-6.12622e-05
0.000621434
0.000115684
0.000330057
4.57889e-05
-0.000330244
-5.57895e-06
-0.000659835
1.45746e-05
-8.47664e-06
-2.24895e-05
4.02621e-05
0.000650512
-2.34362e-05
5.59855e-05
0.00126194
-6.03603e-05
-0.000321267
0.000324085
-2.5308e-05
0.000335409
-5.85444e-06
-0.000335133
0.000318128
0.000318343
-3.33712e-05
-3.58914e-05
-2.2747e-05
-0.00032074
-1.46425e-06
-0.000302522
3.38392e-06
1.59083e-05
-5.5624e-06
0.00031347
-0.00131714
7.88609e-05
0.00132354
-4.13935e-05
-4.38648e-05
-0.000327996
0.000321385
2.2519e-05
0.000329641
1.45889e-06
-0.000332565
0.000333666
4.76419e-05
1.73243e-05
-0.000335661
9.10109e-05
-0.00130966
-4.80095e-05
-5.04828e-05
1.67205e-05
-0.000635769
-2.84239e-05
1.47777e-05
8.45376e-06
-1.55634e-05
0.000649994
1.34756e-05
-1.34898e-05
0.00125987
1.71034e-05
-0.000334116
0.000329881
1.26883e-05
0.000313643
1.83334e-05
-0.000315256
0.000334015
-5.33629e-06
8.98007e-06
-0.000333758
-1.45859e-05
-0.000294757
6.52932e-06
-8.40781e-07
0.000295888
9.71385e-07
-0.00132823
-2.11606e-05
0.0013237
1.39033e-05
1.17896e-05
-0.000324475
0.000325741
-2.10763e-06
0.000308315
-1.94747e-05
-0.000303426
0.000328044
1.78274e-06
-1.63687e-06
-0.000322978
-9.5038e-06
-0.00133166
7.57059e-06
5.36663e-06
-0.000601491
-4.15936e-05
0.000600723
2.03943e-05
2.19672e-05
0.000585245
-4.68976e-05
4.86699e-05
-0.000587017
0.000311021
1.90616e-05
-0.000602581
2.10683e-05
2.09303e-05
-3.66778e-05
-0.000288879
3.82292e-05
-4.26746e-05
5.43019e-05
0.000302396
-0.00127301
-8.61682e-05
0.0012641
4.78703e-05
4.72102e-05
-0.00031315
0.000306624
-3.61488e-05
0.000586022
3.61859e-05
-6.85802e-05
-0.000590306
0.000314164
-1.42624e-05
-3.44921e-05
-0.000317736
-8.11243e-05
-0.00128167
4.54698e-05
4.43148e-05
-0.000566378
-4.70882e-05
0.000564006
4.94609e-05
0.000549161
-4.21604e-05
4.40738e-05
-0.000551075
-4.75208e-05
0.000584112
4.86535e-05
-4.74878e-05
5.00974e-05
-0.000568988
-6.82494e-05