/*--------------------------------*- C++ -*----------------------------------*\
| =========                 |                                                 |
| \\      /  F ield         | OpenFOAM: The Open Source CFD Toolbox           |
|  \\    /   O peration     | Version:  5.x                                   |
|   \\  /    A nd           | Web:      www.OpenFOAM.org                      |
|    \\/     M anipulation  |                                                 |
\*---------------------------------------------------------------------------*/
FoamFile
{
    version     2.0;
    format      ascii;
    class       volScalarField;
    location    "200";
    object      pSat;
}
// * * * * * * * * * * * * * * * * * * * * * * * * * * * * * * * * * * * * * //

dimensions      [0 2 -2 0 0 0 0];

internalField   nonuniform List<scalar> 
6584
(
697.948
697.948
697.948
697.948
697.948
697.948
697.948
697.948
697.948
697.948
697.948
697.948
697.948
697.948
697.948
697.948
697.948
697.948
697.948
697.948
697.948
697.948
697.948
697.948
697.948
697.948
697.948
697.948
697.948
697.948
697.948
697.948
697.948
697.948
697.948
697.948
697.948
697.948
697.948
697.948
697.948
697.948
697.948
697.948
697.948
697.948
697.948
697.948
697.948
697.948
697.948
697.948
697.948
697.948
697.948
697.948
697.948
697.948
697.948
697.948
697.948
697.948
697.948
697.948
697.948
697.948
697.948
697.948
697.948
697.948
697.948
697.948
697.948
697.948
697.948
697.948
697.948
697.948
697.948
697.948
697.948
697.948
697.948
697.948
697.948
697.948
697.948
697.948
697.948
697.948
697.948
697.948
697.948
697.948
697.948
697.948
697.948
697.948
697.948
697.948
697.948
697.948
697.948
697.948
697.948
697.948
697.948
697.948
697.948
697.948
697.948
697.948
697.948
697.948
697.948
697.948
697.948
697.948
697.948
697.948
697.948
697.948
697.948
697.948
697.948
697.948
697.948
697.948
697.948
697.948
697.948
697.948
697.948
697.948
697.948
697.948
697.948
697.948
697.948
697.948
697.948
697.948
697.948
697.948
697.948
697.948
697.948
697.948
697.948
697.948
697.948
697.948
697.948
697.948
697.948
697.948
697.948
697.948
697.948
697.948
697.948
697.948
697.948
697.948
697.948
697.948
697.948
697.948
697.948
697.948
697.948
697.948
697.948
697.948
697.948
697.948
697.948
697.948
697.948
697.948
697.948
697.948
697.948
697.948
697.948
697.948
697.948
697.948
697.948
697.948
697.948
697.948
697.948
697.948
697.948
697.948
697.948
697.948
697.948
697.948
697.948
697.948
697.948
697.948
697.948
697.948
697.948
697.948
697.948
697.948
697.948
697.948
697.948
697.948
697.948
697.948
697.948
697.948
697.948
697.948
697.948
697.948
697.948
697.948
697.948
697.948
697.948
697.948
697.948
697.948
697.948
697.948
697.948
697.948
697.948
697.948
697.948
697.948
697.948
697.948
697.948
697.948
697.948
697.948
697.948
697.948
697.948
697.948
697.948
697.948
697.948
697.948
697.948
697.948
697.948
697.948
697.948
697.948
697.948
697.948
697.948
697.948
697.948
697.948
697.948
697.948
697.948
697.948
697.948
697.948
697.948
697.948
697.948
697.948
697.948
697.948
697.948
697.948
697.948
697.948
697.948
697.948
697.948
697.948
697.948
697.948
697.948
697.948
697.948
697.948
697.948
697.948
697.948
697.948
697.948
697.948
697.948
697.948
697.948
697.948
697.948
697.948
697.948
697.948
697.948
697.948
697.948
697.948
697.948
697.948
697.948
697.948
697.948
697.948
697.948
697.948
697.948
697.948
569.352
697.948
697.948
697.948
697.948
697.948
697.948
697.948
697.948
697.948
697.948
697.948
697.948
697.948
697.948
697.948
697.948
697.948
697.948
697.948
697.948
697.948
697.948
697.948
663.424
697.948
697.948
697.948
697.948
697.948
697.948
697.948
697.948
697.948
697.948
697.948
697.948
697.948
697.948
697.948
697.948
697.948
697.948
697.948
697.948
697.948
697.948
697.947
666.339
697.948
697.948
697.948
697.948
697.948
697.948
697.948
697.948
697.948
697.948
697.948
697.948
697.948
697.948
697.948
697.948
697.948
697.948
697.948
697.948
697.948
697.948
697.696
682.868
697.948
697.948
697.948
697.948
697.948
697.948
697.948
697.948
697.948
697.948
697.948
697.948
697.948
697.948
697.948
697.948
697.948
697.948
697.948
697.948
697.948
697.948
697.568
683.376
697.948
697.948
697.948
697.948
697.948
697.948
697.948
697.948
697.948
697.948
697.948
697.948
697.948
697.948
697.948
697.948
697.948
697.948
697.948
697.948
697.948
697.901
686.274
691.111
697.948
697.948
697.948
697.948
697.948
697.948
697.948
697.948
697.948
697.948
697.948
697.948
697.948
697.948
697.948
697.948
697.948
697.948
697.948
697.948
697.948
697.857
686.382
691.177
697.947
697.948
697.948
697.948
697.948
697.948
697.948
697.948
697.948
697.948
697.948
697.948
697.948
697.948
697.948
697.948
697.948
697.948
697.948
697.948
697.948
697.814
686.486
691.235
697.946
697.948
697.948
697.948
697.948
697.948
697.948
697.948
697.948
697.948
697.948
697.948
697.948
697.948
697.948
697.948
697.948
697.948
697.948
697.948
697.947
697.774
686.589
691.287
697.945
697.948
697.948
697.948
697.948
697.948
697.948
697.948
697.948
697.948
697.948
697.948
697.948
697.948
697.948
697.948
697.948
697.948
697.948
697.948
697.946
697.734
686.689
691.335
697.944
697.948
697.948
697.948
697.948
697.948
697.948
697.948
697.948
697.948
697.948
697.948
697.948
697.948
697.948
697.948
697.948
697.948
697.948
697.948
697.945
697.697
686.789
691.38
697.943
697.948
697.948
697.948
697.948
697.948
697.948
697.948
697.948
697.948
697.948
697.948
697.948
697.948
697.948
697.948
697.948
697.948
697.948
697.948
697.945
697.662
686.887
691.423
697.943
697.948
697.948
697.948
697.948
697.948
697.948
697.948
697.948
697.948
697.948
697.948
697.948
697.948
697.948
697.948
697.948
697.948
697.948
697.948
697.943
697.624
686.985
691.466
697.942
697.948
697.948
697.948
697.948
697.948
697.948
697.948
697.948
697.948
697.948
697.948
697.948
697.948
697.948
697.948
697.948
697.948
697.948
697.948
697.942
697.584
687.085
691.512
697.941
697.948
697.948
697.948
697.948
697.948
697.948
697.948
697.948
697.948
697.948
697.948
697.948
697.948
697.948
697.948
697.948
697.948
697.948
697.948
697.941
697.546
687.184
691.556
697.94
697.948
697.948
697.948
697.948
697.948
697.948
697.948
697.948
697.948
697.948
697.948
697.948
697.948
697.948
697.948
697.948
697.948
697.948
697.948
697.939
697.51
687.282
691.599
697.94
697.948
697.948
697.948
697.948
697.948
697.948
697.948
697.948
697.948
697.948
697.948
697.948
697.948
697.948
697.948
697.948
697.948
697.948
697.948
697.937
697.475
687.379
691.642
697.939
697.948
697.948
697.948
697.948
697.948
697.948
697.948
697.948
697.948
697.948
697.948
697.948
697.948
697.948
697.948
697.948
697.948
697.948
697.948
697.936
697.441
687.476
691.684
697.938
697.948
697.948
697.948
697.948
697.948
697.948
697.948
697.948
697.948
697.948
697.948
697.948
697.948
697.948
697.948
697.948
697.948
697.948
697.948
697.934
697.409
687.572
691.726
697.937
697.948
697.948
697.948
697.948
697.948
697.948
697.948
697.948
697.948
697.948
697.948
697.948
697.948
697.948
697.948
697.948
697.948
697.948
697.948
697.932
697.377
687.667
691.767
697.937
697.948
697.948
697.948
697.948
697.948
697.948
697.948
697.948
697.948
697.948
697.948
697.948
697.948
697.948
697.948
697.948
697.948
697.948
697.948
697.93
697.346
687.762
691.809
697.936
697.948
697.948
697.948
697.948
697.948
697.948
697.948
697.948
697.948
697.948
697.948
697.948
697.948
697.948
697.948
697.948
697.948
697.948
697.948
697.927
697.316
687.856
691.85
697.935
697.948
697.948
697.948
697.948
697.948
697.948
697.948
697.948
697.948
697.948
697.948
697.948
697.948
697.948
697.948
697.948
697.948
697.948
697.948
697.925
697.286
687.95
691.892
697.935
697.948
697.948
697.948
697.948
697.948
697.948
697.948
697.948
697.948
697.948
697.948
697.948
697.948
697.948
697.948
697.948
697.948
697.948
697.948
697.948
697.948
697.948
697.948
697.948
697.948
697.948
584.324
565.002
697.948
697.948
697.948
697.948
697.948
697.948
697.948
697.948
697.948
697.948
697.948
697.948
697.948
697.948
697.948
697.948
697.948
697.948
697.77
697.912
697.485
697.886
697.948
697.948
697.948
697.948
697.948
697.948
697.948
697.33
697.363
692.564
695.15
697.948
697.948
697.948
697.948
697.948
697.948
697.948
697.577
697.457
696.351
693.987
697.948
697.948
697.948
697.634
697.542
697.948
697.948
697.948
697.873
697.813
697.948
619.258
584.478
635.088
697.948
697.948
697.924
697.948
697.948
697.947
697.845
697.948
697.948
697.898
697.948
697.948
697.948
697.93
697.392
697.728
697.948
697.208
695.757
697.799
697.287
695.323
697.466
697.948
697.704
697.182
697.924
697.716
697.948
697.44
697.34
697.948
695.803
696.562
695.712
695.757
693.899
692.415
697.948
696.989
697.187
697.174
697.001
697.948
696.549
697.038
696.611
696.466
697.51
696.493
697.948
697.578
697.811
697.198
697.554
697.948
697.443
697.624
697.095
697.409
697.8
697.663
697.821
697.875
697.948
697.761
697.702
697.645
697.751
697.9
697.879
697.948
697.948
697.948
697.932
697.948
697.948
697.948
697.948
697.948
697.79
697.713
692.331
688.804
697.948
697.948
697.948
697.948
697.934
697.948
697.948
697.948
697.699
697.593
697.948
574.892
597.727
667.253
677.104
599.199
625.592
688.125
681.792
697.948
697.881
697.91
678.23
683.964
697.913
697.927
697.948
697.948
697.948
697.948
697.948
697.948
697.948
697.925
697.948
697.938
697.948
697.941
697.948
697.633
697.735
694.028
694.161
695.524
695.249
697.529
681.021
697.703
694.881
692.721
692.55
694.677
697.844
695.274
697.935
690.21
697.029
688.754
697.924
697.226
697.933
697.948
697.891
695.998
697.937
697.94
696.331
696.24
697.661
697.624
696.223
696.341
697.221
697.942
697.945
697.94
697.942
697.217
697.85
697.947
697.948
697.945
697.947
697.816
696.188
696.233
695.582
695.586
690.638
690.889
696.881
697.939
697.939
697.94
697.939
696.878
697.113
697.939
697.939
697.939
697.938
697.103
577.4
696.78
604.126
580.143
631.885
605.833
696.849
696.103
582.799
696.195
697.188
697.118
697.362
697.941
697.94
697.942
697.942
697.399
651.058
665.136
697.247
653.508
633.831
669.538
655.698
697.291
628.236
648.793
697.753
688.356
692.137
681.878
687.61
697.734
680.273
684.516
686.377
609.148
684.606
683.773
599.364
695.132
695.078
697.946
697.948
697.948
697.948
697.948
697.896
697.887
626.923
697.739
697.846
697.947
697.847
697.798
697.948
594.492
599.529
567.243
684.735
685.028
604.01
612.473
694.332
695.148
510.743
697.948
697.948
697.948
697.948
697.948
697.948
697.85
697.947
697.945
697.5
697.335
697.821
697.317
697.938
697.938
697.939
697.938
697.32
693.245
694.754
695.997
694.2
673.088
667.657
697.853
694.899
696.183
697.454
697.486
616.392
697.948
697.944
697.948
697.916
697.593
697.408
697.946
697.948
697.948
697.948
697.948
697.945
697.514
697.942
697.94
697.945
697.943
697.563
696.814
679.222
689.942
673.13
674.215
695.932
690.998
692.088
697.453
695.7
696.721
697.426
697.903
697.907
697.869
697.876
697.199
697.938
697.939
697.378
695.992
676.9
672.003
695.616
672.111
672.941
670.949
670.341
695.648
692.625
691.512
696.926
697.866
697.863
697.853
697.882
697.068
697.151
697.863
697.867
697.862
697.86
697.05
697.391
690.806
692.297
688.759
687.878
696.797
697.763
697.944
697.943
697.945
697.944
697.776
697.532
679.706
671.062
687.218
684.939
697.558
641
645.819
697.698
689.664
687.902
634.319
639.435
679.485
674.512
697.946
697.947
697.947
666.441
691.034
668.981
671.954
670.485
690.573
697.948
697.94
697.948
697.918
697.947
577.764
585.141
594.937
594.55
672.058
609.488
604.576
619.237
610.978
673.35
606.564
611.595
685.763
684.711
681.083
631.563
623.283
613.723
619.108
697.905
697.945
697.948
697.931
697.943
697.889
697.509
697.808
693.388
694.615
695.912
694.343
681.956
693.194
692.101
694.354
693.538
681.788
689.631
688.591
691.759
690.206
694.138
680.055
683.294
674.179
678.495
693.821
664.819
665.497
693.529
697.706
697.48
697.905
697.771
694.402
696.009
695.533
697.3
696.22
697.811
697.944
697.921
697.72
697.547
697.829
697.634
697.922
697.682
697.879
697.925
697.724
697.858
697.945
697.905
697.842
676.014
677.672
696.666
660.46
652.808
680.831
662.047
642.638
636.91
650.521
645.442
696.004
674.685
675.635
689.424
687.432
695.284
691.193
685.237
683.118
687.106
685.772
697.499
692.332
693.011
695.828
696.657
697.889
697.9
697.31
697.204
697.878
697.886
678.882
677.823
696.048
644.81
646.452
620.803
641.616
646.468
653.555
646.359
646.211
671.422
671.934
695.597
630.045
626.795
635.911
631.145
621.006
618.804
625.465
622.869
695.634
670.697
671.186
691.742
691.32
697.872
697.867
696.912
696.993
697.88
697.873
697.86
697.862
697.142
697.061
697.86
697.86
582.105
590.797
682.402
685.092
678.591
681.396
582.725
621.655
688.535
683.996
685.815
687.896
616.305
664.677
666.939
657.419
663.83
590.917
674.625
677.766
668.017
673.009
591.206
689.503
690.44
697.347
685.66
687.416
688.111
685.617
687.383
696.873
687.333
688.722
656.931
585.251
585.108
601.521
587.226
658.97
594.72
635.997
585.34
639.374
684.84
695.282
694.606
696.079
695.507
685.362
677.666
678.415
647.758
652.47
622.424
632.222
683.092
680.658
697.948
697.948
697.948
697.948
697.935
697.937
697.948
697.948
697.948
697.948
697.948
697.948
697.948
697.948
697.948
697.948
697.947
697.87
697.491
696.748
696.647
692.726
695.014
697.94
697.941
697.508
690.933
690.47
694.049
692.632
693.415
697.622
697.943
697.948
697.948
696.884
697.194
697.878
697.938
697.917
697.946
697.778
695.314
696.744
695.448
696.541
696.429
697.401
697.585
697.588
697.188
697.915
697.92
697.736
697.392
697.939
697.94
682.071
680.122
696.413
693.735
691.559
691.369
692.266
696.977
697.571
697.57
697.167
697.58
697.582
697.569
697.568
697.014
695.924
684.887
682.973
697.23
697.861
697.857
697.848
697.946
697.945
607.479
608.174
691.498
690.18
697.713
606.173
606.83
696.319
696.633
697.893
697.936
697.927
573.195
573.621
575.798
595.719
600.768
569.406
571.398
593.399
589.497
622.048
677.212
676.36
682.777
639.076
633.26
681.869
697.948
697.948
697.948
697.901
697.923
697.939
697.944
697.863
697.88
697.948
697.948
697.947
697.233
697.184
697.562
697.778
697.605
697.515
693.718
694.296
692.047
692.389
695.704
694.907
690.57
691.348
682.918
682.978
687.164
686.596
680.893
683.236
683.554
697.645
693.725
694.581
694.616
691.812
695.761
695.304
697.593
697.408
696.6
684.061
682.387
694.131
690.816
686.112
697.947
697.946
697.872
697.844
697.647
697.745
696.565
697.764
697.832
693.236
694.496
697.756
680.206
678.239
696.106
696.455
697.936
697.939
697.888
697.745
697.925
697.93
696.368
679.801
679.096
690.659
691.03
697.57
697.571
697.123
697.086
697.568
697.569
579.984
602.03
638.589
640.771
616.143
618.078
577.867
686.392
685.282
696.014
590.973
588.162
606.928
607.098
585.641
613.714
614.869
586.374
587.508
697.869
697.865
697.249
697.47
697.878
697.874
644.196
686.803
687.673
684.948
685.879
640.879
690.104
695.829
696.234
696.225
696.037
690.685
683.083
688.63
687.879
678.627
677.454
679.815
617.178
619.16
620.475
603.658
686.306
649.331
641.697
656.297
651.289
682.969
665.321
665.832
684.17
686.804
695.556
697.946
697.946
697.939
594.851
596.282
648.255
648.659
561.719
608.392
600.812
600.614
599.081
600.103
610.898
512.748
681.379
683.114
697.948
697.948
697.948
696.94
696.846
697.495
697.15
697.462
697.672
697.366
697.423
693.02
694.882
688.506
689.053
689.11
688.49
694.112
690.129
689.917
671.818
664.781
664.733
665.444
665.494
670.245
697.542
697.769
697.778
697.738
697.761
697.485
695.573
697.216
696.302
695.982
697.194
697.591
697.595
691.527
691.666
693.385
691.815
697.574
697.572
696.948
697.576
697.577
697.16
697.035
697.567
697.567
688.807
690.718
689.954
691.352
691.114
688.621
608.939
610.089
605.294
605.623
636.12
617.779
616.048
666.938
666.78
677.971
669.064
671.132
665.339
666.904
676.22
697.941
697.938
697.944
697.935
697.946
697.948
697.948
697.943
697.945
697.942
668.492
680.786
679.915
683.067
681.892
669.514
673.346
676.737
675.081
679.179
678.262
672.156
697.944
697.947
697.945
697.862
697.793
697.934
697.921
573.413
592.103
577.44
577.377
594.861
594.705
625.405
627.833
606.551
569.685
568.27
602.999
577.845
577.246
577.026
617.185
582.376
574.863
678.471
680.021
686.69
674.829
675.07
674.198
674.257
683.681
676.092
676.84
615.017
597.261
598.074
598.26
597.1
616.681
697.93
697.934
697.916
697.844
697.891
697.923
696.809
697.525
697.114
697.03
697.222
697.297
697.047
697.141
693.535
694.437
689.747
689.923
689.283
689.524
695.822
692.568
692.691
689.843
690.066
694.58
689.905
684.471
683.365
681.299
686.11
685.498
689.205
683.786
683.711
685.411
684.462
688.897
691.354
686.589
687.193
684.421
685.553
690.822
683.591
675.627
684.967
684.118
663.632
664.096
693.088
696.145
695.955
692.671
695.147
696.905
696.449
686.828
685.35
692.524
692.841
695.702
690.031
688.444
697.118
697.369
697.786
697.521
696.806
695.774
696.739
697.797
697.875
697.891
697.796
697.829
697.663
697.463
697.631
697.891
697.827
697.799
697.896
697.843
697.906
697.756
697.764
697.671
697.783
658.481
655.456
675.502
651.85
654.535
646.3
663.477
640.283
638.374
648.602
647.065
688.382
678.527
680.731
674.225
676.285
687.813
694.81
690.905
691.992
681.999
688.314
693.665
676.442
673.022
684.693
660.95
663.008
657.494
659.193
684.078
686.777
670.873
672.424
665.344
667.97
686.297
695.988
696.566
646.149
623.898
627.01
617.187
620.348
646.475
626.479
628.192
627.721
634.513
647.673
600.467
603.343
606.476
601.113
650.025
646.284
611.864
614.386
606.883
609.654
646.25
629.46
628.671
634.951
632.778
619.528
618.46
624.659
624.343
691.036
691.169
697.133
697.572
697.574
697.567
697.567
697.073
581.993
631.161
635.541
598.251
577.999
621.3
625.989
597.324
594.013
665.384
627.814
627.656
660.586
622.238
614.734
627.212
625.713
662.609
604.992
600.95
608.189
611.861
588.583
592.301
600.612
689.919
693.558
693.263
693.992
693.782
690.179
686.247
687.084
687.23
685.653
685.685
686.269
687.285
691.915
691.584
692.852
692.367
687.874
584.789
603.016
605.36
599.285
601.148
584.861
596.414
617.896
622.186
608.652
613.059
591.318
593.68
575.305
576.976
576.206
575.482
585.307
593.564
597.024
581.472
587.583
584.234
689.783
689.282
684.185
677.648
679.305
612.277
615.674
626.151
606.352
601.64
613.995
611.071
629.559
604.684
605.065
665.947
665.955
697.948
697.948
697.948
697.948
697.948
697.948
697.948
697.948
697.948
697.948
697.948
697.948
697.948
697.948
697.948
697.948
697.948
697.948
697.948
697.948
697.948
697.948
697.948
697.948
697.948
697.948
697.948
697.948
697.948
697.948
697.948
697.948
697.948
697.948
697.948
697.948
697.948
697.948
697.948
697.948
697.948
697.948
697.948
697.948
697.948
697.948
697.948
697.948
697.948
697.948
697.948
697.948
697.948
697.948
697.948
697.948
697.948
697.948
697.948
697.948
697.948
697.948
697.948
697.948
697.948
697.948
697.948
697.948
697.948
697.948
697.948
697.948
697.948
697.948
697.948
697.948
697.948
697.948
697.948
697.948
697.948
697.948
697.948
697.948
697.948
697.947
697.947
697.948
697.948
697.948
697.948
697.948
697.948
697.948
697.948
697.948
697.948
697.948
697.948
697.948
697.947
697.947
697.948
697.948
697.948
697.948
697.948
697.948
697.948
697.948
697.948
697.948
697.948
697.948
697.948
697.948
697.948
697.948
697.948
697.948
697.948
697.948
697.948
697.948
697.948
697.948
697.948
697.948
697.948
697.948
697.948
697.948
697.948
697.948
697.948
697.948
697.89
697.886
583.124
692.566
693.011
697.948
697.948
697.948
697.948
697.948
697.948
697.948
697.948
697.948
697.948
697.948
697.948
697.947
650.308
648.746
665.694
697.948
697.948
697.948
697.948
697.948
697.948
697.948
697.948
697.948
697.948
697.948
697.794
673.133
650.799
682.607
697.94
697.948
697.948
697.948
697.948
697.948
697.948
697.948
697.948
697.948
697.948
697.948
697.948
697.948
697.947
697.948
697.948
697.948
697.946
697.946
697.948
697.948
697.948
697.947
697.947
697.948
697.948
697.946
697.946
697.946
697.945
697.948
697.947
697.947
697.948
697.948
697.947
697.948
697.946
697.946
697.948
697.948
697.948
697.948
697.948
697.948
697.948
697.885
697.899
697.948
561.172
640.932
641.771
654.854
654.871
513.782
697.948
697.948
697.948
697.948
697.948
697.948
697.948
697.948
697.947
697.948
697.948
697.948
697.948
697.948
697.948
697.948
697.948
697.948
697.948
697.948
697.948
697.948
697.948
697.948
697.948
697.948
697.948
697.948
697.948
697.948
697.946
697.941
697.948
697.948
697.948
697.948
697.948
697.948
697.948
697.948
697.948
697.948
697.948
697.948
697.948
697.948
697.948
697.948
697.948
697.948
697.948
697.948
697.948
697.948
697.948
697.948
697.801
697.908
697.9
697.94
697.937
697.9
697.817
697.744
697.863
697.948
697.948
697.948
697.948
697.948
697.948
697.948
697.948
697.948
697.948
697.948
697.948
697.948
697.948
697.948
697.948
697.948
697.948
697.947
697.947
697.948
697.323
697.788
697.79
697.799
697.793
697.341
697.948
697.948
697.948
697.948
697.948
697.948
697.948
697.948
697.948
697.948
697.948
697.948
697.948
697.948
697.948
697.948
697.948
697.948
697.947
697.947
697.948
697.525
697.941
697.942
697.818
697.822
697.474
696.212
693.254
693.642
697.948
697.948
697.948
697.948
697.948
697.948
697.948
697.948
697.948
697.602
695.633
696.113
696.772
696.858
697.571
697.948
697.948
697.948
697.948
697.948
697.948
697.948
697.948
697.948
697.867
697.67
697.693
697.468
697.511
697.825
697.915
697.89
697.948
617.094
697.493
697.507
685.316
686.005
585.754
697.771
697.746
629.192
697.948
697.929
697.939
697.937
697.929
697.948
697.933
697.945
697.943
697.948
697.948
697.946
697.948
697.948
697.948
697.945
697.894
697.938
697.948
697.948
697.948
697.944
697.947
697.948
697.905
697.857
697.845
697.947
697.946
697.947
697.948
697.948
697.948
697.948
697.948
697.948
697.945
697.946
697.939
697.427
697.816
697.807
697.889
697.877
697.673
697.948
697.948
697.948
697.103
695.917
696.227
692.78
692.863
695.808
696.427
696.567
697.35
697.947
697.947
697.948
697.676
697.812
697.826
697.897
697.942
697.943
697.835
697.841
697.723
697.948
697.948
697.948
697.423
697.81
697.814
697.792
697.794
697.352
697.948
697.947
697.947
695.869
693.173
693.016
694.748
694.625
696.51
695.674
692.65
692.709
692.89
692.791
695.707
697.945
697.946
697.948
697.679
697.669
697.167
697.948
697.945
697.945
696.629
691.496
690.446
694.943
694.744
696.979
696.659
694.992
694.872
690.1
688.897
696.38
697.473
696.565
696.675
694.058
694.405
696.618
697.947
697.947
697.948
697.638
697.893
697.889
697.911
697.908
697.799
697.207
697.694
697.687
697.886
697.882
697.488
697.948
697.946
697.947
697.475
696.424
696.316
696.924
696.856
697.603
697.148
695.309
695.13
696.2
696.076
697.373
697.786
697.364
697.419
696.254
696.618
697.689
697.83
697.916
697.913
697.946
697.946
697.856
697.948
697.948
697.948
697.786
692.755
691.864
691.751
692.499
697.783
697.664
697.045
696.987
697.896
696.692
696.795
697.948
697.948
697.948
697.948
697.948
697.948
697.948
697.948
697.948
697.948
697.948
697.948
697.948
697.948
697.948
697.948
697.948
697.948
697.948
697.948
697.948
697.76
697.938
697.938
697.937
697.937
697.749
691.911
687.934
688.641
683.126
684.237
689.463
697.948
697.948
697.948
697.948
697.948
697.948
697.903
697.928
697.942
697.948
697.948
697.948
697.948
697.948
697.948
697.948
697.948
697.948
697.657
697.943
697.936
697.942
697.943
697.641
697.948
697.947
697.947
669.054
649.85
647.636
661.114
659.088
675.869
687.441
681.061
682.029
697.948
697.948
697.948
697.895
697.947
697.946
697.946
697.947
697.899
679.289
664.972
663.098
673.257
672.013
683.297
697.92
697.946
697.946
697.946
697.946
697.922
697.948
697.948
697.948
697.948
697.948
697.948
697.948
697.948
697.948
697.948
697.948
697.948
697.948
697.948
697.948
697.948
697.948
697.948
697.948
697.948
697.948
697.948
697.947
697.948
697.948
697.948
697.948
697.945
697.947
697.944
697.948
697.948
697.948
694.802
695.44
697.567
697.686
697.214
697.271
694.665
692.271
692.646
689.29
689.861
693.075
693.617
696.543
696.393
696.796
696.677
693.908
697.835
697.551
697.586
697.768
697.87
697.942
697.904
697.31
697.701
697.393
697.764
697.687
697.944
697.939
697.917
697.948
697.948
697.948
697.922
697.914
697.934
697.942
697.933
697.928
693.779
693.971
696.428
696.157
693.464
693.612
697.242
697.336
697.696
697.585
697.061
697.151
697.619
697.63
697.23
697.943
697.931
697.929
697.936
697.933
697.944
697.94
697.923
697.922
697.927
697.925
697.941
697.214
697.608
697.613
697.904
697.912
697.869
697.948
697.946
697.945
697.947
697.946
697.948
697.946
697.94
697.938
697.943
697.942
697.947
697.782
697.88
697.893
693.931
693.839
696.144
696.278
694.113
694.021
692.514
692.515
695.58
695.602
692.548
692.522
697.584
697.58
696.89
697.939
697.92
697.92
697.919
697.919
697.939
697.94
697.923
697.923
697.921
697.922
697.94
696.889
697.596
697.589
697.939
697.919
697.919
697.921
697.92
697.939
697.938
697.918
697.919
697.918
697.918
697.938
694.057
691.844
696.708
629.524
658.398
660.554
642.639
644.649
608.018
696.915
694.521
694.29
696.288
688.385
686.812
695.788
695.946
697.249
697.037
695.379
695.595
697.75
697.738
697.319
697.941
697.926
697.927
697.924
697.925
697.941
697.942
697.93
697.931
697.928
697.929
697.942
697.428
697.769
697.76
653.067
627.798
625.529
645.006
641.914
663.181
695.648
695.485
697.199
650.866
673.413
674.94
662.321
664.125
635.8
663.782
689.853
690.48
688.449
689.169
661.671
697.333
695.942
695.8
630.583
597.883
595.803
622.863
619.325
646.092
697.237
697.304
697.77
688.959
692.483
692.084
694.669
694.404
691.7
691.629
691.141
686.77
697.712
697.079
697.162
685.206
662.131
657.787
667.139
663.617
685.855
685.211
675.672
674.482
694.951
687.51
689.102
692.991
693.315
695.253
697.948
697.948
697.948
697.948
697.948
697.948
697.893
697.941
697.942
697.941
697.941
697.89
688.303
687.943
624.323
697.737
696.545
696.587
696.523
696.539
697.75
697.829
697.94
697.94
697.939
697.939
697.822
697.948
697.948
697.948
611.075
604.836
562.469
684.619
668.312
663.096
669.48
668.833
684.762
694.993
683.807
682.178
688.949
690.97
695.212
511.258
602.971
625.408
697.948
697.948
697.948
697.948
697.948
697.948
697.948
697.948
697.948
697.948
697.948
697.948
697.948
697.948
697.948
697.948
697.948
697.948
697.922
697.916
697.828
697.947
697.94
697.942
697.936
697.938
697.946
697.839
697.691
697.663
697.787
697.788
697.318
697.938
697.907
697.907
697.908
697.907
697.938
697.939
697.909
697.911
697.907
697.908
697.938
697.327
697.789
697.787
692.813
692.981
696.093
697.617
697.645
697.86
695.871
696.997
696.903
697.155
697.081
696.034
697.467
693.973
691.917
694.113
694.051
697.477
615.707
678.459
678.178
697.948
697.948
697.948
697.948
697.948
697.948
697.948
697.948
697.948
697.872
697.864
697.911
697.948
697.948
697.947
697.948
697.948
697.948
697.948
697.948
697.948
697.948
697.948
697.947
697.948
697.948
697.948
697.942
697.947
697.947
697.839
697.827
697.469
697.941
697.918
697.921
697.913
697.915
697.94
697.944
697.93
697.933
697.924
697.927
697.943
697.615
697.864
697.851
694.945
695.455
696.966
682.45
691.625
690.099
694.13
693.211
687.397
673.401
686.48
686.364
686.807
686.63
673.768
695.867
692.962
693.075
691.504
694.869
694.597
695.231
695.064
691.826
697.404
696.679
696.779
697.733
697.784
697.601
697.906
697.894
697.876
697.871
697.79
697.786
697.797
697.793
697.873
697.938
697.909
697.908
697.91
697.909
697.939
697.365
697.797
697.8
693.495
693.338
695.93
675.412
687.88
688.346
686.871
687.357
673.612
692.56
692.599
695.641
672.394
686.103
686.031
686.274
686.192
672.743
670.391
686.262
686.508
685.993
686.107
670.12
695.682
692.722
692.666
697.865
697.776
697.778
697.773
697.775
697.864
697.807
697.813
697.885
697.129
697.654
697.639
697.864
697.778
697.776
697.783
697.78
697.866
697.861
697.772
697.772
697.77
697.771
697.861
696.321
696.445
697.434
691.305
694.494
694.228
695.009
694.764
691.84
696.717
694.646
694.822
697.9
697.896
697.749
697.943
697.933
697.934
697.932
697.932
697.943
697.944
697.936
697.937
697.935
697.936
697.944
697.788
697.906
697.903
696.616
696.523
697.504
676.253
692.058
692.503
691.052
691.576
675.018
686.495
693.595
693.901
692.9
693.263
685.742
697.581
696.782
696.703
642.535
624.032
622.529
627.435
625.595
644.109
697.152
697.101
697.682
689.116
694.678
694.895
694.184
694.441
688.532
621.003
619.417
637.813
697.948
697.947
697.946
686.583
687.236
691.475
690.06
685.197
685.94
697.947
697.948
697.948
697.948
697.948
697.947
697.945
697.939
697.943
653.582
651.774
670.616
608.089
629.816
631.643
615.574
638.042
640.89
633.497
635.576
612.868
674.66
657.176
655.352
668.128
666.652
680.237
629.561
648.925
650.855
643.864
646.614
626.885
697.946
697.943
697.94
697.946
697.945
697.947
697.936
697.918
697.91
697.937
697.927
697.94
697.648
697.635
697.797
692.819
688.88
689.589
687.663
688.203
692.447
694.099
691.075
691.482
690.203
690.674
693.834
691.403
691.861
694.417
681.392
688.047
687.329
689.219
688.664
682.418
686.544
685.752
676.966
693.465
690.391
690.91
697.645
697.145
697.26
696.827
697.027
697.577
697.88
697.748
697.82
697.41
697.594
697.834
695.849
693.075
693.324
696.928
695.141
696.344
693.67
694.253
696.528
697.903
697.842
697.585
697.94
697.918
697.934
697.861
697.893
697.932
697.928
697.899
697.884
697.941
697.937
697.944
697.879
697.92
697.929
697.9
697.909
697.857
676.445
688.108
687.815
689.088
688.498
676.958
696.539
694.208
694.52
693.199
693.328
696.077
675.013
687.184
687
687.575
687.369
675.305
696.875
696.969
697.543
692.57
695.543
695.388
695.846
695.695
692.798
697.892
697.831
697.823
697.858
697.842
697.896
697.254
697.649
697.682
697.599
697.604
697.21
697.881
697.806
697.802
697.817
697.811
697.883
678.646
689.136
689.304
688.696
688.943
678.334
696.097
693.741
693.631
671.719
685.959
685.929
685.992
685.975
671.855
695.586
692.521
692.535
692.623
692.583
695.61
670.975
685.952
685.964
685.917
685.928
671.058
697.87
697.783
697.786
697.779
697.781
697.869
696.9
697.578
697.575
697.623
697.607
696.926
697.877
697.796
697.802
697.788
697.792
697.875
697.86
697.772
697.771
697.774
697.773
697.861
697.86
697.77
697.77
697.771
697.77
697.86
683.336
664.734
662.476
668.087
666.571
684.269
679.448
655.542
653.958
659.962
657.545
680.387
652.946
655.657
626.231
689.116
676.733
675.315
686.532