/*--------------------------------*- C++ -*----------------------------------*\
| =========                 |                                                 |
| \\      /  F ield         | OpenFOAM: The Open Source CFD Toolbox           |
|  \\    /   O peration     | Version:  5.x                                   |
|   \\  /    A nd           | Web:      www.OpenFOAM.org                      |
|    \\/     M anipulation  |                                                 |
\*---------------------------------------------------------------------------*/
FoamFile
{
    version     2.0;
    format      ascii;
    class       volVectorField;
    location    "200";
    object      U;
}
// * * * * * * * * * * * * * * * * * * * * * * * * * * * * * * * * * * * * * //

dimensions      [0 1 -1 0 0 0 0];

internalField   nonuniform List<vector> 
6584
(
(1.00008 -0.000207204 4.89599e-27)
(1.00006 -0.000454338 2.37565e-25)
(1.00007 -0.000615335 2.1246e-30)
(1.00007 -0.000835695 -4.24046e-25)
(1.00008 -0.0010661 0)
(1.00008 -0.00131911 0)
(1.00007 -0.00156836 0)
(1.00003 -0.0017346 4.3649e-25)
(0.999958 -0.0017529 4.44827e-25)
(0.99984 -0.00146533 0)
(0.999719 -0.000667838 2.05308e-25)
(0.999636 0.000582446 -1.47972e-25)
(0.999658 0.00197858 -1.08372e-26)
(0.999782 0.00306912 2.7637e-26)
(0.999928 0.00357582 9.17702e-27)
(1.00008 0.00350857 8.77358e-25)
(1.00015 0.00311196 7.8687e-25)
(1.00018 0.00259518 6.34371e-26)
(1.00017 0.00206381 5.54981e-25)
(1.00015 0.00158734 4.02273e-25)
(1.00012 0.00119427 0)
(1.00011 0.000849302 0)
(1.00008 0.000607653 6.1582e-25)
(1.0001 0.000271431 3.79002e-25)
(1.00032 -0.000435754 -2.32075e-25)
(1.00027 -0.000915827 -9.06795e-25)
(1.00033 -0.00121534 -1.21257e-24)
(1.00035 -0.00166046 0)
(1.0004 -0.00212475 -1.60002e-25)
(1.00041 -0.00264883 -1.34617e-24)
(1.00036 -0.00319015 -8.19987e-25)
(1.00015 -0.00357843 1.38509e-24)
(0.999849 -0.00368212 -5.53567e-26)
(0.999064 -0.00315371 -3.30312e-25)
(0.998125 -0.00152877 -1.16677e-28)
(0.997527 0.00110699 0)
(0.997677 0.00408956 4.73681e-25)
(0.998539 0.00638423 3.13216e-25)
(0.999673 0.00742624 -1.94127e-24)
(1.00044 0.00722977 -5.14965e-25)
(1.00076 0.00632249 -1.21205e-24)
(1.00087 0.00521119 -1.58087e-24)
(1.00082 0.00410147 -4.11643e-24)
(1.00071 0.00313122 -3.40484e-24)
(1.00058 0.00235057 -2.32264e-25)
(1.0005 0.00166176 -9.89807e-26)
(1.00039 0.00121384 0)
(1.00043 0.000565593 3.29915e-25)
(1.00071 -0.000670485 -5.8678e-25)
(1.00067 -0.00135798 0)
(1.00079 -0.00177233 -2.3549e-25)
(1.00088 -0.00244267 -1.58093e-24)
(1.00101 -0.00315257 -2.38426e-24)
(1.00105 -0.00399564 0)
(1.00097 -0.0049522 0)
(1.0005 -0.00568964 -3.55433e-25)
(0.999609 -0.0064675 -1.18108e-25)
(0.998255 -0.00455068 1.02625e-25)
(0.996697 -0.00255813 -1.81122e-25)
(0.995501 0.000897691 -2.57132e-25)
(0.995648 0.00509404 0)
(0.997201 0.00841375 0)
(0.999192 0.00998073 3.65288e-26)
(1.00113 0.0116697 -2.20021e-24)
(1.00201 0.00975088 0)
(1.00224 0.00784634 -6.92043e-25)
(1.00206 0.00604364 0)
(1.00175 0.00454381 -5.28507e-25)
(1.00143 0.00338693 -1.47391e-24)
(1.00119 0.00237219 -8.91653e-25)
(1.00095 0.00176255 0)
(1.00094 0.000852899 2.57091e-25)
(1.00118 -0.000891245 -3.60662e-25)
(1.0012 -0.00174687 0)
(1.00142 -0.00225253 -3.16597e-25)
(1.00162 -0.00313543 0)
(1.00189 -0.00409422 0)
(1.00208 -0.0053175 0)
(1.00206 -0.0068443 -5.25431e-25)
(1.00142 -0.00832628 4.37652e-24)
(0.99972 -0.0101669 -2.89751e-25)
(0.997112 -0.00820764 3.21718e-25)
(0.993732 -0.00587264 -1.90506e-25)
(0.990368 -0.000325452 4.89177e-26)
(0.990098 0.00767338 4.8516e-26)
(0.993776 0.0139424 0)
(0.998395 0.0159172 -3.24783e-24)
(1.0017 0.0146642 0)
(1.00442 0.0134096 0)
(1.00443 0.0104596 5.22533e-24)
(1.00394 0.00778154 3.46654e-24)
(1.00323 0.00571927 -1.17467e-24)
(1.00259 0.00421626 -8.30013e-25)
(1.00211 0.00291935 0)
(1.00168 0.00219523 3.6887e-25)
(1.00154 0.00109884 3.06384e-25)
(1.00172 -0.00107794 -1.40589e-25)
(1.00182 -0.00204779 -9.43134e-27)
(1.00218 -0.00261054 -4.46446e-26)
(1.00256 -0.00367433 -6.73911e-26)
(1.00308 -0.00484809 1.54151e-25)
(1.00362 -0.00647794 3.47961e-24)
(1.00387 -0.00869651 -5.41336e-24)
(1.00363 -0.0111583 5.06238e-24)
(1.00025 -0.0120729 2.53997e-25)
(0.996816 -0.0134434 1.48209e-24)
(0.990204 -0.0120002 -2.13399e-25)
(0.981141 -0.00380026 2.70844e-25)
(0.979342 0.0116186 -2.19662e-26)
(0.988655 0.0230914 4.58774e-24)
(0.99869 0.0246255 0)
(1.00442 0.0209178 3.20763e-24)
(1.00631 0.0158849 -7.39115e-25)
(1.00755 0.0122457 -4.35192e-24)
(1.00645 0.00905783 -2.4975e-24)
(1.0051 0.00646629 9.40245e-25)
(1.00401 0.00473019 -6.3149e-26)
(1.00318 0.00322858 -3.77412e-26)
(1.00252 0.00245588 4.22697e-25)
(1.00219 0.00127131 -1.63696e-25)
(1.00227 -0.00121079 7.01755e-26)
(1.00251 -0.00222549 -1.84772e-25)
(1.00302 -0.00279337 -1.11481e-26)
(1.00367 -0.00396879 0)
(1.00452 -0.00524285 -7.26722e-25)
(1.00562 -0.00721174 -2.91729e-25)
(1.00645 -0.0096262 -2.15175e-24)
(1.00531 -0.012224 -5.34381e-25)
(1.00331 -0.0161374 2.18356e-24)
(0.999508 -0.0212223 8.38517e-24)
(0.987017 -0.0214706 1.7853e-24)
(0.969676 -0.0133191 2.70971e-28)
(0.961706 0.0147897 -7.28446e-26)
(0.981859 0.0362028 7.13323e-25)
(1.00271 0.0377552 -7.20838e-24)
(1.01044 0.0281735 0)
(1.01151 0.0200153 4.13179e-28)
(1.01162 0.0132497 9.25463e-25)
(1.0095 0.00962319 2.56861e-25)
(1.00726 0.00662208 1.01944e-24)
(1.0056 0.00481643 -3.97756e-25)
(1.00432 0.00323032 0)
(1.0034 0.00249453 -2.20444e-25)
(1.00282 0.00134064 -3.17838e-25)
(1.00281 -0.00127362 9.36877e-28)
(1.0032 -0.0022537 -8.54054e-26)
(1.00389 -0.00276086 1.08531e-25)
(1.00483 -0.00394858 5.74526e-27)
(1.00609 -0.0051543 1.3396e-26)
(1.00789 -0.00729572 -1.16751e-24)
(1.00963 -0.00968289 -1.60645e-24)
(1.00916 -0.013366 -7.55019e-26)
(1.00953 -0.0194926 -3.28037e-25)
(1.00778 -0.0292851 1.25246e-24)
(0.99298 -0.0394533 0)
(0.954592 -0.0418865 1.17503e-24)
(0.909844 0.0211312 4.36819e-26)
(0.978786 0.0741987 3.19308e-24)
(1.01193 0.0527231 -3.21977e-26)
(1.02168 0.0340364 0)
(1.01918 0.0219675 2.18044e-24)
(1.01648 0.0126307 3.56153e-25)
(1.01283 0.00908766 2.95737e-25)
(1.00952 0.00600626 -8.19528e-26)
(1.00719 0.00437718 -8.54358e-25)
(1.00541 0.00287403 0)
(1.00421 0.00227627 -2.04787e-25)
(1.00336 0.00128397 -2.01996e-25)
(1.00327 -0.00125801 -8.83176e-26)
(1.00383 -0.00212431 7.71892e-26)
(1.00467 -0.00250106 4.08687e-26)
(1.00592 -0.00358064 3.21888e-26)
(1.00758 -0.0045148 -4.14869e-26)
(1.01008 -0.0065026 5.4884e-25)
(1.01294 -0.00832793 1.32296e-28)
(1.01398 -0.0125134 -2.11011e-25)
(1.01796 -0.0193193 2.10992e-28)
(1.02271 -0.0315136 -3.05647e-24)
(1.01836 -0.0540605 -9.86925e-26)
(0.994609 -0.10819 3.78936e-26)
(1.02068 0.131005 5.62609e-25)
(1.04098 0.0642351 -5.50377e-25)
(1.03802 0.0338201 1.16594e-24)
(1.02866 0.020036 -2.20928e-25)
(1.0213 0.00983407 7.2307e-25)
(1.01595 0.00719289 7.30924e-25)
(1.01155 0.00452465 5.39447e-25)
(1.00857 0.00337282 -2.79919e-25)
(1.00632 0.00214995 0)
(1.00487 0.00179426 0)
(1.00374 0.00109159 -2.07286e-30)
(1.00364 -0.00116705 -1.69297e-26)
(1.00434 -0.0018544 -3.55168e-27)
(1.00529 -0.00204408 -1.41756e-26)
(1.00676 -0.00290041 6.3836e-26)
(1.00873 -0.00338266 7.25314e-26)
(1.01174 -0.00486191 4.01162e-25)
(1.0155 -0.00561233 1.11108e-24)
(1.01843 -0.00924914 0)
(1.02593 -0.0140781 0)
(1.03803 -0.022483 0)
(1.05233 -0.0423433 -1.05758e-25)
(1.08446 -0.0872414 1.42439e-26)
(1.12338 0.11048 0)
(1.07851 0.0483831 0)
(1.05364 0.023202 0)
(1.03723 0.0131173 2.39838e-25)
(1.02488 0.00499849 0)
(1.01814 0.00401977 -8.07084e-25)
(1.01298 0.00228544 -5.11371e-25)
(1.0095 0.00187297 -4.79439e-26)
(1.00688 0.00111244 0)
(1.00526 0.00108078 1.20638e-26)
(1.00389 0.000771528 2.21603e-26)
(1.00387 -0.00101612 3.58156e-27)
(1.00467 -0.00148742 -5.17785e-27)
(1.00566 -0.00146562 5.83419e-27)
(1.00725 -0.00202798 3.01105e-26)
(1.00934 -0.00197888 -7.53902e-26)
(1.01248 -0.00273125 -5.74229e-27)
(1.01658 -0.00224253 -1.0726e-25)
(1.0209 -0.00435113 -7.04202e-27)
(1.02984 -0.00536116 0)
(1.04468 -0.00618462 -2.69818e-25)
(1.06807 -0.0112825 1.10242e-30)
(1.11568 -0.0178236 -3.54977e-26)
(1.16719 0.0249597 -8.87418e-26)
(1.09836 0.011004 -3.23564e-25)
(1.06075 0.0049263 -2.48069e-24)
(1.04156 0.00264014 0)
(1.02614 -0.00084837 -1.64228e-24)
(1.01886 9.35644e-05 0)
(1.01348 -0.000376266 -1.49642e-26)
(1.0098 7.02337e-05 0)
(1.00701 -0.000116351 -1.41946e-26)
(1.00532 0.000208412 1.49231e-27)
(1.00378 0.000351317 -1.92355e-26)
(1.00397 -0.000830009 0)
(1.00482 -0.00108374 -3.05289e-26)
(1.00578 -0.000867425 -3.28001e-26)
(1.00733 -0.00113203 1.48626e-26)
(1.00934 -0.000606219 1.03257e-27)
(1.01222 -0.000640904 6.70381e-26)
(1.01602 0.000841809 3.4135e-25)
(1.02069 0.000577693 1.65277e-25)
(1.0285 0.00321518 0)
(1.0405 0.0090517 1.32358e-24)
(1.06071 0.0179708 3.98634e-25)
(1.09438 0.0408366 -1.66059e-26)
(1.1449 -0.0537508 -4.16127e-26)
(1.09181 -0.0264292 5.40561e-25)
(1.05688 -0.0135229 9.99e-26)
(1.04025 -0.00807377 1.43342e-24)
(1.02483 -0.00632334 7.15273e-24)
(1.01797 -0.00380225 3.98029e-24)
(1.01297 -0.00300074 -2.68231e-24)
(1.0094 -0.00177586 -1.88437e-24)
(1.00666 -0.00137453 9.18597e-26)
(1.00502 -0.000724442 3.92956e-26)
(1.00341 -0.000127356 -9.77604e-26)
(1.00396 -0.000636561 3.13494e-27)
(1.0048 -0.000704304 3.97091e-27)
(1.00567 -0.000345757 6.84454e-27)
(1.00708 -0.000369745 1.61841e-26)
(1.00885 0.000473936 -3.85808e-34)
(1.01122 0.000955553 1.54558e-25)
(1.01426 0.00293752 5.36811e-25)
(1.0183 0.00411564 1.92305e-25)
(1.02341 0.0087673 0)
(1.02963 0.0175774 -3.67772e-25)
(1.04026 0.0330625 -8.73393e-26)
(1.0525 0.0653949 -1.51478e-26)
(1.08949 -0.0942311 -7.29596e-27)
(1.0677 -0.0484744 0)
(1.04541 -0.0259888 -2.30554e-24)
(1.03446 -0.0160436 1.84263e-24)
(1.02152 -0.0103743 1.0369e-23)
(1.01582 -0.00697136 6.76361e-24)
(1.0116 -0.00518884 0)
(1.00842 -0.0034175 -1.68256e-24)
(1.00589 -0.00251226 -9.67149e-25)
(1.0044 -0.0016173 6.62713e-26)
(1.0028 -0.000618568 -8.63239e-26)
(1.00387 -0.000459895 0)
(1.00465 -0.00039463 5.02688e-27)
(1.00541 3.66702e-05 -6.20359e-27)
(1.00662 0.000163322 -1.72747e-26)
(1.00808 0.00113116 0)
(1.00987 0.0018456 -5.7576e-26)
(1.01206 0.00383726 8.14219e-26)
(1.01493 0.00566619 -3.20622e-26)
(1.01726 0.0104198 -5.2519e-26)
(1.01805 0.0183132 1.96077e-25)
(1.01876 0.0324415 3.8381e-26)
(1.01134 0.0588511 0)
(1.03287 -0.0934052 -3.78051e-27)
(1.04002 -0.0522653 1.02401e-25)
(1.03193 -0.0303891 1.1163e-24)
(1.02673 -0.0199671 1.24304e-25)
(1.01726 -0.012617 4.64882e-24)
(1.01299 -0.0090421 4.8105e-24)
(1.00968 -0.00671549 0)
(1.00702 -0.0046891 -2.24871e-26)
(1.00482 -0.00342193 3.71797e-25)
(1.00353 -0.0023938 2.11878e-25)
(1.00202 -0.00108144 7.41263e-27)
(1.00373 -0.000316201 0)
(1.00444 -0.000177727 0)
(1.00507 0.00025967 0)
(1.00609 0.000446326 0)
(1.00725 0.00137126 -1.61236e-26)
(1.00856 0.00208713 -1.64565e-26)
(1.01005 0.00367571 -1.62789e-25)
(1.01117 0.0059253 2.74858e-24)
(1.01232 0.00908509 0)
(1.01002 0.013892 0)
(1.00561 0.0214088 5.98287e-25)
(0.988923 0.0289158 2.04408e-24)
(0.584622 -0.024159 -7.26163e-26)
(0.997779 -0.0570807 -3.87808e-24)
(1.01996 -0.04313 -6.98167e-25)
(1.02092 -0.0284803 -5.04013e-27)
(1.01938 -0.0203238 -2.80363e-26)
(1.01304 -0.0132753 -1.44238e-24)
(1.01008 -0.0100112 1.81528e-25)
(1.00756 -0.00755622 3.0308e-27)
(1.00542 -0.00553064 -1.77381e-24)
(1.00357 -0.00406184 0)
(1.00249 -0.00300922 7.91718e-26)
(1.00113 -0.00148677 -1.78814e-25)
(1.00359 -0.000212661 0)
(1.00421 -5.53744e-05 -2.64858e-26)
(1.00475 0.000338122 2.75009e-27)
(1.00559 0.000514451 0)
(1.00654 0.00129556 0)
(1.00752 0.00185577 -1.01741e-24)
(1.00856 0.00303409 1.57165e-25)
(1.00932 0.00433606 3.45824e-24)
(1.00938 0.00646946 3.90612e-24)
(1.0069 0.00838351 2.16664e-24)
(1.00245 0.0100808 0)
(0.994773 0.00453967 -1.89977e-25)
(0.798124 -0.0188062 3.83785e-25)
(0.995249 -0.032473 -3.55035e-25)
(1.01024 -0.0285938 3.60189e-25)
(1.01409 -0.0236103 -3.70526e-25)
(1.01175 -0.0165465 6.34626e-25)
(1.00949 -0.0127826 -1.14129e-25)
(1.00743 -0.0100808 -1.53193e-27)
(1.0055 -0.00781859 -4.44441e-27)
(1.00382 -0.00597791 0)
(1.00227 -0.00444162 -7.94766e-25)
(1.0014 -0.00345061 -9.17449e-25)
(1.00019 -0.00182114 -2.4291e-25)
(1.00346 -0.000149169 1.07865e-27)
(1.00401 -1.50182e-05 -2.99533e-26)
(1.00447 0.000305411 4.18488e-26)
(1.0052 0.000427572 6.12006e-30)
(1.006 0.00102321 -1.74084e-25)
(1.00681 0.00137033 -7.40342e-25)
(1.00767 0.002107 -1.83801e-24)
(1.00825 0.00279014 -2.40995e-24)
(1.00818 0.00383121 -8.84385e-25)
(1.00664 0.00399735 -1.22148e-25)
(1.00422 0.00262892 0)
(1.00109 -0.00193572 -2.97204e-26)
(0.827117 -0.0150792 -6.67808e-25)
(1.00182 -0.0179937 -1.66266e-25)
(1.00834 -0.0206858 -1.14775e-25)
(1.01053 -0.0188205 -1.88633e-25)
(1.00879 -0.0144084 -3.01358e-24)
(1.00683 -0.0118462 0)
(1.00526 -0.00964425 -4.17053e-25)
(1.00368 -0.00769416 -1.06808e-25)
(1.00232 -0.00610675 -3.60834e-26)
(1.00101 -0.00460123 1.19051e-25)
(1.0003 -0.00372548 0)
(0.999249 -0.00207676 0)
(1.00338 -0.000120973 -1.02865e-27)
(1.00386 -3.74455e-05 5.05762e-28)
(1.00427 0.000198855 2.73766e-26)
(1.00492 0.000247564 0)
(1.00566 0.000652256 -9.11778e-26)
(1.00641 0.00080503 0)
(1.00728 0.00111696 -1.63895e-24)
(1.00796 0.0014389 6.37603e-25)
(1.00855 0.000907299 -3.79914e-26)
(1.00755 0.0013396 -6.46907e-26)
(1.00737 -0.000226949 3.045e-25)
(0.993015 -0.00412844 -3.37259e-25)
(0.866088 -0.0124707 -8.86102e-25)
(1.00399 -0.0135583 6.84764e-26)
(1.00834 -0.0153067 3.05823e-25)
(1.00876 -0.0150216 9.98145e-26)
(1.00663 -0.0123926 -1.45207e-24)
(1.00489 -0.0106036 1.60922e-24)
(1.00352 -0.00892909 0)
(1.00213 -0.00732042 6.0872e-25)
(1.00099 -0.00601382 -4.11761e-26)
(0.999858 -0.00459814 1.4915e-25)
(0.999258 -0.00386472 0)
(0.99835 -0.0022614 0)
(1.00333 -0.000121207 7.44263e-27)
(1.00376 -0.00010244 1.87812e-27)
(1.00416 5.15547e-05 -1.79319e-26)
(1.00477 2.62626e-05 1.74211e-26)
(1.0055 0.000258903 0)
(1.00627 0.00026468 0)
(1.00724 0.000284427 -5.46133e-25)
(1.00817 0.000278528 -8.37807e-26)
(1.00915 -0.000267404 1.06565e-25)
(1.00926 -0.00164738 -3.8872e-25)
(1.00975 -0.00147534 0)
(0.990644 -0.00321039 -4.4277e-25)
(0.878014 -0.0133919 -2.78875e-24)
(1.00604 -0.00947187 4.56462e-25)
(1.0081 -0.01076 1.15547e-24)
(1.00726 -0.0112686 2.01599e-24)
(1.00538 -0.0104856 1.34577e-24)
(1.00356 -0.00926889 1.35783e-24)
(1.00218 -0.00810779 -2.03761e-25)
(1.00088 -0.00680672 -1.27647e-25)
(0.999844 -0.00577755 -2.94752e-25)
(0.998831 -0.00448191 -1.06105e-24)
(0.998305 -0.0038964 1.97638e-26)
(0.997516 -0.00238307 -4.40683e-26)
(1.00334 -0.000142724 4.24875e-27)
(1.00373 -0.000192385 2.69573e-27)
(1.00412 -0.000111477 -2.00748e-26)
(1.00472 -0.000200839 -9.29789e-27)
(1.00548 -0.00011101 0)
(1.00629 -0.000200411 0)
(1.0074 -0.000382693 8.88613e-25)
(1.0085 -0.000482469 2.29959e-25)
(1.01007 -0.00140998 -2.5789e-25)
(1.0099 -0.00121921 -3.54913e-25)
(1.01381 -0.00597293 0)
(0.951582 0.00117411 -7.73666e-25)
(0.927315 -0.0135866 -2.75836e-26)
(1.00971 -0.00643829 2.24967e-25)
(1.00779 -0.0100373 8.58299e-26)
(1.00723 -0.00921678 -5.32426e-25)
(1.0047 -0.00901901 -4.10132e-25)
(1.00268 -0.00810157 2.27612e-25)
(1.00118 -0.00731818 -6.20788e-26)
(0.999886 -0.00624789 -1.0275e-24)
(0.998885 -0.005467 -3.24369e-25)
(0.997943 -0.00429732 -1.3803e-24)
(0.997454 -0.00385014 0)
(0.996762 -0.00245347 -1.95306e-25)
(1.00338 -0.000179177 -4.62289e-27)
(1.00375 -0.000293832 -3.04768e-27)
(1.00416 -0.000274205 0)
(1.00475 -0.000413357 -1.76098e-27)
(1.00556 -0.000440486 0)
(1.00642 -0.000572703 -3.89962e-25)
(1.00768 -0.000931287 -1.37978e-25)
(1.00886 -0.000929681 5.41927e-26)
(1.01088 -0.00232024 -1.94807e-25)
(1.01086 -0.00124016 -2.18853e-25)
(1.01391 -0.00647025 -4.94261e-26)
(0.953431 -0.000124701 -2.18056e-24)
(0.929129 -0.0109218 8.92866e-25)
(1.00926 -0.00479927 -2.16951e-25)
(1.00806 -0.00899186 -7.17132e-26)
(1.00725 -0.00747609 -1.07016e-27)
(1.00422 -0.00790785 -2.10491e-25)
(1.00207 -0.0070709 -2.60461e-25)
(1.00043 -0.00660366 -5.74253e-25)
(0.999102 -0.00569464 -1.39206e-25)
(0.998089 -0.00512886 -8.37952e-26)
(0.997186 -0.00407719 -4.48799e-25)
(0.996708 -0.0037524 -1.93825e-25)
(0.99609 -0.00248381 -8.71041e-26)
(1.00347 -0.00022547 0)
(1.00381 -0.000397374 -1.16154e-26)
(1.00424 -0.000427533 -1.92244e-26)
(1.00485 -0.000600657 6.0506e-27)
(1.0057 -0.000725521 1.43418e-25)
(1.00661 -0.000854945 -5.71371e-25)
(1.008 -0.0013786 0)
(1.00927 -0.00120192 -1.80786e-25)
(1.01151 -0.00293278 0)
(1.01186 -0.00135076 0)
(1.01437 -0.00645525 4.00782e-28)
(0.954848 -0.000730886 8.09731e-27)
(0.930663 -0.00928846 3.99792e-25)
(1.00931 -0.00382149 -1.33223e-25)
(1.00852 -0.00799115 -1.91184e-26)
(1.00724 -0.00613084 -1.23269e-26)
(1.00392 -0.00702758 4.41484e-26)
(1.00164 -0.00616233 -1.15556e-25)
(0.999849 -0.00597572 -1.5369e-25)
(0.998482 -0.00517026 2.58027e-25)
(0.997432 -0.00479054 -8.41844e-26)
(0.996547 -0.00384346 0)
(0.996063 -0.0036235 3.48254e-30)
(0.9955 -0.0024838 0)
(1.00358 -0.000277734 0)
(1.00392 -0.000496868 -2.11116e-26)
(1.00437 -0.000566906 -1.33808e-26)
(1.00498 -0.0007586 2.7937e-26)
(1.0059 -0.000966707 0)
(1.00684 -0.00106053 4.91577e-26)
(1.00835 -0.00172968 -5.42639e-25)
(1.0097 -0.00136798 -3.98738e-25)
(1.01205 -0.00331223 -5.67076e-26)
(1.01274 -0.00142427 -2.66051e-28)
(1.01484 -0.00627108 2.7487e-25)
(0.955623 -0.00107802 -2.67526e-25)
(0.931552 -0.00811112 5.03933e-25)
(1.00945 -0.00316785 -7.79395e-26)
(1.00894 -0.00716305 9.85327e-26)
(1.00725 -0.00510743 -2.64954e-27)
(1.00374 -0.00631498 -8.73138e-26)
(1.00133 -0.00538189 7.91839e-26)
(0.999407 -0.00543582 1.93799e-25)
(0.997994 -0.0046882 -3.74837e-30)
(0.996891 -0.00446886 -4.01371e-26)
(0.99601 -0.00361046 -2.81565e-25)
(0.995508 -0.00347838 1.45434e-25)
(0.994985 -0.00246156 1.34377e-25)
(1.00372 -0.000333164 -1.53018e-26)
(1.00405 -0.000588746 -2.845e-26)
(1.00453 -0.00069073 -7.1757e-34)
(1.00516 -0.000887498 7.10575e-26)
(1.00612 -0.00116693 1.949e-25)
(1.0071 -0.00120598 3.39096e-26)
(1.00868 -0.00199669 -5.46293e-25)
(1.01013 -0.00146733 -3.73423e-25)
(1.01251 -0.00353738 2.1128e-25)
(1.01347 -0.0014838 0)
(1.0152 -0.00603141 5.54868e-26)
(0.956092 -0.00128934 -1.00323e-25)
(0.932102 -0.00722055 1.49763e-25)
(1.00951 -0.00269819 -6.20143e-26)
(1.00929 -0.00646293 -5.53628e-31)
(1.00728 -0.00431753 -1.56084e-25)
(1.00366 -0.00572964 -7.10631e-26)
(1.0011 -0.00472291 -1.56097e-26)
(0.999071 -0.00497645 1.03353e-25)
(0.997606 -0.00425522 -1.51481e-25)
(0.996447 -0.00417301 -2.37589e-25)
(0.995562 -0.00338736 -1.18597e-25)
(0.995034 -0.00332799 -1.25033e-25)
(0.994538 -0.00242363 1.17038e-25)
(1.00388 -0.000389728 -2.28687e-34)
(1.00421 -0.00067137 -1.69203e-26)
(1.00471 -0.000799059 1.96974e-26)
(1.00535 -0.000990244 4.04937e-26)
(1.00635 -0.00133047 2.82735e-29)
(1.00737 -0.0013065 0)
(1.009 -0.0021945 -2.68069e-26)
(1.01054 -0.00152634 -3.56686e-25)
(1.0129 -0.00365633 1.79178e-25)
(1.01411 -0.00153364 0)
(1.01549 -0.00577049 -1.51729e-30)
(0.956396 -0.00141227 7.53371e-26)
(0.932466 -0.00653782 -1.57137e-25)
(1.00952 -0.00235886 0)
(1.00959 -0.0058687 2.58356e-27)
(1.0073 -0.0037053 4.09269e-26)
(1.00362 -0.00524294 0)
(1.00093 -0.0041718 3.59845e-26)
(0.998814 -0.00458709 3.3147e-26)
(0.997296 -0.00387291 -3.8518e-25)
(0.996081 -0.00390671 -9.90631e-26)
(0.995186 -0.00317958 1.00149e-25)
(0.99463 -0.00317956 -1.26254e-25)
(0.994151 -0.00237527 0)
(1.00405 -0.000445998 1.92424e-26)
(1.00438 -0.000744307 -1.87832e-26)
(1.0049 -0.000892849 0)
(1.00555 -0.00107081 1.98972e-26)
(1.00659 -0.0014621 7.19329e-26)
(1.00764 -0.00137468 1.43512e-26)
(1.0093 -0.00233653 0)
(1.01092 -0.00156142 9.13183e-28)
(1.01325 -0.00370221 1.63963e-25)
(1.01466 -0.00157678 0)
(1.01573 -0.00551224 3.9928e-26)
(0.956584 -0.00147828 2.85881e-26)
(0.932697 -0.00600222 -1.07377e-25)
(1.00949 -0.00211373 1.1264e-26)
(1.00984 -0.00536638 -3.99554e-26)
(1.00733 -0.00323157 -1.77287e-28)
(1.00362 -0.00483472 2.41812e-26)
(1.0008 -0.00371486 -9.66337e-27)
(0.998617 -0.00425743 1.67648e-27)
(0.997046 -0.00354004 -1.37893e-25)
(0.995779 -0.00367076 5.35588e-26)
(0.994869 -0.00299007 6.00689e-26)
(0.994285 -0.00303807 -1.8175e-26)
(0.993816 -0.00232061 -7.62107e-27)
(1.00422 -0.000500875 -2.01573e-27)
(1.00457 -0.00080789 -2.64926e-26)
(1.0051 -0.000973341 -5.75212e-27)
(1.00576 -0.0011333 0)
(1.00682 -0.00156649 4.18236e-25)
(1.00791 -0.00142048 0)
(1.00958 -0.00243444 -2.48063e-25)
(1.01128 -0.00158322 0)
(1.01356 -0.00369901 1.37854e-25)
(1.01515 -0.00161629 9.28818e-26)
(1.0159 -0.00526627 0)
(0.956681 -0.00151427 2.25697e-26)
(0.932842 -0.00557953 0)
(1.0094 -0.00194005 9.14567e-27)
(1.01005 -0.00493885 -1.09084e-26)
(1.00736 -0.00286601 0)
(1.00363 -0.00448986 0)
(1.0007 -0.00333971 -7.92339e-27)
(0.998466 -0.00397855 1.17586e-26)
(0.996841 -0.0032543 0)
(0.995528 -0.00346404 0)
(0.994602 -0.00282021 4.77821e-26)
(0.99399 -0.00290646 8.56234e-27)
(0.993524 -0.00226297 -3.89149e-26)
(1.00441 -0.00055346 2.03743e-27)
(1.00476 -0.000862788 1.9691e-27)
(1.0053 -0.00104187 0)
(1.00598 -0.00118159 -6.12049e-27)
(1.00705 -0.00164796 2.15708e-25)
(1.00817 -0.00145147 4.99351e-27)
(1.00984 -0.00249813 -2.16443e-25)
(1.01162 -0.00159888 -1.55636e-27)
(1.01385 -0.0036646 0)
(1.01559 -0.00165209 8.97628e-26)
(1.01601 -0.00503945 0)
(0.956706 -0.00154376 0)
(0.932954 -0.00524314 0)
(1.00927 -0.00181481 4.71268e-26)
(1.01023 -0.00457119 8.50371e-26)
(1.00739 -0.00258581 0)
(1.00366 -0.00419703 -1.19979e-27)
(1.00062 -0.00303546 0)
(0.998347 -0.00374278 0)
(0.99667 -0.00301239 0)
(0.995319 -0.0032846 0)
(0.994373 -0.00267082 -4.10047e-26)
(0.993736 -0.0027865 -3.16278e-26)
(0.993267 -0.00220535 4.64773e-31)
(1.00459 -0.000602944 0)
(1.00495 -0.000909773 1.03641e-26)
(1.0055 -0.00109963 -2.04793e-26)
(1.00619 -0.0012189 2.26e-26)
(1.00728 -0.00171028 2.05787e-25)
(1.00843 -0.00147323 4.21652e-25)
(1.01009 -0.00253591 0)
(1.01193 -0.00161347 0)
(1.01411 -0.00361241 1.30202e-26)
(1.01598 -0.00168872 4.66742e-27)
(1.01608 -0.00483747 -2.52628e-33)
(0.956693 -0.00157017 8.88753e-27)
(0.933016 -0.00496613 1.29604e-25)
(1.00911 -0.0017255 3.75553e-26)
(1.01039 -0.00426194 3.62726e-27)
(1.00741 -0.00237345 0)
(1.00369 -0.00394859 -5.61992e-26)
(1.00055 -0.00279105 -8.08318e-26)
(0.998254 -0.00354357 0)
(0.996525 -0.00281005 -7.73654e-26)
(0.995142 -0.00313029 -6.73763e-41)
(0.994174 -0.00254126 1.00948e-25)
(0.993515 -0.00267928 5.76635e-26)
(0.99304 -0.00214977 4.81936e-26)
(1.00477 -0.000648519 -2.24309e-26)
(1.00514 -0.000949485 8.65191e-27)
(1.0057 -0.00114752 -1.08227e-26)
(1.00641 -0.00124786 4.44145e-26)
(1.00749 -0.00175664 1.86496e-25)
(1.00868 -0.00148988 8.06913e-25)
(1.01032 -0.00255439 0)
(1.01223 -0.00162955 0)
(1.01435 -0.00355085 1.16855e-26)
(1.01634 -0.00172891 0)
(1.01612 -0.00465932 0)
(0.95666 -0.0015973 0)
(0.933045 -0.00473997 0)
(1.00892 -0.00166799 -2.90919e-26)
(1.01051 -0.00400188 -5.34171e-26)
(1.00744 -0.00221573 -5.03475e-26)
(1.00373 -0.0037384 -9.07593e-26)
(1.00049 -0.00259803 -6.71373e-26)
(0.998179 -0.0033759 0)
(0.9964 -0.0026437 -1.89571e-26)
(0.994991 -0.00299903 0)
(0.993999 -0.00243105 0)
(0.993321 -0.00258527 2.59322e-26)
(0.992836 -0.00209807 1.71653e-26)
(1.00495 -0.000689352 -1.87918e-26)
(1.00533 -0.000982429 -1.22991e-26)
(1.00589 -0.00118619 -3.90684e-27)
(1.00662 -0.00127041 3.26285e-27)
(1.0077 -0.00178958 -5.23574e-34)
(1.00892 -0.00150441 3.84721e-25)
(1.01054 -0.00255875 0)
(1.0125 -0.00164864 -2.40915e-26)
(1.01458 -0.00348567 4.73639e-27)
(1.01668 -0.00177449 -1.96721e-27)
(1.01614 -0.00450409 5.45016e-26)
(0.956617 -0.00162826 3.32346e-27)
(0.933049 -0.00455853 4.18816e-26)
(1.00868 -0.00163892 0)
(1.01062 -0.00378373 0)
(1.00746 -0.00210312 3.27902e-28)
(1.00376 -0.00356159 3.67379e-26)
(1.00044 -0.00244934 2.34481e-31)
(0.998119 -0.00323588 -3.19162e-26)
(0.99629 -0.00251011 0)
(0.994861 -0.00288885 0)
(0.993843 -0.00233969 1.13442e-26)
(0.993148 -0.00250471 0)
(0.992651 -0.00205184 0)
(1.00512 -0.000724553 0)
(1.00552 -0.00100875 -1.95356e-26)
(1.00608 -0.00121597 -1.36015e-26)
(1.00683 -0.0012878 -2.24298e-26)
(1.00791 -0.00181122 0)
(1.00915 -0.00151864 0)
(1.01075 -0.00255265 0)
(1.01277 -0.00167212 -2.47151e-26)
(1.0148 -0.00342141 0)
(1.01701 -0.00182716 -2.94678e-27)
(1.01614 -0.0043715 2.12821e-26)
(0.95657 -0.00166593 -7.51367e-28)
(0.933038 -0.00441692 3.2277e-26)
(1.00841 -0.00163583 2.92232e-26)
(1.01072 -0.00360247 3.24395e-26)
(1.00749 -0.00202882 0)
(1.0038 -0.00341428 -2.90765e-26)
(1.00039 -0.00233921 -3.61404e-26)
(0.998068 -0.00312037 0)
(0.996192 -0.00240629 0)
(0.994746 -0.00279815 0)
(0.993702 -0.00226664 1.05779e-26)
(0.992992 -0.00243767 0)
(0.992479 -0.00201249 0)
(1.00529 -0.000753019 9.26857e-28)
(1.0057 -0.00102837 -1.5874e-26)
(1.00627 -0.0012368 3.1671e-27)
(1.00704 -0.00130088 0)
(1.00811 -0.00182294 2.27545e-26)
(1.00939 -0.00153255 1.52599e-27)
(1.01095 -0.00253864 0)
(1.01303 -0.00170036 -1.17402e-26)
(1.01502 -0.00336071 2.80526e-27)
(1.01732 -0.00188799 -2.60135e-27)
(1.01612 -0.00426173 -2.0575e-27)
(0.956524 -0.00171278 -3.73652e-27)
(0.933019 -0.00431141 4.70565e-26)
(1.00811 -0.00165756 7.86832e-28)
(1.0108 -0.00345477 -6.95766e-28)
(1.00751 -0.00198783 2.1162e-26)
(1.00383 -0.0032935 3.53727e-28)
(1.00035 -0.00226282 -2.4068e-27)
(0.998025 -0.00302671 0)
(0.996101 -0.00232964 -2.24894e-26)
(0.994644 -0.00272553 -1.85367e-26)
(0.99357 -0.00221142 0)
(0.992849 -0.00238429 2.24396e-26)
(0.992317 -0.00198132 2.66713e-27)
(1.00545 -0.000773389 0)
(1.00588 -0.00104084 -1.00192e-26)
(1.00645 -0.00124839 -4.12823e-27)
(1.00724 -0.00131034 -9.19155e-28)
(1.0083 -0.00182538 0)
(1.00962 -0.00154662 1.73301e-25)
(1.01115 -0.00251881 -4.36484e-26)
(1.01328 -0.00173314 -1.79834e-26)
(1.01524 -0.00330545 -1.15729e-27)
(1.01763 -0.00195782 4.81221e-27)
(1.01608 -0.00417649 6.79393e-27)
(0.956484 -0.00177232 -1.51229e-26)
(0.932999 -0.0042406 1.50277e-26)
(1.00778 -0.00170399 6.47095e-28)
(1.01086 -0.00333791 -1.62899e-26)
(1.00752 -0.001976 -1.38092e-26)
(1.00386 -0.00319654 8.60092e-28)
(1.00031 -0.00221615 -2.45525e-27)
(0.997987 -0.00295285 0)
(0.996016 -0.00227803 -1.47742e-26)
(0.994551 -0.00267 -1.42714e-26)
(0.993447 -0.00217374 0)
(0.992717 -0.00234481 7.89462e-27)
(0.992163 -0.00195968 -1.1483e-26)
(1.00561 -0.000783984 -7.83325e-27)
(1.00607 -0.00104554 9.00867e-27)
(1.00663 -0.00125026 -1.99572e-26)
(1.00745 -0.0013158 -6.72687e-28)
(1.0085 -0.0018189 1.55105e-26)
(1.00985 -0.00156089 1.81557e-25)
(1.01135 -0.00249437 -1.8828e-26)
(1.01355 -0.00176975 -5.87539e-27)
(1.01546 -0.00325639 5.97006e-28)
(1.01795 -0.00203413 9.97722e-27)
(1.01603 -0.00411656 -2.08117e-27)
(0.956452 -0.00184875 1.23544e-26)
(0.932981 -0.00420122 -7.18209e-27)
(1.00741 -0.0017759 0)
(1.01092 -0.00325259 -8.40482e-27)
(1.00753 -0.00199026 -7.23732e-27)
(1.00388 -0.00312118 5.05288e-28)
(1.00027 -0.0021955 0)
(0.997953 -0.00289661 1.32355e-27)
(0.995933 -0.00224923 1.92355e-27)
(0.994464 -0.00263026 -1.02722e-26)
(0.993327 -0.00215317 -1.25132e-26)
(0.99259 -0.00231928 5.22468e-27)
(0.99201 -0.00194884 0)
(1.00575 -0.000780903 -5.34004e-27)
(1.00623 -0.0010407 7.68864e-27)
(1.00679 -0.00124016 -6.97562e-27)
(1.00765 -0.00131667 0)
(1.00867 -0.00180232 0)
(1.01007 -0.00157475 -3.8879e-26)
(1.01152 -0.00246421 1.86612e-26)
(1.01378 -0.00180793 4.24118e-27)
(1.01566 -0.00321298 4.18115e-27)
(1.01825 -0.00211882 -2.3004e-27)
(1.01598 -0.00409863 -8.9561e-27)
(0.956429 -0.00195403 0)
(0.932973 -0.00420348 0)
(1.00704 -0.00187624 0)
(1.01096 -0.00319112 0)
(1.00753 -0.00202425 -7.52269e-28)
(1.00391 -0.0030641 0)
(1.00023 -0.00219849 0)
(0.997926 -0.0028569 1.23373e-27)
(0.995859 -0.00224317 0)
(0.994393 -0.00260649 0)
(0.993221 -0.00215098 0)
(0.992481 -0.00230919 4.74437e-27)
(0.991874 -0.00195164 0)
(1.00595 -0.000764986 0)
(1.0065 -0.0010286 -6.52575e-28)
(1.00701 -0.0012205 -2.11577e-27)
(1.00796 -0.00131504 -2.02969e-28)
(1.00891 -0.00177865 3.71302e-27)
(1.01042 -0.00158982 -7.38978e-26)
(1.01177 -0.00243226 3.32749e-27)
(1.01418 -0.00184925 3.78966e-30)
(1.01597 -0.00317662 2.59022e-33)
(1.01875 -0.00217262 -5.04226e-31)
(1.01596 -0.00409075 -1.16286e-26)
(0.956391 -0.00209378 0)
(0.932963 -0.00419656 -2.29571e-27)
(1.00646 -0.00200612 -2.05443e-26)
(1.01097 -0.00319592 1.38912e-26)
(1.00749 -0.00207967 1.38761e-27)
(1.00394 -0.00302268 0)
(1.00015 -0.00221783 0)
(0.997901 -0.0028276 0)
(0.995743 -0.00225292 0)
(0.9943 -0.00259312 0)
(0.993062 -0.00216226 0)
(0.99233 -0.00231051 3.11045e-27)
(0.991669 -0.00196658 0)
(1.07633 -0.09448 1.94317e-26)
(1.11866 0.129911 7.08268e-26)
(1.01167 0.146333 3.10299e-25)
(1.11499 -0.0269609 -3.49977e-26)
(1.17449 0.038053 -1.13419e-26)
(1.13003 0.120379 -5.82482e-26)
(1.0988 0.0354221 -1.53363e-26)
(1.15502 -0.0582983 -1.53269e-25)
(1.17601 0.0249074 -4.52246e-26)
(1.05808 0.06396 -7.72772e-26)
(1.09785 -0.100359 2.1514e-25)
(1.14903 -0.0664904 0)
(1.01576 0.0611637 7.00017e-30)
(1.03481 -0.103134 -1.46682e-25)
(1.08965 -0.102949 1.41318e-25)
(0.990043 0.0331976 0)
(0.688158 0.0154325 -9.57472e-26)
(0.562644 -0.0282568 1.48349e-25)
(0.992263 -0.0683186 8.1835e-25)
(1.02765 -0.100628 -2.20259e-25)
(0.983162 -0.102076 1.88323e-25)
(0.909344 0.000829643 4.37317e-26)
(0.996915 0.138469 4.46632e-25)
(0.959665 0.0659641 1.01872e-24)
(1.04483 -0.0479385 -1.27092e-25)
(1.07166 -0.0846731 5.54715e-27)
(1.00313 -0.0972181 -2.45962e-25)
(1.07337 0.240597 0)
(0.946082 0.225174 -2.48499e-25)
(1.1131 0.118708 0)
(1.07574 0.0671128 1.16839e-26)
(1.03967 0.0759072 -1.37669e-24)
(1.06647 -0.0196803 1.28213e-25)
(1.10771 -0.0250662 -3.27376e-26)
(1.07908 -0.0782906 6.46481e-27)
(1.10303 -0.0628337 -6.0782e-27)
(1.13617 -0.0774164 5.52937e-27)
(1.11095 -0.119022 -7.30587e-27)
(1.17813 0.100076 7.95452e-26)
(1.15534 0.171409 3.00769e-26)
(1.16537 0.0364916 5.10775e-27)
(1.10644 0.0265266 -3.89419e-25)
(1.08615 0.0591982 1.48369e-25)
(1.06428 0.0117158 2.63422e-25)
(1.09456 0.0311083 1.34542e-26)
(1.10852 -0.0167253 -1.88284e-28)
(1.11239 0.00800999 2.15218e-30)
(1.13952 0.0208423 -3.32481e-26)
(1.15049 -0.0220769 -4.91825e-28)
(1.16533 -0.0218066 2.21566e-27)
(1.18724 0.0462467 -4.02696e-26)
(1.15063 -0.0457479 -1.71029e-25)
(1.10423 -0.0210344 5.28854e-26)