/*--------------------------------*- C++ -*----------------------------------*\
| =========                 |                                                 |
| \\      /  F ield         | OpenFOAM: The Open Source CFD Toolbox           |
|  \\    /   O peration     | Version:  5.x                                   |
|   \\  /    A nd           | Web:      www.OpenFOAM.org                      |
|    \\/     M anipulation  |                                                 |
\*---------------------------------------------------------------------------*/
FoamFile
{
    version     2.0;
    format      ascii;
    class       volScalarField;
    location    "200";
    object      xf;
}
// * * * * * * * * * * * * * * * * * * * * * * * * * * * * * * * * * * * * * //

dimensions      [0 0 0 0 0 0 0];

internalField   nonuniform List<scalar> 
6584
(
0.106537
0.106537
0.106537
0.106537
0.106538
0.106538
0.106538
0.106538
0.106538
0.106538
0.106538
0.106538
0.106538
0.106538
0.106538
0.106538
0.106538
0.106538
0.106538
0.106538
0.106537
0.106537
0.106537
0.106537
0.106421
0.106421
0.106421
0.106421
0.106421
0.106422
0.106422
0.106422
0.106422
0.106422
0.106422
0.106422
0.106422
0.106422
0.106422
0.106422
0.106422
0.106422
0.106422
0.106422
0.106421
0.106421
0.106421
0.106421
0.106305
0.106305
0.106305
0.106305
0.106305
0.106305
0.106306
0.106306
0.106307
0.106364
0.106364
0.106364
0.106364
0.106364
0.106364
0.106307
0.106306
0.106306
0.106306
0.106305
0.106305
0.106305
0.106305
0.106305
0.106189
0.106189
0.106189
0.106189
0.106189
0.106189
0.10619
0.10619
0.106191
0.106249
0.106248
0.106248
0.106248
0.106248
0.106248
0.106249
0.10619
0.10619
0.10619
0.106189
0.106189
0.106189
0.106189
0.106189
0.106073
0.106073
0.106073
0.106073
0.106073
0.106073
0.106074
0.106074
0.106132
0.106132
0.106132
0.106131
0.106131
0.106131
0.106132
0.106132
0.106132
0.106075
0.106074
0.106074
0.106073
0.106073
0.106073
0.106073
0.105957
0.105957
0.105957
0.105957
0.105957
0.105958
0.105958
0.106016
0.106015
0.106015
0.106044
0.106042
0.106041
0.106043
0.106015
0.106016
0.106017
0.10596
0.105959
0.105958
0.105958
0.105957
0.105957
0.105957
0.105841
0.105841
0.105841
0.105841
0.105842
0.105842
0.105843
0.1059
0.1059
0.105899
0.105924
0.105936
0.105934
0.105922
0.105928
0.105901
0.105902
0.105845
0.105844
0.105843
0.105842
0.105842
0.105841
0.105841
0.105725
0.105725
0.105725
0.105726
0.105726
0.105727
0.105728
0.105785
0.105785
0.105785
0.105808
0.105812
0.105816
0.105813
0.105788
0.105788
0.105731
0.105729
0.105728
0.105727
0.105726
0.105726
0.105725
0.105609
0.105609
0.10561
0.10561
0.105611
0.105612
0.105614
0.105671
0.105671
0.105672
0.105695
0.1057
0.105703
0.105701
0.105676
0.105675
0.105618
0.105614
0.105613
0.105612
0.105611
0.10561
0.10561
0.105493
0.105494
0.105494
0.105495
0.105496
0.105497
0.1055
0.105556
0.105558
0.105561
0.105585
0.105593
0.105599
0.105594
0.105566
0.105563
0.105505
0.1055
0.105498
0.105496
0.105495
0.105494
0.105494
0.105378
0.105378
0.105379
0.10538
0.105381
0.105382
0.105385
0.105442
0.105445
0.10545
0.105476
0.105487
0.105497
0.105487
0.105456
0.105451
0.105391
0.105386
0.105383
0.105381
0.10538
0.105379
0.105378
0.105262
0.105262
0.105263
0.105264
0.105266
0.105268
0.105271
0.105328
0.105332
0.105337
0.105365
0.105378
0.10539
0.105378
0.105345
0.105339
0.105278
0.105272
0.105269
0.105266
0.105264
0.105263
0.105262
0.105146
0.105147
0.105148
0.105149
0.105151
0.105153
0.105157
0.105214
0.105218
0.105224
0.105252
0.105263
0.105277
0.105266
0.105233
0.105226
0.105164
0.105158
0.105154
0.105151
0.105149
0.105148
0.105147
0.105031
0.105031
0.105032
0.105034
0.105035
0.105038
0.105042
0.105043
0.105103
0.105108
0.105134
0.10514
0.0542815
0.105141
0.105151
0.10512
0.105112
0.10505
0.105043
0.105039
0.105035
0.105033
0.105032
0.105031
0.104915
0.104916
0.104917
0.104918
0.10492
0.104923
0.104926
0.104927
0.104986
0.104991
0.105017
0.105004
0.0885255
0.10502
0.105004
0.105004
0.104937
0.104934
0.104927
0.104923
0.10492
0.104918
0.104916
0.104914
0.104799
0.1048
0.104801
0.104803
0.104805
0.104807
0.10481
0.104811
0.10487
0.104876
0.104872
0.104884
0.0889648
0.104873
0.104887
0.104889
0.104822
0.104819
0.104812
0.104807
0.104804
0.104801
0.1048
0.104798
0.104683
0.104684
0.104685
0.104687
0.104689
0.104692
0.104695
0.104696
0.104699
0.104761
0.104756
0.104565
0.0961212
0.104754
0.10477
0.104773
0.104706
0.104703
0.104696
0.104691
0.104688
0.104685
0.104683
0.104682
0.104568
0.104569
0.10457
0.104572
0.104574
0.104576
0.104579
0.104581
0.104584
0.104585
0.104639
0.104324
0.0960725
0.104634
0.104598
0.104595
0.10459
0.104587
0.10458
0.104575
0.104571
0.104569
0.104567
0.104565
0.104452
0.104453
0.104454
0.104456
0.104458
0.10446
0.104464
0.104465
0.104469
0.104469
0.104436
0.0961152
0.100141
0.104463
0.104481
0.104479
0.104474
0.104471
0.104464
0.104459
0.104455
0.104452
0.10445
0.104448
0.104336
0.104337
0.104339
0.10434
0.104343
0.104345
0.104349
0.10435
0.104353
0.104354
0.104299
0.0960172
0.10003
0.104344
0.104365
0.104363
0.104357
0.104355
0.104347
0.104342
0.104339
0.104336
0.104334
0.104332
0.10422
0.104221
0.104223
0.104225
0.104227
0.104229
0.104234
0.104235
0.104238
0.104238
0.104163
0.0959169
0.0999177
0.104224
0.104248
0.104246
0.104241
0.104239
0.104231
0.104226
0.104222
0.104219
0.104217
0.104215
0.104105
0.104106
0.104107
0.104109
0.104112
0.104114
0.104118
0.10412
0.104123
0.104122
0.104029
0.095815
0.0998034
0.104104
0.104132
0.10413
0.104125
0.104123
0.104115
0.10411
0.104106
0.104102
0.1041
0.104098
0.103989
0.10399
0.103991
0.103994
0.103996
0.103999
0.104003
0.104005
0.104008
0.104007
0.103896
0.0957118
0.0996877
0.103983
0.104015
0.104014
0.104009
0.104007
0.103999
0.103993
0.103989
0.103986
0.103984
0.103981
0.103873
0.103874
0.103876
0.103878
0.103881
0.103883
0.103888
0.10389
0.103893
0.103891
0.103765
0.0956077
0.0995708
0.103863
0.103898
0.103898
0.103893
0.103891
0.103882
0.103877
0.103873
0.103869
0.103867
0.103865
0.103757
0.103759
0.10376
0.103762
0.103765
0.103768
0.103773
0.103775
0.103778
0.103775
0.103635
0.0955028
0.099453
0.103742
0.103782
0.103782
0.103776
0.103774
0.103766
0.10376
0.103756
0.103752
0.10375
0.103748
0.103642
0.103643
0.103645
0.103647
0.10365
0.103653
0.103658
0.10366
0.103663
0.10366
0.103504
0.0953974
0.0993354
0.103622
0.103666
0.103666
0.10366
0.103658
0.10365
0.103644
0.103639
0.103636
0.103634
0.103631
0.103526
0.103527
0.103529
0.103531
0.103534
0.103538
0.103543
0.103545
0.103548
0.103544
0.103372
0.0952922
0.0992195
0.103503
0.103549
0.10355
0.103544
0.103542
0.103534
0.103528
0.103523
0.103519
0.103517
0.103514
0.10341
0.103412
0.103413
0.103416
0.103419
0.103422
0.103428
0.10343
0.103433
0.103428
0.103241
0.0951866
0.099103
0.103384
0.103433
0.103434
0.103428
0.103426
0.103418
0.103411
0.103407
0.103403
0.1034
0.103398
0.103294
0.103296
0.103298
0.1033
0.103304
0.103307
0.103313
0.103315
0.103319
0.103313
0.10311
0.0950806
0.098986
0.103265
0.103317
0.103318
0.103312
0.103311
0.103302
0.103295
0.10329
0.103286
0.103284
0.103281
0.103179
0.10318
0.103182
0.103185
0.103188
0.103192
0.103198
0.1032
0.103204
0.103197
0.10298
0.0949744
0.0988687
0.103145
0.103201
0.103202
0.103196
0.103195
0.103185
0.103179
0.103174
0.10317
0.103167
0.103165
0.103063
0.103065
0.103066
0.103069
0.103073
0.103077
0.103083
0.103085
0.103089
0.103081
0.102851
0.0948679
0.0987512
0.103026
0.103084
0.103086
0.10308
0.103079
0.103069
0.103063
0.103057
0.103053
0.103051
0.103048
0.102947
0.102949
0.102951
0.102954
0.102957
0.102962
0.102968
0.10297
0.102974
0.102966
0.102722
0.0947613
0.0986334
0.102907
0.102968
0.10297
0.102964
0.102963
0.102953
0.102946
0.102941
0.102937
0.102934
0.102932
0.102832
0.102833
0.102835
0.102838
0.102842
0.102846
0.102853
0.102855
0.102859
0.10285
0.102594
0.0946546
0.0985156
0.102788
0.102852
0.102854
0.102848
0.102847
0.102837
0.10283
0.102825
0.10282
0.102818
0.102815
0.102716
0.102718
0.10272
0.102723
0.102726
0.102731
0.102738
0.10274
0.102744
0.102734
0.102466
0.0945478
0.0983977
0.102668
0.102735
0.102738
0.102732
0.102731
0.102721
0.102714
0.102708
0.102704
0.102701
0.102698
0.1026
0.102602
0.102604
0.102607
0.102611
0.102616
0.102623
0.102626
0.10263
0.102618
0.102338
0.094441
0.0982799
0.102549
0.102619
0.102622
0.102616
0.102615
0.102605
0.102597
0.102592
0.102587
0.102584
0.102582
0.102485
0.102486
0.102489
0.102492
0.102496
0.102501
0.102508
0.102511
0.102515
0.102502
0.102209
0.0943341
0.0981621
0.10243
0.102503
0.102506
0.1025
0.102499
0.102488
0.102481
0.102475
0.102471
0.102468
0.102465
0.105713
0.105715
0.105813
0.105607
0.105611
0.105702
0.105501
0.105509
0.105599
0.105392
0.105404
0.105496
0.105278
0.105291
0.10539
0.105155
0.042947
0.0531416
0.105171
0.105277
0.105827
0.105934
0.105828
0.105936
0.105723
0.105715
0.105815
0.105754
0.105809
0.105716
0.105727
0.10581
0.105612
0.105607
0.105701
0.105659
0.105621
0.105691
0.10554
0.105679
0.105612
0.105619
0.105699
0.105503
0.105501
0.105594
0.105554
0.105431
0.105493
0.104234
0.104935
0.10551
0.105514
0.105593
0.105393
0.105392
0.105488
0.105447
0.105356
0.105385
0.104746
0.104342
0.105404
0.105406
0.105487
0.104773
0.104976
0.105291
0.105296
0.105379
0.104661
0.104728
0.105034
0.0587005
0.04321
0.0767392
0.105039
0.105154
0.105699
0.105752
0.105755
0.10575
0.105686
0.105811
0.105757
0.105685
0.105751
0.105755
0.105749
0.105696
0.105506
0.105608
0.105646
0.105526
0.105227
0.105671
0.105542
0.104978
0.105532
0.10565
0.105585
0.105405
0.10569
0.105591
0.105663
0.105389
0.105424
0.105541
0.10509
0.105154
0.105212
0.105089
0.104342
0.104185
0.105548
0.105283
0.105255
0.105399
0.105291
0.10556
0.105051
0.105117
0.10516
0.105038
0.104973
0.104784
0.105444
0.105247
0.105287
0.105248
0.105243
0.105457
0.105152
0.105147
0.105124
0.105151
0.104735
0.104772
0.105282
0.105236
0.105348
0.105113
0.104949
0.105144
0.105118
0.104471
0.104651
0.105769
0.105759
0.105813
0.105768
0.105804
0.10528
0.105278
0.105378
0.105335
0.105283
0.105318
0.101933
0.101126
0.105172
0.105182
0.105268
0.105807
0.105772
0.105812
0.105757
0.105769
0.105323
0.105352
0.105433
0.0710024
0.0756857
0.0922938
0.0952928
0.0758738
0.0819048
0.100977
0.0997049
0.105334
0.105228
0.105165
0.0956629
0.0975443
0.105155
0.10508
0.105232
0.105875
0.105869
0.105819
0.105818
0.105869
0.105875
0.105764
0.105777
0.105766
0.105806
0.105771
0.105785
0.105598
0.105623
0.104614
0.104654
0.104635
0.104562
0.10477
0.0997673
0.104981
0.102592
0.102028
0.102132
0.102656
0.104701
0.105372
0.105727
0.104692
0.105609
0.104498
0.105718
0.10564
0.10577
0.105779
0.105761
0.105472
0.105718
0.105723
0.105365
0.105346
0.105629
0.10562
0.10522
0.105252
0.105449
0.105626
0.105646
0.1056
0.105619
0.105444
0.105649
0.10568
0.1057
0.105653
0.105673
0.105638
0.105119
0.105122
0.105129
0.10512
0.103637
0.103712
0.105215
0.105523
0.105542
0.105497
0.105516
0.105206
0.105353
0.105574
0.105593
0.105548
0.105567
0.105346
0.0717846
0.105084
0.0788001
0.0737962
0.0850202
0.0790623
0.105093
0.104984
0.0745463
0.104997
0.104927
0.104911
0.105239
0.105472
0.105491
0.105446
0.105465
0.105247
0.0880227
0.0916592
0.10514
0.0902288
0.0854115
0.0943365
0.0907619
0.105143
0.08248
0.0874747
0.104754
0.101173
0.102032
0.099906
0.101011
0.104759
0.0994136
0.0970636
0.0976881
0.0545382
0.0977589
0.0968058
0.0697382
0.102567
0.102643
0.105796
0.105165
0.105158
0.105263
0.105219
0.105191
0.105234
0.0749144
0.103961
0.104167
0.105798
0.105236
0.105278
0.105321
0.0642706
0.0653443
0.0336987
0.0963965
0.0960826
0.0666867
0.0689409
0.102089
0.102544
0.0363571
0.105838
0.10584
0.105812
0.105809
0.105839
0.105837
0.105654
0.105675
0.105654
0.105555
0.105571
0.105655
0.105453
0.105567
0.105547
0.105593
0.105573
0.105462
0.104409
0.104821
0.104681
0.104318
0.0966764
0.0956021
0.104691
0.102712
0.103099
0.1047
0.104642
0.0575321
0.105787
0.105776
0.105809
0.105699
0.105635
0.105589
0.105728
0.105735
0.105756
0.105707
0.105728
0.10572
0.105547
0.10562
0.1056
0.105647
0.105627
0.105562
0.105455
0.103004
0.104503
0.101798
0.102075
0.105275
0.104651
0.104816
0.105579
0.105083
0.105356
0.105512
0.105626
0.105633
0.105577
0.105589
0.105422
0.10554
0.10552
0.105408
0.105106
0.100945
0.100142
0.105172
0.101405
0.101721
0.100019
0.100214
0.105094
0.104054
0.103955
0.105254
0.105509
0.105518
0.105465
0.105484
0.105238
0.10538
0.105562
0.105573
0.105521
0.105531
0.105316
0.104952
0.102439
0.102797
0.102226
0.101903
0.104849
0.105304
0.10542
0.105439
0.105393
0.105413
0.105301
0.105153
0.0970995
0.0947349
0.0998992
0.0991799
0.105152
0.075889
0.076976
0.105135
0.100691
0.100123
0.0745568
0.0755828
0.098028
0.0969555
0.105783
0.105796
0.105788
0.0958123
0.101629
0.0965473
0.0970425
0.0968954
0.101525
0.105792
0.105786
0.105801
0.105779
0.105787
0.0712836
0.0729812
0.06576
0.0646146
0.0937205
0.0704056
0.0696443
0.0728077
0.0706306
0.0941027
0.0772593
0.0784712
0.10048
0.100261
0.096604
0.0764085
0.0740587
0.0691102
0.0702237
0.10575
0.105761
0.105774
0.105743
0.105757
0.105744
0.105561
0.105649
0.104453
0.104781
0.104683
0.104332
0.100048
0.102745
0.102495
0.10301
0.102827
0.0999921
0.101948
0.101775
0.102426
0.102075
0.102395
0.098604
0.0992569
0.0974717
0.0982852
0.102311
0.0950179
0.0955236
0.10513
0.105696
0.105652
0.105741
0.10571
0.105245
0.105428
0.105348
0.105622
0.105462
0.105736
0.105763
0.105748
0.105725
0.105696
0.105693
0.105646
0.105704
0.105666
0.105719
0.105738
0.105677
0.105712
0.105735
0.105721
0.105699
0.102467
0.102769
0.105429
0.100447
0.0992217
0.103313
0.100664
0.0973943
0.0961367
0.0988417
0.0979651
0.105293
0.102174
0.10239
0.104524
0.104234
0.10531
0.104761
0.103919
0.103629
0.104183
0.103992
0.10559
0.104856
0.104968
0.105119
0.105337
0.105609
0.105621
0.105482
0.105428
0.105592
0.105604
0.101123
0.101079
0.105111
0.0932579
0.0932943
0.0883552
0.0926513
0.0929079
0.0943482
0.0931793
0.0929155
0.10095
0.101303
0.105159
0.0940136
0.092557
0.0958587
0.0944354
0.0896038
0.0881655
0.0919627
0.0903868
0.105101
0.100396
0.100809
0.103835
0.103891
0.105497
0.105506
0.105244
0.105221
0.105487
0.105494
0.105547
0.105558
0.105374
0.105323
0.105534
0.105544
0.0735603
0.0759136
0.100535
0.101213
0.0996465
0.100289
0.074064
0.0826402
0.102099
0.100567
0.101391
0.101929
0.0813372
0.0967305
0.0970615
0.0952257
0.0966008
0.0769945
0.0987902
0.0994778
0.0972656
0.0984084
0.0772552
0.102224
0.102368
0.104947
0.101208
0.101627
0.101691
0.101183
0.101677
0.104856
0.101772
0.102045
0.0894341
0.0647153
0.0657403
0.0689071
0.0649881
0.0899605
0.0659955
0.0842052
0.0661192
0.0850558
0.100465
0.103231
0.10307
0.103427
0.103285
0.100554
0.0989581
0.0991309
0.0775312
0.0787607
0.0711959
0.0740685
0.0987514
0.098277
0.105831
0.105839
0.105926
0.105217
0.105118
0.105013
0.105821
0.105822
0.105804
0.1058
0.105821
0.10582
0.105874
0.105871
0.10582
0.105702
0.105681
0.105664
0.105546
0.105387
0.105361
0.104285
0.104897
0.105487
0.105468
0.105372
0.103427
0.103291
0.104332
0.102865
0.103011
0.104977
0.105723
0.10573
0.105709
0.105538
0.105595
0.105697
0.105742
0.105727
0.105739
0.105661
0.105307
0.105514
0.105013
0.105333
0.105304
0.105514
0.105503
0.105508
0.105411
0.105642
0.105649
0.105607
0.105403
0.105514
0.105494
0.101444
0.101116
0.105137
0.10432
0.103651
0.103557
0.104134
0.105275
0.105431
0.105435
0.105393
0.105494
0.105499
0.105438
0.105442
0.105299
0.10496
0.101989
0.101625
0.10522
0.105454
0.10546
0.105265
0.105365
0.105385
0.0610052
0.0607755
0.101273
0.100858
0.105131
0.0614997
0.0612471
0.103131
0.103194
0.104609
0.105772
0.105772
0.0704627
0.0689529
0.0697784
0.075358
0.0760862
0.0673644
0.0681231
0.0726042
0.0717741
0.0810731
0.098734
0.0985269
0.0998864
0.0782567
0.0767965
0.0968586
0.105843
0.105841
0.105811
0.105757
0.10576
0.105764
0.105769
0.105729
0.105735
0.105779
0.105793
0.105785
0.105515
0.105501
0.105579
0.105636
0.1056
0.105578
0.104547
0.104694
0.103513
0.103577
0.104675
0.104471
0.103118
0.103329
0.10028
0.100304
0.101085
0.100978
0.0997701
0.100393
0.100488
0.104979
0.103085
0.103293
0.105282
0.104909
0.105414
0.10535
0.105691
0.10566
0.105547
0.103895
0.10368
0.105192
0.104759
0.104166
0.105775
0.105767
0.105749
0.10575
0.10572
0.105737
0.105551
0.105706
0.105721
0.105005
0.105192
0.105654
0.10338
0.103114
0.105188
0.105283
0.105673
0.105681
0.105668
0.105612
0.105657
0.105665
0.105133
0.101097
0.101111
0.10361
0.103773
0.105469
0.105473
0.10536
0.105338
0.105461
0.105465
0.0726146
0.0784402
0.0880559
0.0885149
0.0828749
0.0832114
0.0731319
0.102217
0.102049
0.104972
0.0777858
0.0769855
0.082636
0.0825413
0.0753901
0.0825584
0.0827053
0.0765088
0.0767371
0.105444
0.105449
0.105217
0.105246
0.105433
0.105438
0.0878227
0.101315
0.101556
0.100813
0.10106
0.0869848
0.101555
0.103278
0.103465
0.103373
0.103329
0.10169
0.100135
0.101395
0.101233
0.0991062
0.0988109
0.0994537
0.0612954
0.0632412
0.0633196
0.0626097
0.0983294
0.0813236
0.0790356
0.0831649
0.0818621
0.0965237
0.093497
0.0937788
0.0994347
0.100011
0.102768
0.105794
0.105798
0.105789
0.0640954
0.0643895
0.0760941
0.0749736
0.0338665
0.0680139
0.0651502
0.0653279
0.0640849
0.0646731
0.0686505
0.0359227
0.0975634
0.098668
0.105825
0.105822
0.105803
0.105437
0.105413
0.10555
0.105532
0.105591
0.105636
0.105564
0.105579
0.104353
0.104859
0.102277
0.102421
0.102374
0.10225
0.104322
0.103173
0.103072
0.0964429
0.0945205
0.0944182
0.0949125
0.0948125
0.0961415
0.105621
0.105665
0.10567
0.105652
0.10566
0.105607
0.105048
0.10547
0.105271
0.105197
0.105417
0.105512
0.105517
0.103741
0.103729
0.104243
0.104031
0.105425
0.105428
0.105264
0.105486
0.10549
0.105387
0.105308
0.105446
0.105449
0.102177
0.102786
0.102593
0.102887
0.102859
0.102077
0.0606009
0.0606068
0.0621353
0.061763
0.0749338
0.0672713
0.0670506
0.0945512
0.0946023
0.0976974
0.0952688
0.0957277
0.0944847
0.0947976
0.0973154
0.10578
0.105777
0.105778
0.10578
0.105792
0.105794
0.105799
0.105784
0.105788
0.105788
0.0964093
0.0990279
0.0988685
0.0994952
0.09925
0.0965812
0.0975814
0.0982935
0.0979859
0.0987451
0.0985847
0.097281
0.10579
0.105792
0.105787
0.105762
0.105748
0.105781
0.105775
0.0703527
0.0746088
0.070467
0.0707153
0.0653969
0.0650035
0.0773808
0.0779335
0.0700104
0.0670627
0.0668573
0.0764826
0.0680432
0.0674936
0.0681705
0.0798667
0.070048
0.0682425
0.0988689
0.0991655
0.100675
0.098031
0.098121
0.0978291
0.0978746
0.100056
0.0984422
0.0985663
0.06929
0.0629241
0.0634797
0.0625688
0.0625427
0.0696091
0.105755
0.105759
0.105755
0.105733
0.10574
0.10575
0.105431
0.105568
0.105483
0.105461
0.105527
0.105546
0.105483
0.105506
0.104498
0.104736
0.102761
0.102862
0.102531
0.102646
0.104685
0.103592
0.10359
0.102999
0.103001
0.104387
0.102905
0.100582
0.100367
0.0998741
0.100894
0.100784
0.101867
0.100628
0.100602
0.100977
0.100774
0.10182
0.10234
0.101174
0.101285
0.100735
0.100963
0.102218
0.100526
0.0977369
0.0998909
0.099715
0.0948851
0.0951143
0.105081
0.105474
0.105444
0.10502
0.105348
0.105587
0.10552
0.104239
0.104054
0.104948
0.104993
0.105376
0.104659
0.104448
0.105638
0.105676
0.105738
0.105704
0.105587
0.105445
0.105582
0.105683
0.105699
0.105705
0.105677
0.105686
0.105655
0.105621
0.105653
0.105725
0.105713
0.105704
0.105732
0.105718
0.105731
0.105686
0.105695
0.105675
0.105694
0.100162
0.0996594
0.102562
0.0992878
0.0997282
0.0985415
0.100878
0.0969066
0.0964866
0.0985214
0.0982598
0.104378
0.103113
0.103414
0.102552
0.102817
0.104293
0.105241
0.104732
0.104876
0.103581
0.104393
0.105086
0.102876
0.102463
0.103844
0.100702
0.100993
0.100217
0.100458
0.10376
0.104133
0.102134
0.102329
0.101328
0.101708
0.104065
0.105156
0.105312
0.0934347
0.0879136
0.0888188
0.0859823
0.0868928
0.0934008
0.0894469
0.0892629
0.0893424
0.0911399
0.0930899
0.0812446
0.0819947
0.0826492
0.0813787
0.0935673
0.0930781
0.0844316
0.0851626
0.0829908
0.0837862
0.0929932
0.0936853
0.0932648
0.0955577
0.0949463
0.0889312
0.0883748
0.0914708
0.0910775
0.103671
0.103832
0.105367
0.105477
0.105482
0.105453
0.105457
0.10533
0.0733179
0.0862848
0.0873517
0.0776511
0.07303
0.0839091
0.0850204
0.0796781
0.0786912
0.0968276
0.0872765
0.0873176
0.0959407
0.0863169
0.0845614
0.0872943
0.0870519
0.0963746
0.0819048
0.0807492
0.0814786
0.0822498
0.0762586
0.0777924
0.0797084
0.102298
0.103391
0.103331
0.103458
0.103425
0.102332
0.101339
0.101522
0.101504
0.101122
0.101077
0.101299
0.101741
0.102981
0.102916
0.103225
0.103095
0.101846
0.0649446
0.0717327
0.0721506
0.0712275
0.0714707
0.0653301
0.0674423
0.0753916
0.0765615
0.0729091
0.0740635
0.0659793
0.0658727
0.0658372
0.0660133
0.0668086
0.0662361
0.0666478
0.0701055
0.0708536
0.0670132
0.0685742
0.0668079
0.10164
0.101536
0.100348
0.0989309
0.0993285
0.0610937
0.0621179
0.072333
0.0646584
0.0632976
0.0667052
0.06602
0.0733503
0.0627087
0.0625205
0.094015
0.0941708
0.106073
0.106073
0.106131
0.106072
0.106071
0.106131
0.106071
0.106071
0.106131
0.106072
0.106073
0.106132
0.105956
0.105955
0.106014
0.105954
0.105953
0.106043
0.105951
0.10595
0.106041
0.105949
0.105951
0.106042
0.105953
0.105955
0.106044
0.105957
0.105958
0.106016
0.105842
0.105839
0.105926
0.105836
0.10583
0.105922
0.105889
0.105888
0.105935
0.105884
0.105885
0.105933
0.105892
0.105894
0.105923
0.105841
0.105844
0.105901
0.105728
0.105725
0.10581
0.105779
0.105778
0.105807
0.105798
0.105796
0.105811
0.105772
0.105778
0.105821
0.105729
0.105733
0.105788
0.105617
0.105614
0.105697
0.105667
0.105667
0.105695
0.105686
0.105686
0.105699
0.105664
0.105669
0.105709
0.10562
0.105624
0.105678
0.105505
0.105504
0.105586
0.105558
0.105559
0.105586
0.10558
0.10558
0.105593
0.105561
0.105564
0.105603
0.105513
0.105515
0.105569
0.105394
0.105393
0.105476
0.105448
0.10545
0.105477
0.105474
0.105474
0.105488
0.105458
0.105458
0.105498
0.105405
0.105406
0.10546
0.105281
0.10528
0.105365
0.105364
0.105364
0.105378
0.105349
0.105349
0.10539
0.105294
0.105295
0.10535
0.105167
0.105165
0.105252
0.105232
0.105236
0.105265
0.10518
0.105182
0.105239
0.105049
0.105045
0.105104
0.105046
0.105039
0.105128
0.105094
0.105045
0.105094
0.0578821
0.10119
0.101515
0.105051
0.105065
0.105153
0.105063
0.105068
0.105125
0.104934
0.104929
0.104987
0.10493
0.104921
0.10501
0.104914
0.0744837
0.0740879
0.0888934
0.104914
0.105008
0.104929
0.104946
0.105034
0.104945
0.104951
0.105009
0.104814
0.104808
0.104867
0.104685
0.0881736
0.0745812
0.0961331
0.104679
0.104882
0.104813
0.104828
0.104887
0.105713
0.105727
0.105727
0.105728
0.105733
0.105711
0.105812
0.105797
0.105798
0.105606
0.10562
0.10562
0.105624
0.105623
0.105603
0.105704
0.105683
0.105689
0.105501
0.105514
0.105514
0.105522
0.10552
0.105501
0.105597
0.105578
0.105586
0.105392
0.105406
0.105406
0.105417
0.105416
0.105398
0.105495
0.105475
0.105483
0.105306
0.105301
0.105287
0.105384
0.105371
0.105376
0.10511
0.105177
0.105204
0.0338218
0.0702034
0.0700522
0.0875542
0.0876985
0.0358543
0.105273
0.105258
0.105262
0.105822
0.105871
0.105873
0.105806
0.105806
0.105802
0.105934
0.105886
0.105884
0.105805
0.105806
0.105843
0.105842
0.105826
0.105935
0.105888
0.105889
0.105722
0.10575
0.105751
0.105757
0.105749
0.105722
0.105805
0.105777
0.105771
0.105762
0.10576
0.105747
0.105808
0.105799
0.105801
0.105723
0.105764
0.105758
0.105754
0.105754
0.105727
0.105809
0.105781
0.105782
0.105613
0.10564
0.10564
0.105647
0.10564
0.105613
0.105694
0.105667
0.105661
0.105659
0.105673
0.105673
0.105633
0.105651
0.105643
0.105697
0.105689
0.105682
0.105664
0.105646
0.105671
0.105616
0.105656
0.105651
0.105646
0.105647
0.105621
0.1057
0.105673
0.105673
0.105505
0.105532
0.10553
0.105541
0.105533
0.105506
0.105587
0.10556
0.105554
0.105554
0.105567
0.105567
0.105438
0.105523
0.105517
0.105566
0.105559
0.105481
0.105512
0.105551
0.105548
0.10554
0.105542
0.105516
0.105595
0.105569
0.105566
0.105395
0.105422
0.105421
0.105433
0.105424
0.105397
0.105479
0.105452
0.105447
0.105447
0.105461
0.105461
0.105368
0.105461
0.105441
0.10546
0.105454
0.10538
0.10471
0.103655
0.103758
0.105404
0.105445
0.105444
0.105433
0.105436
0.105409
0.10549
0.105463
0.10546
0.104774
0.103539
0.103649
0.104467
0.10448
0.104977
0.105293
0.105321
0.105335
0.105324
0.105327
0.105298
0.105382
0.105354
0.105352
0.104671
0.104064
0.104061
0.104064
0.104067
0.104719
0.105001
0.105029
0.105064
0.0578552
0.104621
0.10454
0.0961125
0.0960418
0.0440879
0.103915
0.103947
0.0754701
0.10507
0.104747
0.104834
0.10497
0.104768
0.105107
0.105707
0.105711
0.105704
0.105758
0.105737
0.10573
0.105741
0.10574
0.105754
0.105743
0.105731
0.10575
0.105803
0.105801
0.105809
0.105755
0.105763
0.105764
0.10569
0.105679
0.105673
0.10575
0.105746
0.105747
0.105754
0.10574
0.105741
0.105742
0.105744
0.105752
0.105702
0.105709
0.105705
0.105519
0.105583
0.105575
0.105635
0.105626
0.105592
0.105633
0.105633
0.105646
0.105506
0.10533
0.105379
0.104757
0.104782
0.105242
0.105413
0.105438
0.105556
0.105649
0.10563
0.105637
0.105575
0.105607
0.105614
0.105673
0.105688
0.105695
0.105619
0.105624
0.105597
0.105676
0.105676
0.105656
0.105393
0.105472
0.105466
0.10551
0.105504
0.105419
0.105527
0.105527
0.105541
0.105095
0.104528
0.104512
0.104687
0.104668
0.105148
0.105198
0.104708
0.104732
0.104504
0.104503
0.105087
0.105546
0.105527
0.105535
0.105409
0.10541
0.105258
0.105573
0.105571
0.105552
0.105063
0.103321
0.103082
0.104326
0.104278
0.10511
0.105166
0.104725
0.104706
0.103009
0.102749
0.105026
0.104966
0.104421
0.104448
0.103876
0.103971
0.104817
0.105443
0.105423
0.105431
0.105251
0.105411
0.105417
0.105375
0.105381
0.105291
0.105238
0.105404
0.105407
0.105422
0.105428
0.105241
0.10547
0.105469
0.105449
0.105153
0.10468
0.104655
0.104784
0.104771
0.105149
0.10513
0.104413
0.10437
0.104629
0.104599
0.105149
0.104742
0.104052
0.104059
0.103682
0.103766
0.104769
0.105276
0.105362
0.105369
0.105337
0.105358
0.105258
0.105362
0.105357
0.105343
0.105094
0.10164
0.101385
0.100543
0.101353
0.105074
0.105142
0.104806
0.104796
0.104585
0.103195
0.103175
0.105768
0.105782
0.105783
0.105782
0.105788
0.105766
0.10581
0.105795
0.105789
0.105802
0.105796
0.105798
0.105321
0.105312
0.105284
0.105369
0.105341
0.105336
0.105335
0.10535
0.10535
0.105299
0.105342
0.105328
0.10537
0.105356
0.105304
0.101833
0.100748
0.100905
0.0997538
0.0999827
0.101274
0.105178
0.105207
0.105217
0.105802
0.1058
0.105805
0.105766
0.105774
0.105778
0.105787
0.105794
0.105817
0.105764
0.105786
0.105779
0.105783
0.105783
0.105768
0.105336
0.105407
0.105384
0.105434
0.105414
0.10534
0.10542
0.10542
0.105433
0.0928328
0.0858254
0.0852516
0.0888925
0.0882794
0.0948869
0.100832
0.0993557
0.099536
0.10533
0.105316
0.10532
0.105202
0.105309
0.10533
0.105279
0.105302
0.105193
0.096017
0.0900953
0.0895099
0.0926141
0.0922251
0.0973223
0.105123
0.10525
0.105264
0.10522
0.105235
0.105113
0.105247
0.105243
0.105228
0.105876
0.105849
0.105848
0.105852
0.105851
0.105877
0.105814
0.105842
0.105844
0.105826
0.105825
0.105816
0.105877
0.10585
0.105852
0.105847
0.105849
0.105876
0.105778
0.105765
0.10577
0.10579
0.105797
0.105806
0.105773
0.105778
0.105775
0.105793
0.105791
0.105783
0.103341
0.103492
0.104772
0.104982
0.104547
0.104558
0.102535
0.101759
0.101851
0.101053
0.101182
0.102114
0.102394
0.103447
0.103413
0.103502
0.103476
0.102465
0.10471
0.104068
0.104069
0.105697
0.105723
0.105735
0.105708
0.105615
0.105683
0.105668
0.105723
0.105708
0.105774
0.105769
0.105763
0.105772
0.10577
0.105777
0.105713
0.105708
0.105714
0.105727
0.105723
0.105718
0.104988
0.105023
0.105384
0.105328
0.104926
0.104956
0.105566
0.105584
0.105638
0.10561
0.105532
0.105549
0.105541
0.105547
0.105455
0.105633
0.105628
0.105621
0.105642
0.105635
0.105639
0.105606
0.1056
0.105593
0.105614
0.105607
0.105613
0.105439
0.105531
0.105536
0.105663
0.105668
0.105657
0.105686
0.105684
0.105677
0.105697
0.105691
0.105693
0.105659
0.105656
0.105649
0.10567
0.105663
0.105666
0.105627
0.10565
0.105656
0.104598
0.104592
0.105117
0.105126
0.104612
0.104605
0.104584
0.104602
0.105138
0.105113
0.104552
0.104567
0.105411
0.105414
0.105225
0.105529
0.105522
0.105516
0.105535
0.105528
0.105536
0.105504
0.105497
0.105491
0.105509
0.105503
0.10551
0.105201
0.105406
0.105408
0.10558
0.105573
0.105567
0.105587
0.10558
0.105587
0.105555
0.105547
0.105541
0.10556
0.105554
0.105561
0.104106
0.103405
0.105074
0.0845152
0.0927303
0.0932648
0.0888966
0.0893254
0.0794561
0.105102
0.104221
0.104163
0.105012
0.102633
0.102293
0.104266
0.1043
0.104939
0.10489
0.104156
0.104215
0.105396
0.105395
0.10523
0.105478
0.105472
0.105466
0.105485
0.105478
0.105485
0.105452
0.105447
0.10544
0.105459
0.105453
0.105459
0.105252
0.105395
0.105395
0.0884996
0.0802646
0.0798075
0.084548
0.0837053
0.0911127
0.104497
0.104456
0.105135
0.0895597
0.0965986
0.0970063
0.0936915
0.0941339
0.0858155
0.0927878
0.102151
0.102326
0.101766
0.101961
0.0922328
0.105146
0.104566
0.104533
0.0829715
0.0733406
0.0730193
0.0792351
0.0784007
0.0867951
0.104033
0.104043
0.104748
0.101301
0.102242
0.10215
0.102792
0.102725
0.101929
0.102043
0.10193
0.100832
0.104764
0.104005
0.10402
0.0973045
0.0847689
0.0835548
0.0861851
0.0852376
0.0975302
0.0979637
0.0933908
0.093007
0.102524
0.100168
0.10051
0.101936
0.102018
0.102689
0.10519
0.105197
0.105167
0.105255
0.105226
0.10522
0.105206
0.105227
0.105212
0.105256
0.105242
0.10522
0.0993677
0.0992931
0.074243
0.103983
0.102988
0.102981
0.103025
0.10301
0.104034
0.105255
0.105285
0.105271
0.105314
0.1053
0.105261
0.105307
0.105306
0.105321
0.0567636
0.0531394
0.0339641
0.096122
0.0860553
0.0837079
0.0861476
0.0860672
0.0960718
0.102406
0.0982088
0.0974841
0.100411
0.100963
0.102543
0.0361632
0.069825
0.0784648
0.105838
0.105828
0.105827
0.10583
0.10583
0.10584
0.105807
0.105825
0.105821
0.105814
0.105813
0.105808
0.105839
0.105828
0.10583
0.105826
0.105827
0.105838
0.105667
0.105659
0.105644
0.105668
0.105665
0.105672
0.105651
0.105658
0.105661
0.105662
0.105632
0.105623
0.105537
0.10553
0.105445
0.10556
0.105553
0.10556
0.10554
0.105546
0.105553
0.105587
0.10558
0.105587
0.105566
0.105573
0.10558
0.105471
0.105551
0.105544
0.103587
0.1036
0.104686
0.104068
0.104066
0.104681
0.103022
0.103542
0.103524
0.103571
0.103558
0.103063
0.104682
0.101883
0.100566
0.101794
0.101854
0.104663
0.0571854
0.0905358
0.0901536
0.105785
0.105793
0.105795
0.10579