/*--------------------------------*- C++ -*----------------------------------*\
| =========                 |                                                 |
| \\      /  F ield         | OpenFOAM: The Open Source CFD Toolbox           |
|  \\    /   O peration     | Version:  5.x                                   |
|   \\  /    A nd           | Web:      www.OpenFOAM.org                      |
|    \\/     M anipulation  |                                                 |
\*---------------------------------------------------------------------------*/
FoamFile
{
    version     2.0;
    format      ascii;
    class       volScalarField;
    location    "200";
    object      Y;
}
// * * * * * * * * * * * * * * * * * * * * * * * * * * * * * * * * * * * * * //

dimensions      [0 0 0 0 0 0 0];

internalField   nonuniform List<scalar> 
6584
(
0.00632781
0.00632781
0.00632781
0.00632781
0.00632781
0.00632781
0.00632781
0.00632782
0.00632782
0.00632782
0.00632782
0.00632782
0.00632782
0.00632782
0.00632782
0.00632782
0.00632782
0.00632781
0.00632781
0.00632781
0.00632781
0.00632781
0.00632781
0.00632781
0.00632561
0.00632561
0.00632561
0.00632562
0.00632562
0.00632562
0.00632562
0.00632563
0.00632563
0.00632563
0.00632563
0.00632563
0.00632563
0.00632563
0.00632563
0.00632563
0.00632563
0.00632563
0.00632562
0.00632562
0.00632562
0.00632561
0.00632561
0.00632561
0.00632341
0.00632342
0.00632342
0.00632342
0.00632342
0.00632342
0.00632343
0.00632344
0.00632345
0.00632454
0.00632454
0.00632454
0.00632454
0.00632454
0.00632454
0.00632345
0.00632344
0.00632344
0.00632343
0.00632343
0.00632342
0.00632342
0.00632342
0.00632341
0.00632122
0.00632122
0.00632122
0.00632123
0.00632123
0.00632123
0.00632124
0.00632125
0.00632126
0.00632235
0.00632235
0.00632234
0.00632234
0.00632235
0.00632235
0.00632235
0.00632125
0.00632124
0.00632124
0.00632123
0.00632123
0.00632123
0.00632122
0.00632122
0.00631902
0.00631903
0.00631903
0.00631903
0.00631904
0.00631904
0.00631904
0.00631904
0.00632015
0.00632016
0.00632014
0.00632013
0.00632013
0.00632013
0.00632015
0.00632016
0.00632015
0.00631906
0.00631905
0.00631904
0.00631904
0.00631903
0.00631903
0.00631903
0.00631683
0.00631683
0.00631684
0.00631684
0.00631684
0.00631685
0.00631686
0.00631795
0.00631794
0.00631793
0.00631848
0.00631845
0.00631844
0.00631847
0.00631795
0.00631797
0.00631797
0.00631689
0.00631687
0.00631686
0.00631685
0.00631684
0.00631684
0.00631683
0.00631464
0.00631464
0.00631464
0.00631465
0.00631466
0.00631466
0.00631468
0.00631576
0.00631575
0.00631573
0.00631622
0.00631645
0.00631641
0.0063162
0.0063163
0.0063158
0.0063158
0.00631472
0.00631469
0.00631468
0.00631466
0.00631465
0.00631465
0.00631464
0.00631245
0.00631245
0.00631245
0.00631246
0.00631247
0.00631248
0.00631251
0.00631358
0.00631358
0.00631358
0.00631401
0.00631411
0.0063142
0.00631413
0.00631365
0.00631365
0.00631257
0.00631252
0.0063125
0.00631248
0.00631247
0.00631246
0.00631245
0.00631026
0.00631026
0.00631027
0.00631028
0.00631029
0.00631031
0.00631034
0.00631142
0.00631142
0.00631145
0.00631188
0.00631198
0.0063121
0.00631204
0.00631155
0.00631152
0.00631042
0.00631036
0.00631033
0.0063103
0.00631028
0.00631027
0.00631026
0.00630807
0.00630807
0.00630808
0.00630809
0.00630811
0.00630813
0.00630817
0.00630925
0.00630928
0.00630934
0.00630981
0.00630998
0.00631018
0.00631002
0.00630947
0.0063094
0.00630828
0.0063082
0.00630815
0.00630812
0.0063081
0.00630808
0.00630807
0.00630588
0.00630588
0.00630589
0.00630591
0.00630593
0.00630596
0.00630601
0.0063071
0.00630714
0.00630723
0.00630774
0.00630799
0.00630827
0.006308
0.00630739
0.00630728
0.00630613
0.00630604
0.00630598
0.00630594
0.00630592
0.0063059
0.00630588
0.00630369
0.0063037
0.00630371
0.00630373
0.00630375
0.00630379
0.00630384
0.00630494
0.00630499
0.0063051
0.00630564
0.00630594
0.0063063
0.00630596
0.00630529
0.00630516
0.00630398
0.00630387
0.00630381
0.00630376
0.00630373
0.00630371
0.00630369
0.0063015
0.00630151
0.00630152
0.00630154
0.00630157
0.00630161
0.00630167
0.00630277
0.00630284
0.00630296
0.00630351
0.00630381
0.00630421
0.00630386
0.00630317
0.00630303
0.00630183
0.00630171
0.00630164
0.00630158
0.00630154
0.00630152
0.0063015
0.00629931
0.00629932
0.00629934
0.00629936
0.00629939
0.00629943
0.0062995
0.00629954
0.00630066
0.00630076
0.0063013
0.00630152
0.00492356
0.00630172
0.00630172
0.00630103
0.00630088
0.00629966
0.00629954
0.00629946
0.00629939
0.00629935
0.00629932
0.0062993
0.00629712
0.00629713
0.00629715
0.00629718
0.00629721
0.00629725
0.00629731
0.00629734
0.00629846
0.00629855
0.00629909
0.00629904
0.00592535
0.00629952
0.00629894
0.00629886
0.00629757
0.00629747
0.00629734
0.00629727
0.00629721
0.00629716
0.00629713
0.00629711
0.00629493
0.00629494
0.00629496
0.00629499
0.00629502
0.00629506
0.00629512
0.00629515
0.00629627
0.00629637
0.00629637
0.00629683
0.00595101
0.00629678
0.00629676
0.00629668
0.00629539
0.00629529
0.00629515
0.00629507
0.00629501
0.00629496
0.00629493
0.00629491
0.00629274
0.00629275
0.00629277
0.0062928
0.00629284
0.00629288
0.00629292
0.00629297
0.00629303
0.00629419
0.00629419
0.00628976
0.00612796
0.00629459
0.00629458
0.0062945
0.0062932
0.0062931
0.00629296
0.00629287
0.00629281
0.00629276
0.00629273
0.0062927
0.00629055
0.00629057
0.00629059
0.00629062
0.00629065
0.00629068
0.00629074
0.00629079
0.00629086
0.00629091
0.00629201
0.00628549
0.00613034
0.0062924
0.0062913
0.00629114
0.00629101
0.00629091
0.00629076
0.00629067
0.00629061
0.00629055
0.00629052
0.00629049
0.00628836
0.00628838
0.0062884
0.00628843
0.00628846
0.00628849
0.00628856
0.00628861
0.00628868
0.00628873
0.00628798
0.00610177
0.00621264
0.00628914
0.00628912
0.00628896
0.00628882
0.00628871
0.00628857
0.00628847
0.0062884
0.00628835
0.00628831
0.00628828
0.00628617
0.00628619
0.00628621
0.00628624
0.00628628
0.00628631
0.00628638
0.00628643
0.00628651
0.00628655
0.0062851
0.00610029
0.00621087
0.00628695
0.00628693
0.00628677
0.00628663
0.00628651
0.00628637
0.00628627
0.0062862
0.00628614
0.00628611
0.00628607
0.00628398
0.006284
0.00628402
0.00628405
0.00628409
0.00628413
0.0062842
0.00628426
0.00628433
0.00628437
0.00628224
0.00609876
0.00620902
0.00628476
0.00628475
0.00628459
0.00628444
0.00628432
0.00628417
0.00628407
0.00628399
0.00628393
0.0062839
0.00628386
0.00628179
0.00628181
0.00628183
0.00628187
0.00628191
0.00628195
0.00628202
0.00628208
0.00628216
0.00628219
0.0062794
0.00609718
0.00620712
0.00628257
0.00628257
0.0062824
0.00628225
0.00628212
0.00628197
0.00628186
0.00628179
0.00628173
0.00628169
0.00628164
0.0062796
0.00627962
0.00627964
0.00627968
0.00627972
0.00627976
0.00627984
0.00627991
0.00627999
0.00628001
0.00627659
0.00609556
0.00620517
0.00628038
0.00628039
0.00628022
0.00628005
0.00627992
0.00627977
0.00627966
0.00627958
0.00627952
0.00627948
0.00627943
0.00627741
0.00627743
0.00627746
0.00627749
0.00627754
0.00627758
0.00627767
0.00627774
0.00627783
0.00627783
0.00627379
0.00609391
0.00620319
0.0062782
0.00627821
0.00627803
0.00627786
0.00627773
0.00627756
0.00627745
0.00627737
0.00627731
0.00627727
0.00627722
0.00627522
0.00627524
0.00627527
0.00627531
0.00627536
0.0062754
0.00627549
0.00627556
0.00627566
0.00627565
0.00627103
0.00609224
0.00620118
0.00627601
0.00627603
0.00627585
0.00627567
0.00627553
0.00627536
0.00627525
0.00627516
0.0062751
0.00627505
0.00627501
0.00627303
0.00627305
0.00627308
0.00627312
0.00627317
0.00627322
0.00627331
0.00627339
0.00627349
0.00627347
0.00626821
0.00609059
0.00619918
0.00627382
0.00627386
0.00627367
0.00627348
0.00627333
0.00627316
0.00627304
0.00627296
0.00627289
0.00627284
0.00627279
0.00627084
0.00627087
0.0062709
0.00627094
0.00627099
0.00627105
0.00627114
0.00627122
0.00627133
0.00627129
0.00626535
0.00608898
0.00619721
0.00627164
0.00627168
0.00627149
0.0062713
0.00627114
0.00627096
0.00627084
0.00627075
0.00627068
0.00627063
0.00627058
0.00626865
0.00626868
0.00626871
0.00626875
0.00626881
0.00626887
0.00626897
0.00626905
0.00626916
0.0062691
0.00626251
0.00608735
0.00619523
0.00626946
0.00626951
0.00626931
0.00626911
0.00626895
0.00626877
0.00626864
0.00626855
0.00626847
0.00626843
0.00626838
0.00626647
0.00626649
0.00626652
0.00626657
0.00626663
0.00626669
0.00626679
0.00626688
0.006267
0.00626692
0.0062597
0.00608572
0.00619324
0.00626728
0.00626734
0.00626714
0.00626692
0.00626675
0.00626657
0.00626644
0.00626634
0.00626627
0.00626622
0.00626617
0.00626428
0.00626431
0.00626434
0.00626439
0.00626445
0.00626451
0.00626462
0.00626472
0.00626484
0.00626473
0.00625689
0.00608407
0.00619124
0.00626509
0.00626517
0.00626496
0.00626474
0.00626456
0.00626437
0.00626424
0.00626414
0.00626406
0.00626401
0.00626396
0.00626209
0.00626212
0.00626215
0.0062622
0.00626227
0.00626234
0.00626245
0.00626255
0.00626267
0.00626254
0.00625411
0.00608241
0.00618923
0.00626291
0.006263
0.00626278
0.00626255
0.00626237
0.00626217
0.00626204
0.00626193
0.00626185
0.0062618
0.00626175
0.00625991
0.00625993
0.00625997
0.00626002
0.00626009
0.00626016
0.00626028
0.00626039
0.00626051
0.00626035
0.00625133
0.00608075
0.00618722
0.00626072
0.00626083
0.0062606
0.00626037
0.00626017
0.00625997
0.00625983
0.00625973
0.00625964
0.00625959
0.00625954
0.00625772
0.00625775
0.00625779
0.00625784
0.00625791
0.00625799
0.00625811
0.00625822
0.00625835
0.00625816
0.00624856
0.00607909
0.00618521
0.00625854
0.00625866
0.00625842
0.00625818
0.00625798
0.00625778
0.00625763
0.00625752
0.00625743
0.00625738
0.00625733
0.00625553
0.00625556
0.0062556
0.00625566
0.00625573
0.00625581
0.00625594
0.00625606
0.00625619
0.00625597
0.00624579
0.00607743
0.0061832
0.00625635
0.00625649
0.00625625
0.006256
0.00625579
0.00625558
0.00625543
0.00625532
0.00625523
0.00625517
0.00625512
0.00625335
0.00625338
0.00625342
0.00625347
0.00625355
0.00625364
0.00625377
0.0062539
0.00625403
0.00625378
0.00624302
0.00607577
0.00618119
0.00625417
0.00625432
0.00625407
0.00625381
0.00625359
0.00625338
0.00625323
0.00625311
0.00625302
0.00625296
0.00625291
0.00625117
0.0062512
0.00625124
0.00625129
0.00625137
0.00625147
0.00625161
0.00625173
0.00625187
0.00625158
0.00624025
0.00607411
0.00617919
0.00625198
0.00625215
0.00625189
0.00625163
0.0062514
0.00625118
0.00625102
0.0062509
0.00625081
0.00625075
0.0062507
0.00631223
0.00631233
0.00631415
0.00631023
0.00631041
0.00631208
0.00630824
0.00630852
0.00631018
0.0063062
0.00630656
0.00630828
0.00630408
0.00630449
0.00630631
0.00630181
0.00483421
0.00487661
0.00630231
0.00630423
0.00631439
0.00631641
0.00631443
0.00631646
0.00631241
0.00631227
0.00631417
0.00631306
0.00631408
0.00631235
0.00631252
0.00631409
0.00631032
0.00631024
0.00631201
0.00631122
0.00630943
0.00631159
0.00630687
0.00631136
0.00631041
0.00631051
0.00631201
0.00630826
0.00630824
0.00630999
0.00630924
0.00630315
0.00630448
0.0062602
0.00628483
0.00630851
0.00630852
0.00631001
0.00630617
0.0063062
0.00630799
0.00630723
0.00630332
0.00630312
0.00629288
0.00627209
0.00630655
0.0063065
0.00630802
0.00630233
0.00630254
0.00630448
0.00630442
0.00630599
0.00630234
0.00630277
0.00629959
0.00519049
0.00483756
0.0056236
0.00630003
0.00630201
0.00631183
0.00631297
0.00631302
0.00631292
0.00631108
0.00631408
0.00631306
0.00631153
0.00631299
0.00631307
0.00631297
0.00631189
0.00630489
0.00630892
0.00631097
0.00630415
0.00628925
0.00631053
0.00630494
0.00628646
0.00630664
0.00631112
0.0063088
0.00630326
0.00631176
0.00630896
0.00631136
0.00630308
0.00630311
0.00630899
0.00628678
0.0062926
0.00628867
0.00628649
0.00627133
0.00625875
0.00630923
0.00630054
0.00630144
0.00630314
0.00630071
0.00630947
0.0062897
0.00629426
0.00629301
0.00628892
0.00630232
0.0062941
0.00630731
0.00630394
0.00630511
0.00630149
0.00630379
0.00630755
0.00629787
0.00629914
0.00629479
0.00629759
0.00630278
0.00630246
0.00630508
0.00630468
0.00630554
0.00629959
0.00629659
0.00629926
0.00629961
0.00630133
0.00630224
0.00631328
0.00631311
0.00631413
0.00631322
0.00631397
0.00630405
0.00630407
0.00630593
0.00630515
0.00630331
0.00630347
0.0062417
0.00620869
0.0063023
0.00630229
0.0063039
0.00631401
0.00631327
0.00631413
0.0063131
0.00631334
0.00630347
0.00630335
0.00630698
0.00488459
0.00512241
0.0058614
0.00597961
0.00513577
0.00541175
0.00620236
0.00614401
0.00630528
0.0063046
0.00630392
0.00599363
0.00606543
0.00630381
0.00630295
0.00630341
0.00631531
0.00631519
0.00631423
0.00631423
0.00631519
0.00631531
0.0063131
0.00631348
0.00631322
0.00631402
0.00631331
0.00631362
0.00630859
0.00630958
0.00627413
0.00627541
0.00628574
0.00628328
0.00630177
0.00614167
0.00630354
0.00626675
0.00624541
0.0062473
0.00626736
0.00630264
0.00628842
0.00631242
0.00624157
0.00630443
0.00622811
0.00631219
0.00630629
0.00631322
0.00631348
0.0063128
0.00629509
0.00631234
0.00631243
0.00629552
0.00629458
0.00630889
0.00630848
0.00629499
0.00629611
0.00630405
0.00631068
0.00631105
0.00631019
0.00631055
0.00630396
0.00631064
0.00631168
0.00631206
0.00631118
0.00631155
0.00631027
0.00628969
0.00629002
0.00628621
0.00628607
0.00624175
0.00624414
0.00629915
0.0063088
0.00630914
0.00630834
0.00630868
0.00629906
0.00630219
0.00630971
0.00631007
0.00630925
0.0063096
0.00630204
0.00491398
0.00629186
0.00520559
0.00495437
0.00549537
0.00522163
0.0062925
0.00628558
0.00498593
0.00628641
0.00629988
0.00629931
0.00630255
0.00630788
0.00630822
0.00630741
0.00630776
0.00630282
0.00568164
0.00583602
0.00629617
0.00572748
0.00551478
0.00590645
0.00575126
0.00629657
0.00543881
0.00565749
0.00630276
0.00620836
0.00624343
0.00614938
0.00620145
0.00630271
0.00612993
0.00606257
0.00608723
0.00506479
0.00607373
0.00605256
0.00527021
0.00626716
0.0062687
0.00631381
0.00630187
0.00630182
0.0063038
0.00630299
0.00630228
0.00630301
0.0055429
0.00629794
0.00630033
0.00631383
0.0063028
0.00630326
0.00630488
0.00499827
0.00504413
0.00467108
0.00605525
0.00605166
0.00508926
0.0051706
0.00625627
0.00626673
0.00425124
0.00631459
0.00631464
0.0063141
0.00631407
0.00631464
0.0063146
0.00631053
0.00631151
0.00631112
0.00630717
0.00630635
0.00631058
0.00630346
0.00630946
0.00630909
0.00630995
0.00630958
0.00630364
0.00626668
0.00628106
0.00628983
0.00627388
0.00603522
0.00598538
0.00630257
0.00626947
0.00628281
0.00629055
0.00628985
0.00515705
0.00631363
0.0063134
0.00631406
0.00631188
0.00630891
0.00630706
0.00631256
0.0063127
0.0063131
0.00631218
0.00631257
0.00631241
0.00630644
0.00631047
0.00631008
0.00631099
0.0063106
0.00630701
0.00630031
0.00613603
0.00623694
0.00607007
0.00608383
0.00629129
0.00624684
0.00625721
0.00630666
0.00629004
0.00629975
0.00630611
0.0063105
0.00631065
0.00630949
0.00630972
0.00630357
0.00630897
0.00630861
0.00630304
0.00628826
0.00606975
0.00601997
0.00628727
0.00605338
0.00606683
0.00601057
0.00601185
0.00628592
0.00625979
0.0062502
0.00629979
0.00630831
0.00630845
0.00630748
0.00630793
0.00630055
0.00630276
0.00630921
0.00630942
0.0063085
0.00630866
0.00630133
0.00630144
0.00624075
0.0062542
0.00622298
0.00621457
0.00629667
0.00630518
0.00630693
0.00630729
0.00630644
0.00630681
0.00630517
0.00629855
0.00602502
0.00592378
0.00612889
0.0060989
0.00629873
0.00544619
0.00549234
0.00629951
0.00616163
0.00613804
0.00538407
0.00543176
0.00609511
0.00604816
0.00631356
0.00631382
0.00631367
0.00597973
0.0062295
0.00600835
0.00603424
0.0060241
0.00622523
0.00631372
0.00631356
0.00631389
0.00631331
0.00631362
0.00491219
0.00499145
0.00501659
0.00500225
0.00591859
0.00516612
0.00512377
0.0052611
0.00517859
0.00593384
0.00520877
0.00526238
0.00618048
0.00617067
0.00602922
0.00538958
0.00530445
0.00518014
0.00522772
0.00631273
0.00631317
0.00631343
0.00631276
0.00631308
0.00631253
0.0063073
0.00631041
0.00626806
0.00627974
0.00628911
0.00627514
0.00615248
0.0062604
0.00625064
0.0062707
0.00626348
0.00615044
0.00622837
0.00621921
0.00624761
0.00623357
0.00625933
0.00610935
0.0061394
0.00605504
0.00609463
0.00625618
0.00595877
0.00596928
0.00627222
0.00631041
0.00630815
0.00631251
0.00631106
0.00628026
0.00629438
0.00628983
0.00630643
0.00629637
0.00631182
0.00631315
0.00631272
0.00631104
0.0063094
0.00631127
0.00630934
0.006312
0.00630995
0.00631201
0.00631263
0.00631038
0.00631177
0.00631269
0.00631221
0.00631145
0.00610423
0.00612108
0.00629887
0.00595679
0.00588079
0.00615189
0.00597251
0.0057741
0.00570954
0.00585757
0.0058036
0.00629207
0.00608918
0.00610016
0.00623333
0.00621464
0.00628749
0.00624972
0.0061937
0.00617349
0.00621152
0.0061988
0.00630715
0.00625955
0.00626605
0.00629126
0.00629913
0.00631013
0.0063104
0.00630501
0.00630368
0.0063098
0.00631005
0.00608567
0.00607858
0.00628869
0.00570614
0.0057148
0.00544826
0.00567371
0.00570219
0.00577818
0.00571085
0.00570154
0.00603714
0.00604958
0.00628691
0.0056185
0.00556664
0.0056961
0.00563506
0.00547058
0.00542879
0.00554604
0.00549697
0.00628598
0.00601851
0.0060321
0.00625172
0.00624835
0.00630813
0.00630826
0.00629961
0.00629992
0.00630797
0.00630808
0.00630895
0.00630914
0.00630262
0.00630149
0.00630872
0.00630889
0.00497067
0.00506579
0.0060916
0.0061238
0.00604843
0.00607991
0.00497851
0.00538777
0.00616624
0.00610724
0.00613249
0.0061582
0.00533034
0.00589925
0.00592031
0.00582159
0.00589125
0.00508145
0.00600524
0.0060396
0.00593135
0.00598696
0.00508657
0.00622914
0.00623747
0.00630112
0.00619271
0.00620959
0.00621492
0.00619211
0.00620941
0.00629729
0.0062094
0.006222
0.00574424
0.00492801
0.00493715
0.00509368
0.00494619
0.00576656
0.00501754
0.00551874
0.0049433
0.00555514
0.00617635
0.00627893
0.00627294
0.00628609
0.00628094
0.0061809
0.00610668
0.00611448
0.00551255
0.00555981
0.00526182
0.00536373
0.0061278
0.00610605
0.00631448
0.00631462
0.00631627
0.00630314
0.00630278
0.00630189
0.00631427
0.00631431
0.00631396
0.0063139
0.00631429
0.00631427
0.00631529
0.00631524
0.00631429
0.00631203
0.00631164
0.00631084
0.00630697
0.00630027
0.0062993
0.00626176
0.00628354
0.006308
0.00630763
0.00630319
0.00624395
0.00623963
0.0062726
0.00625716
0.00626402
0.00630307
0.00631239
0.00631255
0.00631216
0.00630221
0.00630523
0.00631151
0.00631278
0.00631238
0.00631277
0.00631021
0.00628757
0.00630086
0.00628765
0.00629829
0.00629722
0.006306
0.00630689
0.00630697
0.00630337
0.00631084
0.006311
0.00630931
0.00630304
0.00630848
0.00630812
0.00611167
0.00609222
0.00629138
0.00626988
0.00624982
0.00624802
0.0062573
0.00630037
0.00630574
0.00630578
0.00630302
0.00630673
0.00630681
0.00630583
0.00630588
0.00630088
0.00628402
0.00614151
0.00612147
0.00630159
0.00630732
0.0063074
0.00630494
0.00630593
0.00630631
0.00506565
0.0050681
0.00618652
0.00616864
0.00629955
0.00506145
0.00506344
0.00628404
0.00628676
0.00630192
0.00631332
0.00631325
0.00486419
0.00486021
0.0048859
0.00510311
0.00515013
0.00481007
0.00483398
0.00505957
0.00501975
0.00537456
0.00609942
0.0060905
0.00615297
0.00546267
0.00540548
0.00603903
0.00631471
0.00631467
0.00631412
0.00631283
0.00631301
0.00631317
0.00631329
0.00631211
0.00631232
0.00631351
0.00631377
0.00631362
0.00630497
0.00630448
0.00630789
0.00631002
0.00630845
0.00630758
0.00627123
0.0062767
0.00625388
0.00625698
0.00628733
0.0062802
0.00624035
0.00624749
0.00616254
0.00616349
0.0062008
0.00619572
0.00614095
0.00616633
0.0061697
0.0063032
0.00626677
0.00627433
0.00628235
0.00625635
0.00629248
0.00628824
0.00630959
0.00630783
0.00630046
0.0061843
0.00616868
0.00627745
0.00624699
0.00620368
0.0063134
0.00631324
0.00631245
0.0063123
0.0063105
0.00631145
0.00630032
0.00631111
0.00631177
0.0062682
0.00627999
0.00630994
0.0061483
0.00612984
0.00629388
0.0062972
0.00631151
0.00631166
0.00631118
0.00630945
0.00631116
0.00631133
0.00629103
0.00608996
0.00608652
0.00624187
0.00624551
0.0063063
0.00630637
0.00630233
0.00630183
0.00630617
0.00630624
0.00494414
0.00518523
0.00558429
0.0056064
0.00534693
0.00536547
0.00492724
0.00615567
0.00614524
0.0062848
0.00509378
0.00506005
0.00528036
0.00528027
0.00501944
0.00532618
0.00533576
0.00503775
0.00504815
0.00630716
0.00630724
0.00630171
0.00630328
0.006307
0.00630708
0.00562436
0.00614253
0.00615365
0.00611909
0.00613078
0.00558808
0.00622445
0.00628296
0.00628747
0.00628649
0.00628482
0.00622986
0.00616042
0.00621426
0.00620735
0.00611471
0.00610243
0.00612899
0.00514096
0.00516347
0.00517259
0.00505656
0.0060959
0.00557394
0.00549081
0.00564774
0.00559487
0.00604167
0.00594252
0.00594948
0.00614746
0.00617245
0.00627343
0.00631374
0.00631383
0.00631362
0.00499895
0.00501153
0.00550232
0.00549366
0.00462827
0.0051338
0.00505287
0.00505317
0.0050298
0.00504301
0.00515745
0.00426706
0.00610611
0.00612665
0.00631436
0.00631432
0.00631395
0.00630211
0.00630121
0.00630707
0.00630463
0.00630744
0.0063094
0.00630646
0.00630703
0.00626455
0.00628229
0.0062209
0.00622603
0.00622637
0.00622069
0.00627313
0.00623643
0.00623444
0.00602396
0.00595275
0.00595059
0.0059624
0.00596136
0.00600972
0.00630839
0.00631044
0.00631058
0.00631005
0.00631031
0.00630782
0.00628884
0.00630427
0.00629603
0.00629309
0.00630347
0.00630706
0.00630714
0.00624963
0.00625086
0.00626672
0.00625307
0.00630564
0.00630569
0.00630005
0.00630658
0.00630665
0.00630289
0.00630113
0.00630594
0.00630599
0.00622336
0.00624111
0.00623413
0.00624682
0.0062447
0.00622156
0.00507158
0.00507919
0.00506119
0.00506022
0.0054011
0.00519073
0.00517677
0.0059652
0.00596524
0.00608077
0.00598917
0.00600855
0.00595499
0.00596911
0.00606415
0.00631349
0.00631341
0.00631346
0.00631345
0.00631374
0.00631378
0.00631388
0.00631358
0.00631366
0.00631364
0.00600249
0.00612353
0.00611579
0.00614478
0.00613377
0.00601146
0.00605379
0.00608732
0.00607211
0.00610947
0.00610139
0.00604135
0.00631365
0.00631372
0.00631362
0.00631265
0.00631196
0.00631343
0.00631325
0.00486525
0.00506593
0.00490562
0.00490665
0.00501236
0.0050073
0.00536075
0.00538481
0.00514178
0.00480892
0.0047953
0.00517191
0.0048911
0.00488188
0.00488477
0.0053225
0.00494411
0.00486406
0.00610876
0.00612313
0.00618913
0.0060723
0.00607548
0.00606438
0.00606585
0.00616117
0.00608719
0.00609372
0.00519011
0.00500509
0.00501646
0.00500886
0.00499997
0.00520442
0.00631296
0.00631306
0.00631289
0.00631207
0.00631247
0.00631283
0.00630116
0.00630751
0.0063038
0.00630299
0.00630505
0.00630578
0.00630336
0.00630426
0.00626948
0.00627806
0.00623258
0.00623424
0.0062282
0.00623047
0.00628835
0.00625858
0.00625967
0.00623373
0.00623574
0.00627726
0.00623411
0.00617659
0.00616646
0.00614532
0.00619145
0.00618598
0.00622457
0.00617331
0.0061723
0.00618914
0.00617996
0.00622188
0.00624399
0.00619864
0.00620408
0.00617872
0.00618913
0.00623917
0.00617039
0.00606821
0.00616241
0.00615457
0.00594834
0.00595424
0.00626832
0.00629611
0.00629431
0.00626429
0.00628713
0.00630317
0.00629895
0.00621006
0.00619632
0.00626225
0.00626523
0.00629144
0.00623972
0.00622504
0.00630556
0.0063079
0.00631171
0.00630943
0.00630258
0.00629319
0.00630204
0.00631092
0.00631164
0.00631185
0.0063108
0.00631116
0.00630965
0.00630786
0.00630943
0.00631219
0.0063116
0.0063113
0.00631235
0.0063118
0.00631239
0.00631073
0.00631093
0.00631003
0.00631103
0.00593717
0.00590729
0.00610149
0.00587487
0.0059013
0.00582033
0.00598664
0.00574868
0.00572714
0.00583765
0.00582119
0.00622362
0.00613207
0.00615274
0.00609146
0.00611096
0.00621827
0.00628308
0.00624724
0.00625729
0.00616465
0.00622328
0.00627251
0.00611293
0.00608072
0.0061885
0.00596412
0.00598409
0.00593024
0.00594695
0.00618262
0.00620836
0.0060595
0.00607434
0.00600663
0.00603182
0.0062038
0.00629276
0.00629825
0.0057177
0.00547842
0.0055131
0.00540406
0.00543928
0.0057181
0.00551056
0.00552773
0.00552455
0.00559707
0.00571376
0.00521408
0.00524688
0.00527696
0.00521965
0.00573891
0.0057073
0.00534365
0.00537228
0.00528662
0.00531805
0.00570435
0.00560679
0.00559235
0.00568251
0.00565638
0.00544854
0.00543054
0.00553039
0.00551949
0.00624527
0.00624688
0.00630248
0.00630644
0.00630651
0.00630605
0.00630611
0.00630165
0.0049679
0.00550504
0.00555221
0.0051461
0.00492718
0.00539889
0.00544911
0.00516803
0.00512958
0.0059057
0.00549557
0.00549649
0.00585694
0.00544497
0.00536501
0.00549425
0.00548045
0.00587883
0.00525546
0.00520967
0.00527082
0.00530867
0.00505393
0.00509991
0.00518947
0.00623288
0.00626662
0.00626401
0.00627043
0.00626859
0.00623518
0.00619837
0.00620636
0.00620685
0.0061919
0.00619196
0.00619804
0.00620884
0.00625186
0.00624889
0.00626032
0.00625594
0.00621422
0.00492655
0.005128
0.00515009
0.00509486
0.00511123
0.00493099
0.00504056
0.00528162
0.00532737
0.00518344
0.00522988
0.00498803
0.00500953
0.00485122
0.00486652
0.00486758
0.00485643
0.00494647
0.0050393
0.00507382
0.00491302
0.0049767
0.00493826
0.00622475
0.00622022
0.00617053
0.00610589
0.00612357
0.00509813
0.00513048
0.00530097
0.00508618
0.00504078
0.0051593
0.00513233
0.0053367
0.00506324
0.00506307
0.00595216
0.00595393
0.00631903
0.00631903
0.00632014
0.00631901
0.00631901
0.00632013
0.00631901
0.00631901
0.00632013
0.00631902
0.00631904
0.00632014
0.00631683
0.00631681
0.00631792
0.00631678
0.00631676
0.00631847
0.00631674
0.00631671
0.00631844
0.00631671
0.00631675
0.00631845
0.00631678
0.00631682
0.00631848
0.00631685
0.00631687
0.00631795
0.00631465
0.0063146
0.00631625
0.00631456
0.00631445
0.00631618
0.00631556
0.00631553
0.00631644
0.00631547
0.0063155
0.00631641
0.00631563
0.00631567
0.00631622
0.00631467
0.00631472
0.00631579
0.00631251
0.00631245
0.00631406
0.00631347
0.00631346
0.006314
0.00631383
0.00631381
0.00631409
0.00631338
0.0063135
0.0063143
0.00631256
0.00631262
0.00631367
0.00631039
0.00631035
0.00631192
0.00631136
0.00631136
0.00631188
0.00631173
0.00631172
0.00631198
0.00631137
0.00631146
0.00631221
0.00631052
0.00631056
0.00631159
0.00630828
0.00630827
0.00630983
0.00630929
0.00630931
0.00630982
0.00630973
0.00630973
0.00630998
0.00630947
0.0063095
0.00631023
0.00630851
0.0063085
0.00630953
0.00630617
0.00630617
0.00630775
0.00630722
0.00630725
0.00630777
0.00630774
0.00630775
0.006308
0.00630755
0.00630753
0.00630827
0.00630648
0.00630644
0.00630747
0.00630403
0.00630405
0.00630565
0.00630568
0.00630569
0.00630595
0.00630554
0.00630548
0.00630625
0.00630439
0.00630434
0.00630539
0.00630187
0.00630188
0.00630351
0.0063034
0.0063034
0.00630393
0.00630226
0.00630221
0.00630328
0.00629965
0.00629962
0.00630072
0.00629964
0.0062996
0.00630125
0.00630069
0.00629962
0.00630047
0.00507094
0.00623423
0.00624102
0.00630007
0.00630011
0.00630175
0.00630004
0.00630006
0.00630113
0.00629746
0.00629743
0.00629853
0.00629746
0.0062974
0.00629905
0.00629738
0.00556796
0.00555383
0.00594549
0.00629779
0.00629947
0.00629785
0.00629792
0.00629954
0.00629785
0.00629786
0.00629896
0.00629528
0.00629524
0.00629635
0.00629242
0.00590568
0.00557192
0.00612671
0.00629526
0.00629723
0.00629568
0.00629573
0.00629682
0.00631223
0.00631249
0.00631249
0.00631257
0.00631266
0.00631226
0.00631413
0.00631386
0.00631387
0.00631023
0.00631047
0.00631048
0.00631065
0.00631064
0.00631028
0.00631213
0.00631175
0.00631184
0.00630825
0.0063085
0.00630849
0.00630876
0.00630877
0.00630842
0.00631016
0.00630981
0.00630994
0.00630621
0.00630647
0.00630646
0.00630681
0.00630686
0.0063065
0.0063083
0.00630795
0.00630804
0.00630476
0.00630472
0.00630446
0.00630625
0.006306
0.00630606
0.00630075
0.00630202
0.0063027
0.00462336
0.00539636
0.00540207
0.00583699
0.00583874
0.0042764
0.00630419
0.00630392
0.00630396
0.00631429
0.00631523
0.00631527
0.006314
0.006314
0.00631391
0.00631641
0.0063155
0.00631547
0.00631398
0.006314
0.00631471
0.00631469
0.0063144
0.00631645
0.00631555
0.00631558
0.0063124
0.00631293
0.00631294
0.00631306
0.00631291
0.00631239
0.00631398
0.00631344
0.00631333
0.0063132
0.00631316
0.00631288
0.00631405
0.00631389
0.00631392
0.00631246
0.00631324
0.00631312
0.00631304
0.00631304
0.00631253
0.00631408
0.00631355
0.00631356
0.00631033
0.00631084
0.00631084
0.00631099
0.00631085
0.00631034
0.00631187
0.00631136
0.00631125
0.00631122
0.00631147
0.00631147
0.00630984
0.00631084
0.00631063
0.00631188
0.00631172
0.00631136
0.00631071
0.00630999
0.00631109
0.00631047
0.00631121
0.00631113
0.00631101
0.00631104
0.00631054
0.00631203
0.00631153
0.00631151
0.00630828
0.0063088
0.00630877
0.006309
0.00630882
0.00630831
0.00630984
0.00630933
0.00630925
0.00630924
0.00630949
0.00630949
0.00630323
0.00630775
0.00630764
0.0063086
0.00630842
0.00630413
0.00630852
0.00630926
0.00630923
0.00630901
0.00630907
0.00630857
0.00631005
0.00630956
0.00630951
0.00630621
0.00630673
0.0063067
0.00630697
0.00630677
0.00630624
0.0063078
0.00630728
0.00630723
0.00630724
0.00630749
0.00630748
0.00630322
0.00630751
0.00630714
0.00630679
0.0063067
0.00630314
0.00629166
0.00626468
0.00626817
0.00630651
0.00630727
0.0063073
0.00630701
0.00630707
0.00630657
0.00630808
0.00630758
0.00630751
0.00630217
0.00628351
0.00628767
0.00629549
0.00629619
0.00630274
0.00630446
0.00630498
0.00630528
0.00630495
0.00630501
0.00630449
0.00630605
0.00630554
0.00630547
0.00630242
0.00630026
0.00630033
0.00629918
0.00629945
0.00630273
0.00629894
0.00629933
0.00630014
0.0051657
0.00628953
0.00628841
0.00605393
0.00605751
0.00485612
0.00629702
0.0062977
0.0055655
0.00630059
0.0063003
0.00629965
0.0063016
0.00630058
0.00630117
0.00631204
0.00631218
0.00631204
0.00631309
0.00631269
0.00631254
0.00631275
0.00631275
0.00631301
0.00631277
0.00631225
0.00631287
0.00631393
0.0063139
0.00631406
0.006313
0.00631316
0.0063132
0.00631166
0.0063112
0.00631103
0.00631297
0.00631289
0.00631292
0.00631306
0.0063128
0.00631282
0.00631284
0.00631287
0.00631301
0.00631207
0.0063122
0.0063121
0.00630536
0.00630901
0.00630879
0.00631042
0.00631018
0.00630828
0.00631072
0.00631072
0.00631097
0.00630311
0.00629216
0.0062951
0.00626072
0.00626177
0.00628987
0.00629701
0.00629836
0.00630558
0.00631112
0.00631076
0.00631088
0.00630849
0.00630973
0.00630992
0.00631131
0.0063118
0.00631194
0.00631005
0.00631017
0.00630908
0.0063116
0.00631162
0.00631125
0.00630305
0.00630696
0.00630688
0.00630754
0.00630744
0.00630308
0.00630874
0.00630875
0.00630899
0.0062873
0.00625805
0.00625676
0.00627059
0.00626948
0.00629216
0.00628816
0.0062589
0.00625977
0.00625584
0.00625522
0.00628615
0.00630923
0.00630888
0.006309
0.00630589
0.00630586
0.00630132
0.0063097
0.00630969
0.00630935
0.00629045
0.00621255
0.00620043
0.0062599