/*--------------------------------*- C++ -*----------------------------------*\
| =========                 |                                                 |
| \\      /  F ield         | OpenFOAM: The Open Source CFD Toolbox           |
|  \\    /   O peration     | Version:  5.x                                   |
|   \\  /    A nd           | Web:      www.OpenFOAM.org                      |
|    \\/     M anipulation  |                                                 |
\*---------------------------------------------------------------------------*/
FoamFile
{
    version     2.0;
    format      ascii;
    class       volScalarField;
    location    "200";
    object      YSat;
}
// * * * * * * * * * * * * * * * * * * * * * * * * * * * * * * * * * * * * * //

dimensions      [0 0 0 0 0 0 0];

internalField   nonuniform List<scalar> 
6584
(
0.00431405
0.00431405
0.00431405
0.00431405
0.00431405
0.00431405
0.00431405
0.00431405
0.00431405
0.00431405
0.00431405
0.00431405
0.00431405
0.00431405
0.00431405
0.00431405
0.00431405
0.00431405
0.00431405
0.00431405
0.00431405
0.00431405
0.00431405
0.00431405
0.00431405
0.00431405
0.00431405
0.00431405
0.00431405
0.00431405
0.00431405
0.00431405
0.00431405
0.00431405
0.00431405
0.00431405
0.00431405
0.00431405
0.00431405
0.00431405
0.00431405
0.00431405
0.00431405
0.00431405
0.00431405
0.00431405
0.00431405
0.00431405
0.00431405
0.00431405
0.00431405
0.00431405
0.00431405
0.00431405
0.00431405
0.00431405
0.00431405
0.00431405
0.00431405
0.00431405
0.00431405
0.00431405
0.00431405
0.00431405
0.00431405
0.00431405
0.00431405
0.00431405
0.00431405
0.00431405
0.00431405
0.00431405
0.00431405
0.00431405
0.00431405
0.00431405
0.00431405
0.00431405
0.00431405
0.00431405
0.00431405
0.00431405
0.00431405
0.00431405
0.00431405
0.00431405
0.00431405
0.00431405
0.00431405
0.00431405
0.00431405
0.00431405
0.00431405
0.00431405
0.00431405
0.00431405
0.00431405
0.00431405
0.00431405
0.00431405
0.00431405
0.00431405
0.00431405
0.00431405
0.00431405
0.00431405
0.00431405
0.00431405
0.00431405
0.00431405
0.00431405
0.00431405
0.00431405
0.00431405
0.00431405
0.00431405
0.00431405
0.00431405
0.00431405
0.00431405
0.00431405
0.00431405
0.00431405
0.00431405
0.00431405
0.00431405
0.00431405
0.00431405
0.00431405
0.00431405
0.00431405
0.00431405
0.00431405
0.00431405
0.00431405
0.00431405
0.00431405
0.00431405
0.00431405
0.00431405
0.00431405
0.00431405
0.00431405
0.00431405
0.00431405
0.00431405
0.00431405
0.00431405
0.00431405
0.00431405
0.00431405
0.00431405
0.00431405
0.00431405
0.00431405
0.00431405
0.00431405
0.00431405
0.00431405
0.00431405
0.00431405
0.00431405
0.00431405
0.00431405
0.00431405
0.00431405
0.00431405
0.00431405
0.00431405
0.00431405
0.00431405
0.00431405
0.00431405
0.00431405
0.00431405
0.00431405
0.00431405
0.00431405
0.00431405
0.00431405
0.00431405
0.00431405
0.00431405
0.00431405
0.00431405
0.00431405
0.00431405
0.00431405
0.00431405
0.00431405
0.00431405
0.00431405
0.00431405
0.00431405
0.00431405
0.00431405
0.00431405
0.00431405
0.00431405
0.00431405
0.00431405
0.00431405
0.00431405
0.00431405
0.00431405
0.00431405
0.00431405
0.00431405
0.00431405
0.00431405
0.00431405
0.00431405
0.00431405
0.00431405
0.00431405
0.00431405
0.00431405
0.00431405
0.00431405
0.00431405
0.00431405
0.00431405
0.00431405
0.00431405
0.00431405
0.00431405
0.00431405
0.00431405
0.00431405
0.00431405
0.00431405
0.00431405
0.00431405
0.00431405
0.00431405
0.00431405
0.00431405
0.00431405
0.00431405
0.00431405
0.00431405
0.00431405
0.00431405
0.00431405
0.00431405
0.00431405
0.00431405
0.00431405
0.00431405
0.00431405
0.00431405
0.00431405
0.00431405
0.00431405
0.00431405
0.00431405
0.00431405
0.00431405
0.00431405
0.00431405
0.00431405
0.00431405
0.00431405
0.00431405
0.00431405
0.00431405
0.00431405
0.00431405
0.00431405
0.00431405
0.00431405
0.00431405
0.00431405
0.00431405
0.00431405
0.00431405
0.00431405
0.00431405
0.00431405
0.00431405
0.00431405
0.00431405
0.00431405
0.00431405
0.00431405
0.00431405
0.00431405
0.00431405
0.00431405
0.00431405
0.00431405
0.00431405
0.00431405
0.00431405
0.00431405
0.00431405
0.00431405
0.00431405
0.00431405
0.00431405
0.00431405
0.00431405
0.00431405
0.00431405
0.00431405
0.00431405
0.00431405
0.00431405
0.00431405
0.00431405
0.00431405
0.00431405
0.00431405
0.00431405
0.00431405
0.00431405
0.00431405
0.00431405
0.0035147
0.00431405
0.00431405
0.00431405
0.00431405
0.00431405
0.00431405
0.00431405
0.00431405
0.00431405
0.00431405
0.00431405
0.00431405
0.00431405
0.00431405
0.00431405
0.00431405
0.00431405
0.00431405
0.00431405
0.00431405
0.00431405
0.00431405
0.00431404
0.00409924
0.00431405
0.00431405
0.00431405
0.00431405
0.00431405
0.00431405
0.00431405
0.00431405
0.00431405
0.00431405
0.00431405
0.00431405
0.00431405
0.00431405
0.00431405
0.00431405
0.00431405
0.00431405
0.00431405
0.00431405
0.00431405
0.00431405
0.00431404
0.00411737
0.00431405
0.00431405
0.00431405
0.00431405
0.00431405
0.00431405
0.00431405
0.00431405
0.00431405
0.00431405
0.00431405
0.00431405
0.00431405
0.00431405
0.00431405
0.00431405
0.00431405
0.00431405
0.00431405
0.00431405
0.00431405
0.00431405
0.00431248
0.00422021
0.00431405
0.00431405
0.00431405
0.00431405
0.00431405
0.00431405
0.00431405
0.00431405
0.00431405
0.00431405
0.00431405
0.00431405
0.00431405
0.00431405
0.00431405
0.00431405
0.00431405
0.00431405
0.00431405
0.00431405
0.00431405
0.00431405
0.00431168
0.00422336
0.00431405
0.00431405
0.00431405
0.00431405
0.00431405
0.00431405
0.00431405
0.00431405
0.00431405
0.00431405
0.00431405
0.00431405
0.00431405
0.00431405
0.00431405
0.00431405
0.00431405
0.00431405
0.00431405
0.00431405
0.00431405
0.00431375
0.0042414
0.0042715
0.00431404
0.00431405
0.00431405
0.00431405
0.00431405
0.00431405
0.00431405
0.00431405
0.00431405
0.00431405
0.00431405
0.00431405
0.00431405
0.00431405
0.00431405
0.00431405
0.00431405
0.00431405
0.00431405
0.00431405
0.00431405
0.00431348
0.00424207
0.00427191
0.00431404
0.00431405
0.00431405
0.00431405
0.00431405
0.00431405
0.00431405
0.00431405
0.00431405
0.00431405
0.00431405
0.00431405
0.00431405
0.00431405
0.00431405
0.00431405
0.00431405
0.00431405
0.00431405
0.00431405
0.00431404
0.00431321
0.00424272
0.00427227
0.00431403
0.00431405
0.00431405
0.00431405
0.00431405
0.00431405
0.00431405
0.00431405
0.00431405
0.00431405
0.00431405
0.00431405
0.00431405
0.00431405
0.00431405
0.00431405
0.00431405
0.00431405
0.00431405
0.00431405
0.00431404
0.00431296
0.00424335
0.00427259
0.00431403
0.00431405
0.00431405
0.00431405
0.00431405
0.00431405
0.00431405
0.00431405
0.00431405
0.00431405
0.00431405
0.00431405
0.00431405
0.00431405
0.00431405
0.00431405
0.00431405
0.00431405
0.00431405
0.00431405
0.00431403
0.00431272
0.00424398
0.00427289
0.00431402
0.00431405
0.00431405
0.00431405
0.00431405
0.00431405
0.00431405
0.00431405
0.00431405
0.00431405
0.00431405
0.00431405
0.00431405
0.00431405
0.00431405
0.00431405
0.00431405
0.00431405
0.00431405
0.00431405
0.00431403
0.00431249
0.0042446
0.00427317
0.00431402
0.00431405
0.00431405
0.00431405
0.00431405
0.00431405
0.00431405
0.00431405
0.00431405
0.00431405
0.00431405
0.00431405
0.00431405
0.00431405
0.00431405
0.00431405
0.00431405
0.00431405
0.00431405
0.00431405
0.00431402
0.00431227
0.00424521
0.00427344
0.00431401
0.00431405
0.00431405
0.00431405
0.00431405
0.00431405
0.00431405
0.00431405
0.00431405
0.00431405
0.00431405
0.00431405
0.00431405
0.00431405
0.00431405
0.00431405
0.00431405
0.00431405
0.00431405
0.00431405
0.00431402
0.00431203
0.00424582
0.00427371
0.00431401
0.00431405
0.00431405
0.00431405
0.00431405
0.00431405
0.00431405
0.00431405
0.00431405
0.00431405
0.00431405
0.00431405
0.00431405
0.00431405
0.00431405
0.00431405
0.00431405
0.00431405
0.00431405
0.00431405
0.00431401
0.00431178
0.00424644
0.00427399
0.004314
0.00431405
0.00431405
0.00431405
0.00431405
0.00431405
0.00431405
0.00431405
0.00431405
0.00431405
0.00431405
0.00431405
0.00431405
0.00431405
0.00431405
0.00431405
0.00431405
0.00431405
0.00431405
0.00431405
0.004314
0.00431154
0.00424706
0.00427426
0.004314
0.00431405
0.00431405
0.00431405
0.00431405
0.00431405
0.00431405
0.00431405
0.00431405
0.00431405
0.00431405
0.00431405
0.00431405
0.00431405
0.00431405
0.00431405
0.00431405
0.00431405
0.00431405
0.00431405
0.00431399
0.00431132
0.00424767
0.00427453
0.00431399
0.00431405
0.00431405
0.00431405
0.00431405
0.00431405
0.00431405
0.00431405
0.00431405
0.00431405
0.00431405
0.00431405
0.00431405
0.00431405
0.00431405
0.00431405
0.00431405
0.00431405
0.00431405
0.00431405
0.00431398
0.0043111
0.00424827
0.0042748
0.00431399
0.00431405
0.00431405
0.00431405
0.00431405
0.00431405
0.00431405
0.00431405
0.00431405
0.00431405
0.00431405
0.00431405
0.00431405
0.00431405
0.00431405
0.00431405
0.00431405
0.00431405
0.00431405
0.00431405
0.00431397
0.00431089
0.00424888
0.00427506
0.00431398
0.00431405
0.00431405
0.00431405
0.00431405
0.00431405
0.00431405
0.00431405
0.00431405
0.00431405
0.00431405
0.00431405
0.00431405
0.00431405
0.00431405
0.00431405
0.00431405
0.00431405
0.00431405
0.00431405
0.00431396
0.00431069
0.00424947
0.00427532
0.00431398
0.00431405
0.00431405
0.00431405
0.00431405
0.00431405
0.00431405
0.00431405
0.00431405
0.00431405
0.00431405
0.00431405
0.00431405
0.00431405
0.00431405
0.00431405
0.00431405
0.00431405
0.00431405
0.00431405
0.00431394
0.00431049
0.00425007
0.00427558
0.00431398
0.00431405
0.00431405
0.00431405
0.00431405
0.00431405
0.00431405
0.00431405
0.00431405
0.00431405
0.00431405
0.00431405
0.00431405
0.00431405
0.00431405
0.00431405
0.00431405
0.00431405
0.00431405
0.00431405
0.00431393
0.0043103
0.00425066
0.00427584
0.00431397
0.00431405
0.00431405
0.00431405
0.00431405
0.00431405
0.00431405
0.00431405
0.00431405
0.00431405
0.00431405
0.00431405
0.00431405
0.00431405
0.00431405
0.00431405
0.00431405
0.00431405
0.00431405
0.00431405
0.00431392
0.00431011
0.00425124
0.0042761
0.00431397
0.00431405
0.00431405
0.00431405
0.00431405
0.00431405
0.00431405
0.00431405
0.00431405
0.00431405
0.00431405
0.00431405
0.00431405
0.00431405
0.00431405
0.00431405
0.00431405
0.00431405
0.00431405
0.00431405
0.0043139
0.00430992
0.00425183
0.00427636
0.00431396
0.00431405
0.00431405
0.00431405
0.00431405
0.00431405
0.00431405
0.00431405
0.00431405
0.00431405
0.00431405
0.00431405
0.00431405
0.00431405
0.00431405
0.00431405
0.00431405
0.00431405
0.00431405
0.00431405
0.00431405
0.00431405
0.00431405
0.00431405
0.00431405
0.00431405
0.00431405
0.00360766
0.00348769
0.00431405
0.00431405
0.00431405
0.00431405
0.00431405
0.00431405
0.00431405
0.00431405
0.00431405
0.00431404
0.00431405
0.00431405
0.00431405
0.00431405
0.00431405
0.00431405
0.00431405
0.00431405
0.00431294
0.00431382
0.00431117
0.00431366
0.00431405
0.00431405
0.00431405
0.00431405
0.00431405
0.00431405
0.00431405
0.0043102
0.0043104
0.00428054
0.00429663
0.00431405
0.00431405
0.00431405
0.00431405
0.00431405
0.00431405
0.00431405
0.00431174
0.00431099
0.00430411
0.00428939
0.00431405
0.00431405
0.00431405
0.00431209
0.00431152
0.00431405
0.00431405
0.00431405
0.00431358
0.00431321
0.00431404
0.00382467
0.00360862
0.00392305
0.00431405
0.00431405
0.0043139
0.00431405
0.00431405
0.00431404
0.00431341
0.00431405
0.00431404
0.00431374
0.00431404
0.00431405
0.00431405
0.00431393
0.00431058
0.00431268
0.00431405
0.00430944
0.00430041
0.00431312
0.00430993
0.00429771
0.00431105
0.00431405
0.00431253
0.00430928
0.0043139
0.0043126
0.00431405
0.00431088
0.00431026
0.00431405
0.0043007
0.00430542
0.00430013
0.00430041
0.00428885
0.00427961
0.00431405
0.00430808
0.00430931
0.00430923
0.00430815
0.00431405
0.00430534
0.00430838
0.00430572
0.00430482
0.00431132
0.00430499
0.00431405
0.00431174
0.00431319
0.00430938
0.00431159
0.00431405
0.00431091
0.00431203
0.00430874
0.00431069
0.00431313
0.00431227
0.00431325
0.00431359
0.00431405
0.00431288
0.00431251
0.00431216
0.00431282
0.00431375
0.00431362
0.00431405
0.00431405
0.00431405
0.00431395
0.00431405
0.00431405
0.00431405
0.00431405
0.00431405
0.00431306
0.00431258
0.00427909
0.00425714
0.00431405
0.00431405
0.00431405
0.00431405
0.00431396
0.00431405
0.00431405
0.00431405
0.0043125
0.00431184
0.00431405
0.00354909
0.0036909
0.00412306
0.00418434
0.00370004
0.00386403
0.00425291
0.00421351
0.00431405
0.00431363
0.00431381
0.00419135
0.00422702
0.00431383
0.00431391
0.00431405
0.00431405
0.00431405
0.00431405
0.00431405
0.00431405
0.00431405
0.0043139
0.00431405
0.00431398
0.00431405
0.004314
0.00431405
0.00431208
0.00431272
0.00428965
0.00429048
0.00429896
0.00429725
0.00431144
0.00420871
0.00431252
0.00429495
0.00428152
0.00428045
0.00429369
0.0043134
0.0042974
0.00431397
0.00426589
0.00430833
0.00425683
0.00431389
0.00430955
0.00431395
0.00431405
0.00431369
0.00430191
0.00431398
0.004314
0.00430398
0.00430341
0.00431226
0.00431203
0.00430331
0.00430404
0.00430952
0.00431401
0.00431403
0.00431399
0.00431401
0.00430949
0.00431343
0.00431404
0.00431405
0.00431403
0.00431404
0.00431322
0.00430309
0.00430337
0.00429932
0.00429934
0.00426855
0.00427011
0.00430741
0.00431399
0.00431399
0.004314
0.00431399
0.00430738
0.00430885
0.00431399
0.00431399
0.00431399
0.00431399
0.00430879
0.00356466
0.00430678
0.00373065
0.00358169
0.00390315
0.00374125
0.0043072
0.00430256
0.00359819
0.00430314
0.00430932
0.00430888
0.0043104
0.004314
0.004314
0.00431401
0.00431401
0.00431063
0.00402234
0.0041099
0.00430968
0.00403758
0.00391524
0.00413728
0.00405119
0.00430996
0.00388046
0.00400826
0.00431283
0.00425435
0.00427788
0.00421405
0.00424971
0.00431271
0.00420406
0.00423046
0.00424204
0.00376185
0.00423102
0.00422584
0.00370107
0.00429652
0.00429618
0.00431403
0.00431405
0.00431405
0.00431405
0.00431405
0.00431372
0.00431366
0.0038723
0.00431274
0.00431341
0.00431404
0.00431342
0.00431311
0.00431405
0.0036708
0.00370209
0.0035016
0.00423182
0.00423364
0.00372993
0.00378251
0.00429154
0.00429662
0.00315106
0.00431405
0.00431405
0.00431405
0.00431405
0.00431405
0.00431405
0.00431344
0.00431404
0.00431403
0.00431126
0.00431023
0.00431325
0.00431012
0.00431398
0.00431399
0.00431399
0.00431398
0.00431014
0.00428478
0.00429417
0.0043019
0.00429072
0.00415936
0.00412557
0.00431345
0.00429507
0.00430306
0.00431097
0.00431117
0.00380686
0.00431405
0.00431402
0.00431405
0.00431385
0.00431183
0.00431068
0.00431404
0.00431405
0.00431405
0.00431405
0.00431405
0.00431403
0.00431135
0.00431401
0.00431399
0.00431403
0.00431401
0.00431165
0.00430699
0.00419752
0.00426422
0.00415962
0.00416637
0.0043015
0.00427079
0.00427757
0.00431096
0.00430006
0.00430641
0.0043108
0.00431377
0.00431379
0.00431356
0.0043136
0.00430938
0.00431399
0.00431399
0.0043105
0.00430187
0.00418307
0.00415261
0.00429953
0.00415328
0.00415844
0.00414605
0.00414227
0.00429973
0.00428092
0.00427399
0.00430768
0.00431353
0.00431352
0.00431345
0.00431364
0.00430857
0.00430909
0.00431352
0.00431354
0.00431351
0.0043135
0.00430845
0.00431058
0.0042696
0.00427888
0.00425686
0.00425138
0.00430688
0.00431289
0.00431402
0.00431401
0.00431402
0.00431402
0.00431297
0.00431146
0.00420053
0.00414675
0.00424727
0.00423309
0.00431162
0.00395981
0.00398977
0.00431249
0.00426249
0.00425153
0.00391827
0.00395008
0.00419915
0.00416821
0.00431403
0.00431404
0.00431404
0.00411801
0.00427102
0.00413381
0.0041523
0.00414317
0.00426815
0.00431405
0.004314
0.00431405
0.00431386
0.00431404
0.00356692
0.00361273
0.00367357
0.00367117
0.00415295
0.00376396
0.00373345
0.00382454
0.00377322
0.00416099
0.00374579
0.00377705
0.00423822
0.00423167
0.0042091
0.00390115
0.00384968
0.00379028
0.00382374
0.00431378
0.00431403
0.00431404
0.00431394
0.00431402
0.00431368
0.00431131
0.00431318
0.00428566
0.0042933
0.00430137
0.00429161
0.00421453
0.00428446
0.00427766
0.00429168
0.0042866
0.00421348
0.00426229
0.00425581
0.00427553
0.00426586
0.00429033
0.0042027
0.00422285
0.00416614
0.00419299
0.00428836
0.00410792
0.00411214
0.00428655
0.00431254
0.00431114
0.00431378
0.00431294
0.00429198
0.00430198
0.00429901
0.00431001
0.00430329
0.00431319
0.00431402
0.00431388
0.00431263
0.00431155
0.0043133
0.00431209
0.00431388
0.00431239
0.00431361
0.0043139
0.00431265
0.00431349
0.00431403
0.00431378
0.00431339
0.00417756
0.00418787
0.00430607
0.00408081
0.00403322
0.00420753
0.00409068
0.00396999
0.00393438
0.004019
0.00398742
0.00430194
0.00416929
0.0041752
0.004261
0.0042486
0.00429747
0.00427201
0.00423494
0.00422176
0.00424658
0.00423827
0.00431125
0.0042791
0.00428332
0.00430085
0.00430601
0.00431368
0.00431375
0.00431007
0.00430941
0.00431361
0.00431366
0.0041954
0.00418882
0.00430222
0.0039835
0.0039937
0.00383427
0.00396363
0.0039938
0.00403787
0.00399313
0.00399221
0.004149
0.00415218
0.00429941
0.00389171
0.00387151
0.00392817
0.00389855
0.00383553
0.00382184
0.00386324
0.00384711
0.00429965
0.00414448
0.00414752
0.00427542
0.0042728
0.00431357
0.00431354
0.0043076
0.0043081
0.00431362
0.00431358
0.0043135
0.00431351
0.00430903
0.00430853
0.0043135
0.0043135
0.00359388
0.00364785
0.0042173
0.00423404
0.00419359
0.00421104
0.00359773
0.00383957
0.00425546
0.00422722
0.00423854
0.00425149
0.00380632
0.00410704
0.00412111
0.0040619
0.00410177
0.0036486
0.00416892
0.00418846
0.00412781
0.00415887
0.0036504
0.00426149
0.00426732
0.00431031
0.00423758
0.0042485
0.00425283
0.00423731
0.00424829
0.00430736
0.00424799
0.00425663
0.00405886
0.00361341
0.00361253
0.00371447
0.00362568
0.00407154
0.00367222
0.0039287
0.00361397
0.0039497
0.00423247
0.00429745
0.00429325
0.00430241
0.00429886
0.00423572
0.00418784
0.0041925
0.00400183
0.00403112
0.00384434
0.00390524
0.0042216
0.00420645
0.00431405
0.00431405
0.00431405
0.00431405
0.00431397
0.00431398
0.00431405
0.00431405
0.00431405
0.00431404
0.00431405
0.00431405
0.00431405
0.00431405
0.00431405
0.00431405
0.00431404
0.00431356
0.0043112
0.00430658
0.00430595
0.00428154
0.00429579
0.004314
0.004314
0.00431131
0.00427039
0.00426751
0.00428978
0.00428096
0.00428583
0.00431202
0.00431401
0.00431405
0.00431405
0.00430743
0.00430935
0.00431361
0.00431398
0.00431385
0.00431404
0.00431299
0.00429765
0.00430655
0.00429849
0.00430529
0.00430459
0.00431064
0.00431179
0.00431181
0.00430932
0.00431384
0.00431387
0.00431273
0.00431058
0.00431399
0.00431399
0.00421524
0.00420312
0.00430449
0.00428783
0.00427428
0.0042731
0.00427869
0.004308
0.0043117
0.00431169
0.00430919
0.00431175
0.00431177
0.00431168
0.00431168
0.00430823
0.00430145
0.00423277
0.00422085
0.00430957
0.0043135
0.00431348
0.00431342
0.00431403
0.00431403
0.00375148
0.0037558
0.00427391
0.0042657
0.00431258
0.00374336
0.00374745
0.00430391
0.00430586
0.0043137
0.00431397
0.00431391
0.00353855
0.0035412
0.00355471
0.00367842
0.00370979
0.00351503
0.0035274
0.00366402
0.00363978
0.00384201
0.00418502
0.00417971
0.00421964
0.00394785
0.00391169
0.00421399
0.00431405
0.00431405
0.00431405
0.00431375
0.00431389
0.00431399
0.00431402
0.00431352
0.00431362
0.00431405
0.00431405
0.00431404
0.0043096
0.00430929
0.00431164
0.00431299
0.00431191
0.00431135
0.00428772
0.00429132
0.00427732
0.00427945
0.00430008
0.00429512
0.00426813
0.00427297
0.00422051
0.00422089
0.00424693
0.0042434
0.00420791
0.00422249
0.00422447
0.00431216
0.00428777
0.00429309
0.00429331
0.00427586
0.00430043
0.00429759
0.00431184
0.00431069
0.00430566
0.00422763
0.00421721
0.00429029
0.00426966
0.00424039
0.00431404
0.00431403
0.00431357
0.0043134
0.00431217
0.00431278
0.00430544
0.0043129
0.00431332
0.00428472
0.00429256
0.00431285
0.00420364
0.0041914
0.00430258
0.00430476
0.00431397
0.00431399
0.00431367
0.00431278
0.0043139
0.00431394
0.00430421
0.00420112
0.00419673
0.00426869
0.00427099
0.00431169
0.0043117
0.00430891
0.00430868
0.00431168
0.00431169
0.00358071
0.00371763
0.00394482
0.00395839
0.00380531
0.00381734
0.00356757
0.00424213
0.00423522
0.00430201
0.00364895
0.00363149
0.00374805
0.00374911
0.00361583
0.00379022
0.0037974
0.00362039
0.00362743
0.00431356
0.00431353
0.0043097
0.00431107
0.00431361
0.00431358
0.00397968
0.00424469
0.0042501
0.00423315
0.00423894
0.00395905
0.00426523
0.00430086
0.00430338
0.00430332
0.00430215
0.00426884
0.00422154
0.00425606
0.00425139
0.00419382
0.00418652
0.00420121
0.00381175
0.00382406
0.00383223
0.00372774
0.00424159
0.0040116
0.00396414
0.00405492
0.00402378
0.00422083
0.00411105
0.00411422
0.0042283
0.00424469
0.00429916
0.00431403
0.00431403
0.00431399
0.00367304
0.00368192
0.00400491
0.00400743
0.00346731
0.00375715
0.00371006
0.00370883
0.00369931
0.00370566
0.00377272
0.00316349
0.00421094
0.00422173
0.00431405
0.00431405
0.00431405
0.00430777
0.00430719
0.00431123
0.00430908
0.00431102
0.00431233
0.00431042
0.00431078
0.00428338
0.00429497
0.00425529
0.00425869
0.00425904
0.00425519
0.00429017
0.00426538
0.00426407
0.00415146
0.00410769
0.00410739
0.00411181
0.00411212
0.00414167
0.00431152
0.00431293
0.00431299
0.00431274
0.00431288
0.00431117
0.00429926
0.00430949
0.0043038
0.00430181
0.00430935
0.00431182
0.00431185
0.00427409
0.00427495
0.00428565
0.00427588
0.00431172
0.00431171
0.00430782
0.00431173
0.00431174
0.00430914
0.00430836
0.00431168
0.00431168
0.00425716
0.00426905
0.0042643
0.00427299
0.00427152
0.004256
0.00376055
0.00376769
0.0037379
0.00373995
0.00392947
0.00381548
0.00380472
0.0041211
0.00412012
0.00418973
0.00413432
0.00414719
0.00411115
0.00412089
0.00417884
0.004314
0.00431399
0.00431402
0.00431397
0.00431403
0.00431404
0.00431405
0.00431401
0.00431403
0.00431401
0.00413077
0.00420725
0.00420183
0.00422144
0.00421413
0.00413712
0.00416096
0.00418206
0.00417176
0.00419725
0.00419155
0.00415356
0.00431402
0.00431404
0.00431403
0.00431351
0.00431308
0.00431396
0.00431388
0.00353991
0.00365597
0.00356491
0.00356452
0.0036731
0.00367213
0.00386287
0.00387796
0.00374571
0.00351676
0.00350798
0.00372365
0.00356743
0.0035637
0.00356234
0.00381179
0.00359556
0.00354891
0.00419285
0.00420249
0.00424398
0.00417019
0.00417169
0.00416626
0.00416663
0.00422526
0.00417805
0.0041827
0.00379831
0.00368801
0.00369305
0.00369421
0.003687
0.00380865
0.00431393
0.00431396
0.00431384
0.0043134
0.00431369
0.00431389
0.00430696
0.00431142
0.00430886
0.00430833
0.00430953
0.00430999
0.00430844
0.00430902
0.00428658
0.0042922
0.00426301
0.0042641
0.00426012
0.00426162
0.00430081
0.00428056
0.00428133
0.0042636
0.00426499
0.00429308
0.00426399
0.00423017
0.0042233
0.00421044
0.00424037
0.00423656
0.00425963
0.00422592
0.00422545
0.00423603
0.00423012
0.00425772
0.00427301
0.00424335
0.00424711
0.00422986
0.00423691
0.0042697
0.0042247
0.00417515
0.00423327
0.00422798
0.00410054
0.00410342
0.0042838
0.00430282
0.00430164
0.0042812
0.00429662
0.00430755
0.00430472
0.00424484
0.00423565
0.00428029
0.00428226
0.00430007
0.00426478
0.0042549
0.00430888
0.00431044
0.00431304
0.00431139
0.00430694
0.00430052
0.00430652
0.0043131
0.00431359
0.00431369
0.0043131
0.00431331
0.00431227
0.00431103
0.00431207
0.00431369
0.00431329
0.00431312
0.00431372
0.00431339
0.00431379
0.00431285
0.0043129
0.00431232
0.00431302
0.0040685
0.00404969
0.00417438
0.00402727
0.00404396
0.00399276
0.00409958
0.00395535
0.00394348
0.00400707
0.00399751
0.00425451
0.00419319
0.00420691
0.00416643
0.00417925
0.00425098
0.00429451
0.00427022
0.00427698
0.00421479
0.00425409
0.00428739
0.00418022
0.00415895
0.00423156
0.00408386
0.00409665
0.00406236
0.00407293
0.00422773
0.00424452
0.00414558
0.00415523
0.00411119
0.00412752
0.00424154
0.00430184
0.00430544
0.00399182
0.0038535
0.00387284
0.0038118
0.00383144
0.00399385
0.00386955
0.00388019
0.00387726
0.00391948
0.0040013
0.00370792
0.00372579
0.00374525
0.00371193
0.00401592
0.00399266
0.00377873
0.00379439
0.00374778
0.00376499
0.00399245
0.00388807
0.00388317
0.0039222
0.00390869
0.00382635
0.00381971
0.00385824
0.00385627
0.00427103
0.00427186
0.00430897
0.00431171
0.00431172
0.00431168
0.00431168
0.0043086
0.00359318
0.00389865
0.00392587
0.00369415
0.00356838
0.00383736
0.0038665
0.0036884
0.00366783
0.00411143
0.00387784
0.00387686
0.00408159
0.00384319
0.00379656
0.0038741
0.00386479
0.00409417
0.00373603
0.00371092
0.00375589
0.0037787
0.0036341
0.0036572
0.00370882
0.00426408
0.00428672
0.00428489
0.00428943
0.00428811
0.0042657
0.00424123
0.00424644
0.00424735
0.00423753
0.00423773
0.00424137
0.00424768
0.0042765
0.00427444
0.00428233
0.00427931
0.00425135
0.00361055
0.00372375
0.00373832
0.00370057
0.00371215
0.00361099
0.00368275
0.00381621
0.00384286
0.00375877
0.00378615
0.00365109
0.00366576
0.00355165
0.00356203
0.00355725
0.00355276
0.00361376
0.00366504
0.00368654
0.00358995
0.0036279
0.0036071
0.00426323
0.00426011
0.0042284
0.00418773
0.00419803
0.00378129
0.0038024
0.00386751
0.00374448
0.0037152
0.00379196
0.0037738
0.00388869
0.00373412
0.00373648
0.00411494
0.00411499
0.00431405
0.00431405
0.00431405
0.00431405
0.00431405
0.00431405
0.00431405
0.00431405
0.00431405
0.00431405
0.00431405
0.00431405
0.00431405
0.00431405
0.00431405
0.00431405
0.00431405
0.00431405
0.00431405
0.00431405
0.00431405
0.00431405
0.00431405
0.00431405
0.00431405
0.00431405
0.00431405
0.00431405
0.00431405
0.00431405
0.00431405
0.00431405
0.00431405
0.00431405
0.00431405
0.00431405
0.00431405
0.00431405
0.00431405
0.00431405
0.00431405
0.00431405
0.00431405
0.00431405
0.00431405
0.00431405
0.00431405
0.00431405
0.00431405
0.00431405
0.00431405
0.00431405
0.00431405
0.00431405
0.00431405
0.00431405
0.00431405
0.00431405
0.00431405
0.00431405
0.00431405
0.00431405
0.00431405
0.00431405
0.00431405
0.00431405
0.00431405
0.00431405
0.00431405
0.00431405
0.00431405
0.00431405
0.00431405
0.00431405
0.00431405
0.00431405
0.00431405
0.00431405
0.00431405
0.00431405
0.00431405
0.00431405
0.00431405
0.00431405
0.00431405
0.00431404
0.00431404
0.00431405
0.00431405
0.00431405
0.00431405
0.00431405
0.00431405
0.00431405
0.00431405
0.00431405
0.00431405
0.00431405
0.00431405
0.00431405
0.00431404
0.00431404
0.00431405
0.00431405
0.00431405
0.00431405
0.00431405
0.00431405
0.00431405
0.00431405
0.00431405
0.00431405
0.00431404
0.00431404
0.00431405
0.00431405
0.00431405
0.00431405
0.00431405
0.00431405
0.00431405
0.00431405
0.00431405
0.00431405
0.00431405
0.00431405
0.00431405
0.00431405
0.00431405
0.00431405
0.00431405
0.00431405
0.00431405
0.00431405
0.00431405
0.00431405
0.00431368
0.00431366
0.00360021
0.00428055
0.00428332
0.00431405
0.00431405
0.00431405
0.00431405
0.00431405
0.00431405
0.00431405
0.00431405
0.00431405
0.00431405
0.00431405
0.00431405
0.00431404
0.00401768
0.00400797
0.00411336
0.00431405
0.00431405
0.00431405
0.00431405
0.00431405
0.00431405
0.00431405
0.00431405
0.00431405
0.00431405
0.00431405
0.00431309
0.00415964
0.00402073
0.00421858
0.00431399
0.00431405
0.00431405
0.00431405
0.00431405
0.00431405
0.00431405
0.00431405
0.00431405
0.00431405
0.00431405
0.00431405
0.00431405
0.00431405
0.00431404
0.00431404
0.00431405
0.00431405
0.00431404
0.00431403
0.00431405
0.00431405
0.00431405
0.00431404
0.00431404
0.00431405
0.00431405
0.00431403
0.00431403
0.00431403
0.00431403
0.00431405
0.00431404
0.00431404
0.00431405
0.00431405
0.00431404
0.00431404
0.00431403
0.00431403
0.00431405
0.00431405
0.00431405
0.00431405
0.00431404
0.00431404
0.00431405
0.00431365
0.00431374
0.00431405
0.00346392
0.00395939
0.0039646
0.00404595
0.00404605
0.00316991
0.00431405
0.00431405
0.00431405
0.00431405
0.00431405
0.00431405
0.00431405
0.00431405
0.00431404
0.00431405
0.00431405
0.00431405
0.00431405
0.00431405
0.00431405
0.00431405
0.00431405
0.00431405
0.00431405
0.00431405
0.00431405
0.00431405
0.00431405
0.00431405
0.00431405
0.00431405
0.00431405
0.00431405
0.00431405
0.00431405
0.00431404
0.004314
0.00431405
0.00431405
0.00431405
0.00431405
0.00431405
0.00431405
0.00431405
0.00431405
0.00431405
0.00431405
0.00431405
0.00431405
0.00431405
0.00431405
0.00431405
0.00431405
0.00431405
0.00431405
0.00431405
0.00431405
0.00431405
0.00431405
0.00431405
0.00431405
0.00431313
0.0043138
0.00431374
0.004314
0.00431398
0.00431375
0.00431323
0.00431277
0.00431352
0.00431405
0.00431405
0.00431405
0.00431405
0.00431405
0.00431405
0.00431405
0.00431405
0.00431405
0.00431405
0.00431405
0.00431405
0.00431405
0.00431405
0.00431405
0.00431405
0.00431405
0.00431405
0.00431404
0.00431404
0.00431405
0.00431015
0.00431305
0.00431306
0.00431312
0.00431308
0.00431027
0.00431405
0.00431405
0.00431405
0.00431405
0.00431405
0.00431405
0.00431405
0.00431405
0.00431405
0.00431405
0.00431405
0.00431405
0.00431405
0.00431405
0.00431405
0.00431405
0.00431405
0.00431405
0.00431404
0.00431404
0.00431405
0.00431141
0.004314
0.00431401
0.00431324
0.00431326
0.0043111
0.00430324
0.00428483
0.00428724
0.00431405
0.00431405
0.00431405
0.00431405
0.00431405
0.00431405
0.00431405
0.00431405
0.00431405
0.00431189
0.00429964
0.00430263
0.00430673
0.00430726
0.0043117
0.00431405
0.00431405
0.00431405
0.00431405
0.00431405
0.00431405
0.00431405
0.00431405
0.00431405
0.00431354
0.00431232
0.00431246
0.00431106
0.00431133
0.00431328
0.00431384
0.00431369
0.00431404
0.00381122
0.00431121
0.0043113
0.00423544
0.00423973
0.00361654
0.00431294
0.00431279
0.00388641
0.00431405
0.00431393
0.00431399
0.00431398
0.00431393
0.00431405
0.00431395
0.00431403
0.00431401
0.00431405
0.00431405
0.00431403
0.00431405
0.00431405
0.00431405
0.00431403
0.00431371
0.00431398
0.00431405
0.00431405
0.00431405
0.00431402
0.00431404
0.00431405
0.00431378
0.00431348
0.0043134
0.00431404
0.00431403
0.00431404
0.00431405
0.00431405
0.00431405
0.00431405
0.00431405
0.00431405
0.00431403
0.00431403
0.00431399
0.00431081
0.00431323
0.00431317
0.00431368
0.0043136
0.00431233
0.00431405
0.00431404
0.00431405
0.00430879
0.0043014
0.00430334
0.00428188
0.0042824
0.00430073
0.00430458
0.00430545
0.00431032
0.00431404
0.00431404
0.00431405
0.00431235
0.0043132
0.00431329
0.00431373
0.00431401
0.00431402
0.00431334
0.00431338
0.00431265
0.00431405
0.00431405
0.00431404
0.00431078
0.00431319
0.00431321
0.00431307
0.00431309
0.00431034
0.00431405
0.00431404
0.00431404
0.00430111
0.00428433
0.00428335
0.00429413
0.00429336
0.0043051
0.0042999
0.00428107
0.00428144
0.00428256
0.00428195
0.0043001
0.00431403
0.00431403
0.00431405
0.00431237
0.00431231