/*--------------------------------*- C++ -*----------------------------------*\
| =========                 |                                                 |
| \\      /  F ield         | OpenFOAM: The Open Source CFD Toolbox           |
|  \\    /   O peration     | Version:  5.x                                   |
|   \\  /    A nd           | Web:      www.OpenFOAM.org                      |
|    \\/     M anipulation  |                                                 |
\*---------------------------------------------------------------------------*/
FoamFile
{
    version     2.0;
    format      ascii;
    class       volScalarField;
    location    "2287";
    object      alphat;
}
// * * * * * * * * * * * * * * * * * * * * * * * * * * * * * * * * * * * * * //

dimensions      [0 2 -1 0 0 0 0];

internalField   nonuniform List<scalar> 
6584
(
0.0999703
0.0999703
0.0999704
0.0999706
0.0999708
0.0999713
0.0999732
0.099978
0.0999887
0.100007
0.10003
0.100055
0.100069
0.100066
0.100049
0.100025
0.100003
0.0999872
0.0999781
0.0999735
0.0999711
0.09997
0.0999696
0.0999693
0.0994237
0.0994246
0.0994246
0.0994247
0.0994253
0.0994271
0.0994316
0.0994416
0.0994608
0.0994985
0.0995362
0.0995707
0.0995927
0.0995945
0.0995771
0.0995376
0.0994992
0.0994685
0.0994479
0.0994359
0.0994293
0.0994259
0.0994246
0.099423
0.0989077
0.0989081
0.0989083
0.0989081
0.0989091
0.0989129
0.0989213
0.0989403
0.0989832
0.0991911
0.0992996
0.0993539
0.0993886
0.0993968
0.0993759
0.0991538
0.0990662
0.0990045
0.0989623
0.0989359
0.0989211
0.0989135
0.0989091
0.0989065
0.0984192
0.0984196
0.0984196
0.0984202
0.0984218
0.0984281
0.0984438
0.0984795
0.0985539
0.0987676
0.098956
0.099091
0.0991805
0.0991928
0.0991345
0.0990083
0.0987345
0.0986096
0.0985297
0.0984784
0.0984485
0.0984317
0.0984228
0.0984179
0.0979564
0.0979571
0.097957
0.097958
0.0979617
0.0979719
0.0979995
0.0980737
0.0982873
0.0985096
0.0988476
0.0991673
0.0993756
0.0993375
0.0991886
0.0989324
0.0986391
0.0983068
0.0981597
0.0980689
0.0980135
0.0979821
0.0979652
0.0979557
0.0975174
0.097519
0.0975191
0.0975209
0.0975273
0.0975447
0.0975981
0.0978116
0.0979991
0.0984088
0.0989428
0.100019
0.101013
0.100529
0.0997713
0.0992016
0.0986563
0.0981024
0.0978601
0.0977117
0.0976194
0.0975658
0.0975365
0.0975192
0.0971008
0.0971038
0.0971047
0.0971082
0.0971182
0.097145
0.0972196
0.09745
0.0977955
0.098553
0.100043
0.104456
0.115888
0.108249
0.10227
0.100023
0.0989626
0.098042
0.0976462
0.0974127
0.0972692
0.0971844
0.0971373
0.0971083
0.0967052
0.0967101
0.0967123
0.0967184
0.0967328
0.0967698
0.0968656
0.097134
0.097643
0.0988903
0.102749
0.129484
0.105094
0.108595
0.101869
0.0996242
0.0981436
0.0975288
0.0971758
0.0969648
0.0968392
0.0967683
0.0967231
0.0963291
0.0963361
0.0963402
0.0963494
0.0963688
0.0964154
0.0965292
0.09684
0.097488
0.0991729
0.105554
0.125345
0.0577981
0.105884
0.104048
0.100589
0.0983831
0.0975036
0.0970005
0.0967059
0.0965299
0.0964294
0.0963636
0.0959709
0.0959799
0.095986
0.0959985
0.0960226
0.0960772
0.0962042
0.0965457
0.0972877
0.0992062
0.106962
0.107192
0.0473351
0.0936488
0.104897
0.101595
0.0987095
0.0975517
0.0968811
0.0964897
0.0962549
0.0961196
0.0960291
0.0956288
0.0956396
0.0956476
0.0956633
0.0956912
0.095752
0.0958865
0.0962429
0.0970327
0.0990082
0.106826
0.0970559
0.0439529
0.0839537
0.103985
0.102345
0.0990616
0.0976476
0.096807
0.0963118
0.0960115
0.0958368
0.0957183
0.0953015
0.0953136
0.0953234
0.0953417
0.0953727
0.0954373
0.0955748
0.0959327
0.0967357
0.0986729
0.105822
0.0930188
0.043302
0.0772719
0.10177
0.102653
0.0993851
0.0977676
0.0967675
0.0961658
0.0957965
0.0955782
0.0954295
0.0949876
0.0950004
0.0950116
0.0950322
0.0950653
0.0951315
0.0952684
0.0956194
0.0964115
0.0982676
0.104561
0.0919717
0.0440599
0.072063
0.0986569
0.102423
0.0996348
0.0978912
0.0967528
0.0960462
0.0956054
0.0953406
0.0951605
0.0946858
0.0946988
0.0947111
0.0947331
0.0947676
0.0948335
0.0949647
0.0953359
0.0960235
0.0978291
0.103188
0.0919928
0.00458042
0.0470554
0.0675641
0.0948089
0.101575
0.0997618
0.0979988
0.0967539
0.0959481
0.0954353
0.0951221
0.0949095
0.094395
0.0944077
0.0944207
0.0944436
0.0944788
0.0945432
0.0946674
0.0950205
0.0956334
0.0973869
0.101839
0.0898111
0.015693
0.0512642
0.066408
0.0901126
0.0998473
0.0995166
0.0980275
0.0967495
0.095863
0.0952841
0.0949209
0.0946751
0.0941144
0.0941265
0.0941398
0.0941631
0.0941983
0.0942605
0.0943775
0.0947098
0.0952702
0.0969084
0.100977
0.0906411
0.0230126
0.0519485
0.0628983
0.0850835
0.0980824
0.0989787
0.0979536
0.0967309
0.0957898
0.0951464
0.0947331
0.094455
0.0938433
0.0938545
0.0938678
0.0938912
0.0939259
0.0939852
0.0940959
0.0944053
0.0950668
0.0963641
0.0998313
0.0849993
0.0297335
0.0474181
0.0602461
0.0800871
0.0957173
0.0980826
0.0977274
0.0966741
0.0957205
0.0950244
0.0945605
0.094249
0.0935809
0.0935912
0.0936043
0.0936273
0.0936612
0.0937175
0.0938226
0.0941093
0.0947355
0.0963893
0.0986842
0.0856313
0.03472
0.0433185
0.0605046
0.0766748
0.0912171
0.096468
0.0972481
0.0965437
0.095642
0.0949124
0.0944021
0.0940573
0.0933269
0.0933361
0.0933489
0.0933713
0.0934043
0.093458
0.0935578
0.0938222
0.0944109
0.0958867
0.0962942
0.0726465
0.0386191
0.0440046
0.0576274
0.0725533
0.086895
0.0942918
0.0964505
0.0962961
0.0955366
0.0948047
0.0942563
0.0938795
0.0930806
0.0930888
0.0931012
0.0931229
0.0931549
0.0932062
0.0933008
0.0935442
0.0940946
0.0954091
0.0954737
0.0741369
0.0413458
0.043032
0.055015
0.0689595
0.0828536
0.0917271
0.095312
0.0958889
0.0953811
0.0946928
0.0941208
0.093715
0.0928416
0.092849
0.0928608
0.0928817
0.0929126
0.0929618
0.0930511
0.0932751
0.0937873
0.094957
0.0947888
0.0756046
0.0442679
0.0427468
0.0527462
0.0657679
0.0791273
0.0889363
0.0938495
0.0952887
0.0951496
0.0945641
0.093991
0.0935626
0.0926097
0.0926162
0.0926274
0.0926474
0.0926771
0.0927242
0.0928086
0.0930147
0.0934897
0.0945299
0.0942111
0.0770288
0.0472956
0.0430301
0.0508792
0.0629109
0.0757059
0.0860495
0.0921077
0.094476
0.0948165
0.0944034
0.0938605
0.0934199
0.0923843
0.0923901
0.0924007
0.0924196
0.0924483
0.0924933
0.0925729
0.0927627
0.0932015
0.0941268
0.093718
0.0783887
0.0503586
0.04378
0.0494412
0.0603586
0.072564
0.0831585
0.090145
0.0934471
0.0943594
0.0941941
0.0937209
0.0932837
0.0921652
0.0921703
0.0921803
0.0921983
0.0922257
0.0922686
0.0923437
0.0925186
0.0929229
0.0937467
0.0932916
0.0796663
0.0534007
0.044908
0.0484355
0.058105
0.0696778
0.0803236
0.0880239
0.0922121
0.0937615
0.0939187
0.0935618
0.0931491
0.091952
0.0919565
0.0919659
0.0919829
0.092009
0.09205
0.0921209
0.0922821
0.0926537
0.0933878
0.0929179
0.0808491
0.0563772
0.0463374
0.0478466
0.056155
0.0670298
0.0775815
0.0858018
0.0907929
0.0930137
0.0935613
0.0933719
0.0930102
0.0917444
0.0917485
0.0917572
0.0917732
0.0917982
0.0918371
0.091904
0.0920527
0.0923937
0.0930485
0.0925857
0.0819251
0.0592436
0.0479978
0.0476459
0.0545184
0.0646158
0.0749593
0.083532
0.0892211
0.0921155
0.0931087
0.093139
0.0928597
0.0915423
0.0915458
0.091554
0.0915691
0.0915928
0.0916298
0.0916929
0.0918301
0.0921427
0.0927277
0.0922861
0.0828929
0.0619724
0.0498267
0.0477943
0.0532004
0.0624385
0.0724764
0.0812574
0.0875289
0.0910755
0.0925531
0.0928526
0.0926897
0.0913452
0.0913484
0.091356
0.0913701
0.0913926
0.0914278
0.0914872
0.0916141
0.0919004
0.0924239
0.0920123
0.0837562
0.0645522
0.0517813
0.048252
0.0521929
0.0604902
0.0701316
0.0790008
0.085743
0.0899006
0.0918872
0.0925013
0.0924914
0.091153
0.0911558
0.0911629
0.0911762
0.0911975
0.0912308
0.0912869
0.0914043
0.0916665
0.0921354
0.0917591
0.0845182
0.0669686
0.0538183
0.0489783
0.0514886
0.0587754
0.0679337
0.0767851
0.0838924
0.0886055
0.0911085
0.092076
0.0922557
0.0909654
0.090968
0.0909745
0.090987
0.0910071
0.0910387
0.0910917
0.0912005
0.0914404
0.0918611
0.0915224
0.0851836
0.0692126
0.0558998
0.0499331
0.0510745
0.057299
0.0658916
0.0746302
0.0820024
0.087207
0.0902194
0.0915696
0.091974
0.0907823
0.0907846
0.0907906
0.0908023
0.0908213
0.0908513
0.0909015
0.0910023
0.0912217
0.0915997
0.0912991
0.0857589
0.0712799
0.0579929
0.0510779
0.0509329
0.0560637
0.0640137
0.072552
0.080096
0.0857235
0.0892249
0.0909775
0.0916382
0.0906034
0.0906055
0.0906111
0.090622
0.0906398
0.0906685
0.0907158
0.0908093
0.09101
0.0913502
0.0910867
0.0862511
0.0731704
0.0600695
0.0523765
0.0510424
0.0550691
0.0623082
0.0705643
0.0781943
0.084173
0.0881332
0.0902975
0.0912413
0.0904286
0.0904305
0.0904356
0.0904457
0.0904627
0.09049
0.0905346
0.0906213
0.0908049
0.0911116
0.0908833
0.0866676
0.0748874
0.0621059
0.0537958
0.0513793
0.0543117
0.0607822
0.0686795
0.0763144
0.082574
0.086954
0.0895298
0.0907778
0.0902577
0.0902594
0.0902641
0.0902735
0.0902896
0.0903155
0.0903576
0.090438
0.0906061
0.0908831
0.0906876
0.0870158
0.0764363
0.0640815
0.0553039
0.0519177
0.0537841
0.0594412
0.0669084
0.0744721
0.0809431
0.085699
0.088677
0.0902437
0.0900913
0.0900928
0.0900972
0.0901059
0.0901211
0.0901457
0.0901854
0.0902601
0.090414
0.0906646
0.0904992
0.087304
0.0778273
0.0659846
0.0568774
0.0526344
0.0534769
0.0582899
0.0652629
0.0726832
0.0792978
0.0843816
0.0877451
0.0896379
0.089949
0.0899504
0.0899545
0.0899627
0.089977
0.0900001
0.0900377
0.0901072
0.0902485
0.0904763
0.0903381
0.0875537
0.0790667
0.0677836
0.0584726
0.0534976
0.0533854
0.0573493
0.0637811
0.0709998
0.0776975
0.0830587
0.0867792
0.0889939
0.127781
0.0548046
0.098376
0.109047
0.0438899
0.052704
0.0979158
0.0405552
0.0431932
0.093324
0.0405661
0.0404207
0.0919911
0.0422137
0.0406932
0.0920969
0.00650912
0.00399042
0.0455389
0.0425159
0.125944
0.11515
0.108315
0.108504
0.104951
0.12862
0.121919
0.0425357
0.0697209
0.0602655
0.104561
0.110823
0.10677
0.116346
0.127527
0.117819
0.0656126
0.0785647
0.0199671
0.0282055
0.0480982
0.0866861
0.099894
0.106973
0.105945
0.114768
0.102457
0.0540725
0.0565678
0.0116987
0.013338
0.0441794
0.0756729
0.0832595
0.106114
0.100612
0.105026
0.0950274
0.0558485
0.0544425
0.0179349
0.0141452
0.043292
0.0693819
0.0738107
0.026155
0.0231142
0.0439035
0.0649361
0.0681701
0.0350305
0.0311144
0.089577
0.0222705
0.00721503
0.0132232
0.051364
0.0461073
0.0810754
0.103597
0.133252
0.0932706
0.0691154
0.1321
0.0973552
0.0289703
0.0417801
0.0643171
0.0445831
0.0325693
0.05717
0.0641179
0.115438
0.0550677
0.0477428
0.0666537
0.0558794
0.0135073
0.0196735
0.0466634
0.0231808
0.018077
0.0316314
0.0235097
0.0478715
0.0542593
0.0539737
0.101144
0.0457233
0.0472572
0.0474861
0.0456892
0.0140895
0.0116245
0.0412738
0.015993
0.0175745
0.0179165
0.0160767
0.0416379
0.0481152
0.050977
0.0474194
0.0476805
0.0228415
0.0183164
0.040299
0.021184
0.0257236
0.0176783
0.0209075
0.0402734
0.0545843
0.0572217
0.0513766
0.0541894
0.0305637
0.0267126
0.0261677
0.029304
0.0412202
0.0608053
0.0616535
0.0576748
0.0604343
0.0411475
0.0356462
0.133843
0.107372
0.137352
0.0288563
0.0557304
0.104883
0.0984641
0.100209
0.0923606
0.0608551
0.0585666
0.0207763
0.0171063
0.04591
0.0613129
0.0639633
0.0974262
0.0613092
0.0736682
0.0463675
0.0702031
0.0582431
0.0561317
0.09451
0.0115778
0.0154003
0.0274764
0.0302479
0.0156314
0.0194446
0.0165359
0.0121801
0.041438
0.029759
0.0330167
0.0306545
0.0330811
0.0334941
0.0369703
0.043578
0.145764
0.1393
0.137085
0.0781405
0.133751
0.144625
0.0268869
0.0507089
0.0312031
0.058494
0.0333399
0.0536695
0.0223996
0.0236288
0.0124564
0.0125311
0.0161316
0.0156637
0.0245184
0.0097338
0.0250052
0.0247479
0.0212962
0.0196846
0.0229744
0.0327708
0.0302147
0.0814823
0.02629
0.041228
0.0251424
0.0778527
0.0433905
0.0674303
0.110961
0.0560273
0.0318859
0.0337886
0.0346556
0.0502544
0.0498609
0.0619827
0.0611213
0.014709
0.0149714
0.0192436
0.0358121
0.0373461
0.0342691
0.0353822
0.019106
0.0269227
0.0406077
0.0430976
0.0379276
0.039867
0.0260649
0.0463006
0.0463687
0.0462227
0.0460769
0.0110285
0.0110991
0.0155029
0.0321454
0.0323416
0.0322002
0.0321312
0.0154847
0.0169768
0.0331564
0.0339516
0.032455
0.0329428
0.0168657
0.0117296
0.0493881
0.0164061
0.0121804
0.0207691
0.0166849
0.0497701
0.0459708
0.0123029
0.0463644
0.0208644
0.0205444
0.0190009
0.0324505
0.0322445
0.0329025
0.0325438
0.0193253
0.0239221
0.0269467
0.0525857
0.02489
0.0211293
0.0286056
0.0253469
0.0529889
0.0198799
0.0234879
0.0289159
0.0152458
0.0191797
0.0102267
0.014588
0.0283638
0.011184
0.0338549
0.0356756
0.00730399
0.0334222
0.0332715
0.00748925
0.0283926
0.0252186
0.0404009
0.103572
0.0997021
0.0983334
0.0920193
0.067851
0.0664509
0.00883083
0.0405925
0.0415889
0.0604156
0.0632621
0.0611722
0.0922194
0.00927364
0.0100824
0.00342295
0.0349999
0.035568
0.0109574
0.01268
0.0269539
0.0297234
0.00168632
0.118985
0.134582
0.1033
0.0613368
0.106998
0.114303
0.0703007
0.0992392
0.0943538
0.0206133
0.0176059
0.0259208
0.0547882
0.0815205
0.0800218
0.0842639
0.0821346
0.0551429
0.0120229
0.0129939
0.0170907
0.0142466
0.0144403
0.0120465
0.0333264
0.0234312
0.0271824
0.0594932
0.0615367
0.0157396
0.115979
0.0716812
0.104796
0.0305219
0.0197834
0.018166
0.0393878
0.0487274
0.0537757
0.044046
0.0473873
0.0377897
0.0594005
0.0879967
0.0851027
0.0929221
0.0891069
0.060316
0.0524437
0.0292203
0.0348181
0.0259786
0.0265646
0.048541
0.0359383
0.037685
0.0580495
0.013906
0.0164273
0.0207108
0.0301391
0.0303569
0.0274241
0.0279556
0.0185102
0.0795929
0.0785956
0.0539117
0.0460405
0.026844
0.0245579
0.0468662
0.0253234
0.025812
0.0242105
0.0241943
0.0457108
0.0126257
0.011347
0.0157276
0.025477
0.025583
0.0247645
0.0257299
0.0166844
0.0175028
0.0268104
0.0272567
0.0256375
0.0258301
0.0163975
0.0219781
0.0133405
0.0149501
0.00991235
0.00980842
0.0192715
0.0239703
0.033535
0.0330468
0.0342681
0.0337178
0.0244091
0.0557452
0.0317229
0.0290154
0.0362805
0.0344994
0.0561211
0.0175297
0.0184422
0.0589231
0.0386593
0.0368978
0.0164263
0.0172655
0.0177169
0.0150301
0.0380954
0.044205
0.0423238
0.00960036
0.0192647
0.00990991
0.011768
0.00979474
0.0187733
0.0808103
0.0463047
0.0721035
0.0388744
0.0754861
0.0123502
0.0133886
0.009753
0.00934552
0.0287031
0.0135838
0.0128795
0.0150228
0.0137648
0.0290561
0.0165733
0.0172712
0.0146949
0.0139773
0.0317628
0.0172912
0.0157478
0.0128896
0.0137002
0.0251857
0.0368227
0.0420945
0.0310144
0.0352912
0.023919
0.020843
0.0254813
0.0120999
0.012873
0.0169083
0.0144028
0.00931658
0.0172027
0.015808
0.0189628
0.0176854
0.00945694
0.0132325
0.0123205
0.015395
0.0137575
0.0233414
0.0156382
0.0176322
0.0128871
0.0148416
0.022848
0.0110113
0.00993183
0.0294401
0.0597636
0.0542418
0.0696656
0.0618216
0.0310658
0.0448269
0.0423382
0.0519111
0.0458589
0.0532925
0.0807073
0.0719931
0.0459467
0.0423992
0.0241995
0.0204033
0.031193
0.0202514
0.0258217
0.0296787
0.0209552
0.0246699
0.0375613
0.0281627
0.0248609
0.0276536
0.0285142
0.0517286
0.020648
0.0191451
0.0272829
0.0213637
0.017937
0.0174091
0.0188334
0.0181588
0.0488662
0.0267814
0.0274214
0.0333885
0.0314172
0.0413209
0.035115
0.0294324
0.0281975
0.0310013
0.0298103
0.058772
0.0381616
0.0395875
0.0140931
0.0160883
0.0290181
0.0298406
0.0199913
0.0186713
0.0281526
0.0287829
0.0279942
0.0273689
0.046117
0.0206835
0.0212396
0.016057
0.0199266
0.0213849
0.0226428
0.0212707
0.0213301
0.0247715
0.0251771
0.0466677
0.0167128
0.016329
0.0172765
0.0168383
0.0157167
0.0156697
0.0162026
0.015868
0.0458043
0.0243025
0.0246405
0.0117573
0.0112701
0.025447
0.0254507
0.0156543
0.0162017
0.0256575
0.0254634
0.0263063
0.0266708
0.0173648
0.0164976
0.0259135
0.0261947
0.0120373
0.0142175
0.0320093
0.0334863
0.0302698
0.0315175
0.0130734
0.0189847
0.0355937
0.0339455
0.0338929
0.0351683
0.0181577
0.0254851
0.0261663
0.0235083
0.0252207
0.0128702
0.0286753
0.0299277
0.0264772
0.0280806
0.0127959
0.0120167
0.0129922
0.021706
0.00955866
0.0097566
0.0118586
0.00975117
0.00966617
0.0195437
0.00976615
0.0111924
0.0250693
0.00973766
0.00997708
0.0123389
0.00996314
0.0254984
0.00986338
0.0211407
0.0101339
0.0217246
0.0124883
0.0206631
0.0193889
0.0223366
0.0210882
0.0128741
0.00951544
0.00946355
0.0188716
0.0200462
0.0142732
0.0160652
0.0215651
0.0187206
0.112856
0.10944
0.103455
0.0439938
0.0388594
0.0427665
0.0875358
0.0996429
0.0720578
0.049672
0.0807225
0.0847859
0.122284
0.130543
0.0818391
0.107131
0.10104
0.0720989
0.0201911
0.0157329
0.015499
0.0117921
0.0132004
0.0775415
0.0772297
0.0548666
0.0106512
0.0105275
0.0141696
0.0153727
0.0164214
0.0239241
0.089752
0.116499
0.109306
0.0502283
0.0533214
0.0716895
0.0330186
0.0293463
0.038617
0.0659601
0.043987
0.049082
0.0136218
0.0152541
0.0149705
0.0191894
0.0217861
0.0219411
0.0182178
0.0310493
0.0316896
0.0242288
0.0539416
0.0783143
0.0777093
0.0296023
0.0285718
0.0467803
0.0138999
0.0109404
0.0107978
0.0115612
0.0159133
0.0196839
0.0197521
0.0177669
0.0214733
0.0216272
0.0198249
0.0199065
0.0161733
0.0452499
0.0314507
0.0301522
0.0179392
0.0251082
0.0249341
0.027529
0.0351599
0.0344681
0.00851524
0.00849991
0.0408373
0.0392399
0.0593089
0.00860127
0.00855009
0.0280191
0.0311717
0.0377822
0.0305632
0.0266905
0.0115497
0.0110407
0.0112496
0.0150594
0.0158441
0.0107278
0.010857
0.0142544
0.0136571
0.0188631
0.0095624
0.00966915
0.0127951
0.0186404
0.0175959
0.0320938
0.109045
0.106229
0.0637356
0.0240677
0.0277847
0.032674
0.035152
0.0233708
0.0242894
0.0441942
0.0522906
0.0422446
0.0181488
0.0177117
0.0215872
0.0245006
0.0210183
0.0200976
0.0123117
0.012621
0.012702
0.0131295
0.0164771
0.0151357
0.0110564
0.0118773
0.0097112
0.00950374
0.0131916
0.0127675
0.00950049
0.00947538
0.00948234
0.0241939
0.0168559
0.0181912
0.0285368
0.0272035
0.0378867
0.0363767
0.051369
0.0482487
0.0382645
0.0242587
0.0237378
0.0338981
0.0293117
0.0227955
0.0884143
0.0836666
0.0570491
0.0519219
0.0383588
0.0419586
0.0338732
0.0204674
0.0222412
0.0400622
0.0423781
0.0649347
0.0232131
0.022665
0.0144969
0.0152988
0.0341615
0.0351191
0.0287708
0.0244957
0.0323751
0.0331961
0.0466676
0.0284271
0.0281054
0.0110269
0.0111592
0.020652
0.0207742
0.0170921
0.0167307
0.0204125
0.0205338
0.0119302
0.0160317
0.0216437
0.0220834
0.0179767
0.0182521
0.012165
0.0325209
0.0317302
0.0456082
0.0128998
0.0128218
0.0138459
0.0139623
0.0124851
0.0175211
0.0177627
0.0128772
0.0132306
0.0255675
0.0253182
0.0181008
0.0200107
0.0260838
0.0258281
0.0230059
0.0360224
0.0367584
0.0346113
0.0352924
0.022389
0.0169596
0.0227835
0.0227326
0.0243037
0.0235435
0.0175525
0.0110659
0.0143975
0.0137572
0.0102791
0.00933874
0.00929991
0.0085596
0.0101723
0.0104172
0.0089476
0.0343731
0.0207138
0.01915
0.022152
0.0211174
0.0326968
0.0123124
0.0133222
0.0182241
0.0204514
0.0267456
0.0510073
0.0499628
0.0436026
0.00929586
0.0095377
0.018353
0.0184721
0.00424007
0.011861
0.00952313
0.00947416
0.00924505
0.00940307
0.0123781
0.00263978
0.0130555
0.0202834
0.0830572
0.08048
0.0531303
0.0163478
0.016011
0.0204008
0.0164516
0.0192964
0.0213447
0.0182838
0.0188386
0.0119087
0.0130874
0.00993983
0.00997998
0.0106219
0.010133
0.0141925
0.0104311
0.0103612
0.0139102
0.0104766
0.0107402
0.00983838
0.0102513
0.0132291
0.0192151
0.0233034
0.0236966
0.0223433
0.0229118
0.0186998
0.0137505
0.0182751
0.0146155
0.0137115
0.018359
0.0220968
0.0222576
0.0109729
0.0110498
0.0134766
0.0114418
0.0195534
0.0196147
0.0158145
0.0211858
0.0213268
0.0176306
0.0162847
0.0199989
0.020096
0.0100032
0.0122893
0.0114485
0.013008
0.012745
0.00993175
0.00851747
0.00861683
0.00878788
0.0086723
0.0167243
0.0122552
0.0120463
0.011415
0.0107062
0.0167298
0.0130719
0.0145491
0.0111839
0.0118885
0.0158037
0.0329548
0.0304707
0.0348269
0.0288748
0.0389837
0.0436045
0.0488569
0.0335724
0.0369615
0.0325446
0.0102123
0.0139477
0.0134732
0.0153374
0.0145889
0.010776
0.00947068
0.0114751
0.0105689
0.0130527
0.0124882
0.0097121
0.0542331
0.067138
0.0598406
0.0404879
0.0369491
0.0502955
0.0443702
0.0117573
0.0144597
0.0114185
0.0113825
0.0096006
0.00945971
0.0175253
0.0179133
0.0131964
0.0109707
0.0107164
0.0161211
0.0108072
0.0106543
0.0107624
0.0181023
0.0126073
0.0115834
0.0113173
0.0123371
0.0153777
0.00964352
0.00939098
0.0100551
0.00978477
0.0133342
0.00991351
0.0104144
0.0130814
0.0089997
0.00910269
0.00916107
0.00898478
0.0133229
0.0295985
0.0309344
0.0264833
0.0217516
0.0251741
0.0280775
0.0153627
0.0211296
0.0172452
0.016762
0.0172941
0.0177408
0.0164506
0.0169023
0.012194
0.0127334
0.0102539
0.0103558
0.0100463
0.0101321
0.0167181
0.013342
0.0134588
0.0103601
0.0105828
0.0146861
0.0102878
0.0109931
0.0101723
0.00945986
0.0123876
0.0118758
0.0128681
0.00943656
0.00964723
0.0095203
0.00944106
0.0125961
0.0149258
0.0118434
0.012353
0.0101328
0.0109647
0.014364
0.0093513
0.0135563
0.0167
0.0160614
0.010445
0.0101285
0.0256441
0.040207
0.0390268
0.028163
0.0329727
0.0445064
0.0418954
0.0255914
0.0248356
0.0335206
0.0341733
0.0431868
0.0279114
0.0266337
0.033594
0.0356718
0.0487855
0.0324638
0.0362986
0.0281809
0.031528
0.0231701
0.0266341
0.0276503
0.0242778
0.0252334
0.0209897
0.0180592
0.0195301
0.0267763
0.0228655
0.021973
0.026082
0.0235821
0.0279825
0.021708
0.0210398
0.0194676
0.0224161
0.0200353
0.0195368
0.0254996
0.0186991
0.0192815
0.0171455
0.0220875
0.0177361
0.0175607
0.0185771
0.0183602
0.0324082
0.023684
0.0246589
0.0222454
0.022865
0.0318435
0.0399192
0.0316393
0.0327742
0.0256713
0.0295931
0.037815
0.02187
0.0199862
0.0290649
0.0201518
0.0204179
0.0196226
0.0198962
0.0286874
0.0305996
0.021414
0.0217874
0.0207127
0.0210464
0.0302014
0.01432
0.0157092
0.0210273
0.0150686
0.0153545
0.0145439
0.0147763
0.0211752
0.0169133
0.0155302
0.0153723
0.0184253
0.0215463
0.0139014
0.0138803
0.0150889
0.0142663
0.021938
0.0212897
0.0142214
0.0143645
0.0139954
0.0141035
0.0213068
0.0166029
0.016487
0.0171465
0.0169837
0.0156179
0.0155757
0.0160935
0.0159955
0.0112585
0.0112083
0.0172215
0.0209052
0.0210446
0.0201938
0.0202981
0.0166069
0.0120943
0.0202746
0.0210526
0.0153834
0.0124129
0.0187045
0.0194201
0.0132465
0.0130467
0.0257067
0.0192434
0.0191212
0.0242899
0.0178458
0.016464
0.0189307
0.0185725
0.0248531
0.0137889
0.0134972
0.0164633
0.017148
0.0127
0.0139491
0.0152002
0.0124681
0.0155733
0.0151648
0.0162132
0.0158998
0.0127344
0.00958194
0.00968295
0.0110197
0.00946615
0.00957044
0.0102192
0.00994274
0.0135882
0.0132524
0.0146497
0.0140808
0.0104014
0.00973883
0.0142605
0.0145232
0.0138257
0.0140523
0.00983675
0.0114035
0.0163112
0.0169983
0.0149369
0.0155664
0.0105028
0.00979572
0.0102944
0.0105078
0.0104651
0.0103279
0.0102905
0.0129562
0.0135029
0.0110577
0.0119931
0.0102651
0.0154954
0.0149926
0.0119707
0.00976328
0.00945171
0.00890908
0.00944515
0.014951
0.010418
0.00962074
0.0117511
0.011259
0.01558
0.00901528
0.00892136
0.0128184
0.0120567
0.0989234
0.0993612
0.0990075
0.0995598
0.100069
0.0993009
0.100162
0.100058
0.099382
0.0999089
0.0995404
0.099283
0.0984562
0.0990912
0.098732
0.0995985
0.102186
0.0997054
0.103419
0.110043
0.100867
0.110519
0.106276
0.100776
0.105146
0.102081
0.0997926
0.101212
0.0999508
0.0994851
0.0987082
0.100528
0.0993682
0.101978
0.11877
0.103677
0.110224
0.12387
0.108011
0.142464
0.133751
0.114297
0.116151
0.109641
0.106392
0.107008
0.102243
0.100833
0.0990565
0.10224
0.100982
0.103522
0.106926
0.105533
0.131988
0.137505
0.136698
0.0789556
0.10322
0.113978
0.108142
0.105687
0.104045
0.0992233
0.103224
0.102575
0.106065
0.111371
0.110548
0.122822
0.114166
0.117708
0.0524304
0.0708722
0.0799544
0.0966682
0.106274
0.106523
0.0991305
0.103337
0.103326
0.107053
0.112338
0.112416
0.105476
0.0943023
0.0959965
0.0455811
0.0589073
0.0620654
0.0860199
0.103255
0.105081
0.0988523
0.102879
0.103262
0.106626
0.11074
0.111265
0.0962928
0.0864486
0.086993
0.0434976
0.054162
0.0555187
0.0787511
0.0987007
0.101073
0.0984768
0.102161
0.102715
0.0927577
0.0842995
0.0844323
0.0434577
0.0517967
0.0525145
0.0732798
0.0937388
0.0962415
0.0980445
0.101327
0.10196
0.044672
0.0494124
0.0495118
0.0686491
0.0886798
0.0912177
0.097611
0.0998067
0.100123
0.10218
0.0987407
0.0994072
0.0924855
0.0707842
0.0692683
0.00631071
0.0188757
0.0242515
0.0502003
0.0582865
0.0605007
0.067986
0.0825805
0.0860749
0.0971511
0.0990953
0.0994563
0.101604
0.0979751
0.0985549
0.0905038
0.0379639
0.031095
0.0210829
0.0478751
0.051673
0.0521896
0.0550322
0.057736
0.0644814
0.0768484
0.0796676
0.100388
0.0984524
0.0990567
0.0848114
0.0531937
0.0401432
0.0273625
0.036208
0.0457065
0.0497524
0.0545408
0.0549191
0.121415
0.125205
0.130014
0.0571638
0.0515248
0.0470677
0.0913611
0.0793924
0.0876331
0.0978921
0.100002
0.111041
0.0446908
0.0381401
0.0370188
0.0459962
0.0433511
0.0508611
0.0876393
0.0883977
0.098879
0.0407388
0.0347496
0.0347333
0.0366994
0.0358957
0.0425909
0.084629
0.0849083
0.0936729
0.0404646
0.0358393
0.0372471
0.034755
0.0349082
0.0403323
0.0419341
0.0399347
0.0403716
0.0375721
0.037913
0.0408472
0.0688663
0.0683513
0.0920781
0.00455103
0.0160947
0.016612
0.00668569
0.00662725
0.00303715
0.0408319
0.0413184
0.0428418
0.14097
0.131945
0.113534
0.062229
0.0673839
0.0525975
0.110124
0.130013
0.142678
0.05655
0.0588052
0.117341
0.115073
0.102314
0.112439
0.129924
0.119555
0.109504
0.108276
0.104266
0.129422
0.115285
0.117225
0.11019
0.112855
0.128508
0.0450094
0.0385316
0.0343141
0.0660093
0.0589487
0.0628375
0.0838351
0.0982298
0.0723531
0.108399
0.10401
0.0969544
0.11266
0.109809
0.110615
0.112297
0.111953
0.106471
0.121346
0.119338
0.118988
0.118543
0.119225
0.123022
0.107756
0.110838
0.120292
0.0670965
0.0777356
0.0762267
0.089439
0.0870985
0.076208
0.024849
0.0235674
0.0272911
0.0633899
0.0686242
0.0511141
0.0906482
0.0792106
0.0752228
0.0900975
0.0841365
0.0951124
0.111727
0.112096
0.107053
0.109212
0.116255
0.115094
0.118287
0.117344
0.110475
0.0914665
0.0927965
0.103899
0.0542463
0.0638107
0.0635133
0.0667792
0.066134
0.0560311
0.0560653
0.0580799
0.0451445
0.0778222
0.0672537
0.0654775
0.0720051
0.0693931
0.0803272
0.109605
0.11018
0.106385
0.102118
0.1117
0.11069
0.113924
0.112783
0.102741
0.0856235
0.0859964
0.09562
0.055078
0.077146
0.0770531
0.0626518
0.0626999
0.054545
0.0175846
0.0140654
0.0145419
0.0527993
0.0537762
0.0434082
0.0707084
0.061563
0.0605609
0.0639812
0.0626939
0.0721732
0.025605
0.0202284
0.0213714
0.020791
0.021101
0.0233855
0.0496601
0.0498502
0.0435424
0.0659603
0.0579407
0.0571323
0.0596636
0.0588525
0.0670386
0.0344542
0.0321432
0.0327874
0.0283241
0.0289604
0.0316641
0.0763149
0.0713075
0.089353
0.0173536
0.062214
0.0645052
0.0362212
0.0385221
0.00947965
0.0328988
0.0390525
0.00985686
0.05025
0.0463966
0.0470201
0.0440908
0.0465062
0.048402
0.0837454
0.094485
0.0919072
0.126894
0.118981
0.0930632
0.131904
0.128956
0.132458
0.0892175
0.0703323
0.0790341
0.12674
0.11875
0.125176
0.0856314
0.0905519
0.101695
0.0295406
0.0263503
0.0257566
0.0401881
0.038562
0.0407747
0.0578934
0.0542295
0.0599141
0.0428127
0.0460871
0.0477984
0.0380179
0.0390386
0.0350361
0.0578386
0.0682727
0.0674907
0.0747851
0.0734333
0.0626551
0.113173
0.102343
0.104925
0.0541838
0.0476346
0.0487248
0.0411849
0.0414111
0.047981
0.0496447
0.0504185
0.0566291
0.0400812
0.0385726
0.0456099
0.0226805
0.0257772
0.0262148
0.029316
0.0360476
0.0370198
0.0265563
0.0268422
0.0237631
0.0492594
0.0426019
0.0406526
0.0541116
0.0626055
0.0626154
0.0632688
0.0630689
0.0539333
0.0999523
0.0892803
0.0902997
0.0458373
0.0396384
0.0394479
0.0418531
0.041617
0.0470787
0.047276
0.0407653
0.0409673
0.0393337
0.0392821
0.045644
0.0350386
0.0347908
0.0409765
0.0207513
0.020614
0.0173972
0.0420746
0.0356769
0.0351644
0.0485595
0.0370567
0.0359868
0.0430165
0.0425255
0.0505772
0.0475526
0.0423152
0.0420949
0.0356624
0.0345647
0.0472436
0.022556
0.0201246
0.0204674
0.0150979
0.0155972
0.0186807
0.0353575
0.0357146
0.0403639
0.0219464
0.027244
0.0269322
0.0291284
0.0287966
0.0252801
0.0177448
0.0209331
0.0208416
0.0266291
0.0263467
0.0201976
0.040284
0.0349806
0.0352516
0.0549754
0.04804
0.0475563
0.0507477
0.0503185
0.0568583
0.0517767
0.044011
0.043508
0.0470651
0.0465659
0.0537912
0.0300164
0.0270455
0.0276842
0.0217429
0.0228558
0.0272737
0.0266145
0.0298078
0.0294649
0.0361656
0.0353918
0.0279657
0.0410225
0.0382715
0.0386502
0.0618535
0.0429612
0.0413577
0.0431814
0.0431016
0.0618903
0.0581088
0.0516216
0.0511832
0.0385967
0.0324779
0.0336807
0.135378
0.137234
0.133459
0.119631
0.13644
0.129425
0.141001
0.138463
0.124022
0.0526082
0.0475454
0.0509643
0.099011
0.108152
0.107461
0.109762
0.108917
0.0992579
0.0841829
0.0842191
0.0925386
0.0598833
0.0746538
0.074874
0.0742585
0.0744476
0.059555
0.0202587
0.0176518
0.0182542
0.0141567
0.0148675
0.017689
0.0494279
0.0493802
0.0449278
0.0917585
0.0834265
0.0896334
0.0495094
0.0542984
0.0659548
0.0572665
0.0693748
0.0888418
0.0559138
0.0650581
0.0539992
0.0779494
0.0698177
0.0628844
0.0573266
0.0771082
0.0740791
0.0770327
0.0770897
0.0570291
0.0940606
0.0850831
0.0853223
0.0279322
0.0229046
0.0224721
0.0252781
0.0248032
0.0298271
0.0159786
0.012965
0.0135127
0.0390527
0.0394828
0.0416763
0.0311438
0.0372626
0.0364224
0.0377205
0.037531
0.0316138
0.0310528
0.026246
0.0257685
0.0285027
0.0281323
0.0327461
0.0349478
0.0391087
0.0384053
0.0406231
0.0398476
0.0354333
0.0431962
0.0418362
0.042385
0.146174
0.142115
0.129918
0.145435
0.144943
0.144279
0.115381
0.139379
0.145933
0.087614
0.0846184
0.0748768
0.138521
0.117959
0.119034
0.125864
0.118862
0.140173
0.0462238
0.0401142
0.0477698
0.0459702
0.0550321
0.0624828
0.0373292
0.0396906
0.0355862
0.0578246
0.0543192
0.0498753
0.018586
0.0198201
0.0250597
0.0247322
0.0226525
0.0229729
0.0242896
0.0221812
0.0226884
0.0188562
0.0194309
0.0218104
0.021148
0.0258079
0.0250592
0.0272965
0.0265534
0.0216067
0.0322175
0.0295983
0.0302343
0.0622432
0.0681349
0.0852699
0.0745503
0.0545601
0.0601353
0.0457379
0.0566137
0.0539538
0.0768665
0.0733619
0.0635833
0.106233
0.0956549
0.100725
0.0308592
0.0299059
0.0328993
0.0355588
0.0326232
0.0317233
0.0433541
0.0437022
0.0506576
0.0495249
0.0427405
0.0430362
0.0554588
0.0563772
0.062906
0.0603018
0.0538757
0.0546381
0.0230727
0.0232709
0.0193981
0.0362803
0.0330712
0.0325923
0.0341931
0.0336097
0.0367941
0.0346126
0.0313717
0.0310186
0.0321575
0.031751
0.0349833
0.0189732
0.0227466
0.0229043
0.0298424
0.0304576
0.0276608
0.0413907
0.038496
0.0376563
0.0402728
0.0393578
0.042216
0.0385333
0.0354443
0.0348166
0.036847
0.03611
0.0391758
0.0253398
0.028591
0.0291879
0.0405986
0.040497
0.0462343
0.0464605
0.0408189
0.0407039
0.0397972
0.0399262
0.0463455