/*--------------------------------*- C++ -*----------------------------------*\
| =========                 |                                                 |
| \\      /  F ield         | OpenFOAM: The Open Source CFD Toolbox           |
|  \\    /   O peration     | Version:  5.x                                   |
|   \\  /    A nd           | Web:      www.OpenFOAM.org                      |
|    \\/     M anipulation  |                                                 |
\*---------------------------------------------------------------------------*/
FoamFile
{
    version     2.0;
    format      ascii;
    class       volScalarField;
    location    "2287";
    object      epsilon;
}
// * * * * * * * * * * * * * * * * * * * * * * * * * * * * * * * * * * * * * //

dimensions      [0 2 -3 0 0 0 0];

internalField   nonuniform List<scalar> 
6584
(
13.2837
13.2834
13.2836
13.2839
13.2842
13.2846
13.2857
13.2876
13.2911
13.2967
13.3038
13.3111
13.3153
13.314
13.3086
13.3012
13.2943
13.2896
13.2865
13.2849
13.2835
13.2828
13.2824
13.2821
12.1829
12.1842
12.1841
12.1841
12.1845
12.1856
12.1879
12.1919
12.1975
12.2082
12.2189
12.2291
12.2363
12.2376
12.2332
12.2219
12.2107
12.2014
12.1942
12.1897
12.1865
12.1846
12.184
12.1821
11.2107
11.2108
11.2108
11.2099
11.2097
11.2109
11.2131
11.2189
11.2296
11.5941
11.6936
11.7124
11.7246
11.7297
11.7261
11.3192
11.2687
11.2461
11.2318
11.2225
11.2167
11.2137
11.211
11.2088
10.3471
10.3467
10.3461
10.3452
10.3439
10.3442
10.3464
10.353
10.3671
10.6284
10.7566
10.8042
10.8361
10.849
10.8405
10.865
10.4764
10.4141
10.3854
10.3684
10.3583
10.3516
10.3471
10.3441
9.57712
9.57629
9.57491
9.57331
9.57152
9.57027
9.57143
9.57916
9.87312
9.88131
9.96406
10.0606
10.1302
10.1429
10.1227
10.0954
10.0846
9.71327
9.64621
9.61478
9.59624
9.58477
9.57771
9.57282
8.88832
8.88718
8.88492
8.88223
8.87965
8.87777
8.88061
9.14197
9.16449
9.19967
9.41099
9.68741
9.95732
9.88592
9.62234
9.49986
9.42138
9.08974
8.99752
8.94818
8.91891
8.90099
8.89006
8.8825
8.27015
8.26891
8.26606
8.26253
8.25887
8.25626
8.25927
8.45044
8.52477
8.61669
8.9814
9.9992
12.9456
11.0239
9.68852
9.09755
8.89678
8.54627
8.42722
8.3576
8.31551
8.28955
8.27372
8.26268
7.71366
7.7125
7.7093
7.70527
7.70096
7.69795
7.70137
7.85231
7.94736
8.11493
8.86686
16.5089
35.704
10.9694
8.9659
8.50064
8.07733
7.92513
7.83295
7.77649
7.74125
7.71966
7.70437
7.21123
7.21035
7.20711
7.20299
7.1985
7.19548
7.19884
7.32618
7.42512
7.64719
8.73622
28.4001
142.782
14.7017
9.12593
8.21401
7.67078
7.48067
7.36419
7.29274
7.24765
7.21984
7.19992
6.75626
6.7557
6.75264
6.74868
6.74432
6.74158
6.74495
6.85535
6.94894
7.1861
8.37838
30.7794
165.372
19.7997
9.47478
8.00527
7.31169
7.08329
6.94265
6.85635
6.80154
6.76743
6.74272
6.34302
6.34277
6.33999
6.3364
6.33241
6.33024
6.33369
6.43094
6.51443
6.73932
7.86075
26.0075
132.727
23.4316
9.85862
7.84496
6.98832
6.72364
6.56127
6.46069
6.39673
6.35654
6.32709
5.96667
5.96677
5.96445
5.96143
5.95806
5.95656
5.96011
6.04644
6.11817
6.32027
7.29989
20.1286
102.682
25.0346
10.187
7.71388
6.69287
6.39472
6.21327
6.10035
6.02747
5.98176
5.94797
5.62293
5.62338
5.62162
5.61928
5.61658
5.61572
5.61943
5.69676
5.75692
5.9345
6.76451
15.7172
83.9666
25.3361
10.4515
7.60629
6.42245
6.09249
5.89406
5.77011
5.68948
5.63858
5.60104
5.30814
5.30886
5.30766
5.30597
5.30395
5.30357
5.30661
5.25837
5.40613
5.57661
6.24746
12.5766
298.398
68.5627
25.0187
10.6835
7.5256
6.17779
5.81539
5.60071
5.46638
5.37945
5.32333
5.28263
5.01907
5.01999
5.0193
5.01822
5.01684
5.01672
5.01854
4.98238
5.09125
5.24749
5.77863
10.9102
96.7121
66.7072
21.757
10.9238
6.99325
5.99456
5.56406
5.32943
5.18676
5.09416
5.03373
4.98967
4.75296
4.754
4.75378
4.75326
4.75241
4.75233
4.75312
4.72718
4.81187
4.94714
5.50492
9.00022
50.0854
49.9726
21.7849
11.1514
6.88545
5.83229
5.34197
5.08207
4.9278
4.82934
4.76553
4.71968
4.50742
4.50853
4.5087
4.50867
4.50826
4.50807
4.50859
4.49069
4.48053
4.65363
5.13724
8.40239
32.5962
38.2952
21.5118
11.3613
6.81771
5.69216
5.14462
4.85715
4.69041
4.58579
4.518
4.46962
4.28034
4.28148
4.28199
4.28235
4.28222
4.28181
4.28272
4.27077
4.26341
4.35667
4.78036
7.31679
22.9792
29.0691
17.1717
10.3731
6.94191
5.59863
4.97477
4.65443
4.47298
4.3613
4.28932
4.23874
4.0699
4.07104
4.07182
4.07254
4.07274
4.07244
4.07384
4.06594
4.06096
4.1405
4.65635
7.76033
16.9591
20.0268
15.7215
10.2986
7.02003
5.5342
4.83129
4.47342
4.27462
4.15467
4.07805
4.02531
3.87449
3.87561
3.8766
3.87762
3.87814
3.8781
3.87986
3.87485
3.87188
3.93976
4.37732
6.86509
13.6044
16.3613
14.1466
10.0254
7.03489
5.48265
4.71021
4.31284
4.09436
3.96477
3.88297
3.82787
3.69269
3.69377
3.69491
3.69618
3.69701
3.69729
3.69928
3.69636
3.69504
3.75306
4.12296
6.11848
11.1863
13.5884
12.5955
9.59561
6.97739
5.42976
4.60606
4.17076
3.93109
3.79057
3.70296
3.64515
3.52326
3.52428
3.52554
3.52699
3.52809
3.52868
3.53082
3.52946
3.52952
3.57916
3.89107
5.49449
9.38447
11.4582
11.1578
9.05898
6.84815
5.36461
4.5128
4.04462
3.78349
3.63105
3.53694
3.47601
3.36508
3.36605
3.36737
3.36897
3.37028
3.37114
3.3734
3.37319
3.3743
3.41688
3.67942
4.97075
8.00643
9.79578
9.87323
8.46153
6.65461
5.28008
4.4247
3.93141
3.65002
3.48513
3.38393
3.31942
3.21718
3.21808
3.21945
3.22114
3.22263
3.22371
3.22605
3.22671
3.22862
3.26528
3.48596
4.52854
6.9292
8.47794
8.75094
7.84152
6.4083
5.17251
4.33672
3.82808
3.52898
3.35169
3.24297
3.17445
3.07867
3.07951
3.08088
3.08264
3.08426
3.08554
3.08793
3.08922
3.09174
3.1234
3.30875
4.15274
6.07143
7.41717
7.78315
7.22789
6.12251
5.04126
4.24497
3.73153
3.41851
3.22957
3.11313
3.04024
2.94878
2.94955
2.95091
2.9527
2.95442
2.95585
2.95829
2.96003
2.96298
2.99043
3.14631
3.83173
5.37896
6.55205
6.95463
6.64107
5.81074
4.88785
4.14668
3.63897
3.31673
3.11751
2.99349
2.91598
2.8268
2.82751
2.82883
2.83062
2.83242
2.83397
2.83643
2.8385
2.84177
2.8657
2.99684
3.55532
4.81235
5.83807
6.24734
6.0939
5.48557
4.71546
4.04034
3.54814
3.2218
3.01431
2.88322
2.80108
2.7121
2.71274
2.71401
2.71579
2.71763
2.71927
2.72175
2.72407
2.7276
2.74852
2.85886
3.31516
4.34228
5.24063
5.64153
5.59186
5.1575
4.52849
3.92575
3.45733
3.13209
2.91867
2.78127
2.69457
2.60412
2.6047
2.6059
2.60765
2.60951
2.61122
2.61371
2.61625
2.61994
2.63824
2.73116
3.105
3.94826
4.73568
5.1208
5.13678
4.83486
4.33131
3.80332
3.36525
3.04613
2.82943
2.68675
2.59572
2.50233
2.50285
2.50399
2.50569
2.50755
2.50931
2.51186
2.51455
2.51828
2.53434
2.61267
2.91977
3.61489
4.30515
4.6711
4.72764
4.52393
4.12831
3.67399
3.27109
2.96267
2.74545
2.5988
2.50385
2.40628
2.40675
2.40782
2.40944
2.41128
2.41312
2.41574
2.41848
2.4222
2.43633
2.50246
2.75541
3.33042
3.93525
4.28062
4.36164
4.22904
3.92356
3.53919
3.17449
2.8807
2.66574
2.51656
2.41829
2.31554
2.31596
2.31696
2.31851
2.32029
2.32226
2.32487
2.32763
2.3313
2.34379
2.39969
2.6086
3.08572
3.61528
3.93959
4.03498
3.95285
3.72064
3.40056
3.0754
2.79947
2.58939
2.43926
2.33839
2.22973
2.23011
2.23103
2.23248
2.23426
2.2363
2.23889
2.24164
2.24524
2.25632
2.30366
2.47664
2.87364
3.33689
3.64011
3.74358
3.69662
3.52252
3.25984
2.97411
2.71843
2.51565
2.36616
2.26352
2.14851
2.14885
2.14969
2.15104
2.15281
2.15488
2.15744
2.16018
2.16369
2.17355
2.21373
2.35734
2.68851
3.09329
3.37564
3.48324
3.46057
3.33152
3.11877
2.87112
2.63727
2.44386
2.29659
2.1931
2.07157
2.07187
2.07265
2.0739
2.07563
2.07772
2.08025
2.08295
2.08637
2.09517
2.12936
2.24891
2.52595
2.87949
3.14142
3.25045
3.24424
3.14935
2.979
2.7671
2.55589
2.37356
2.22999
2.12661
1.99978
2.00006
2.00078
2.00197
2.00364
2.00569
2.00819
2.01085
2.01416
2.02207
2.05129
2.15126
2.38382
2.69239
2.93435
3.04331
3.04851
2.97906
2.84371
2.66432
2.47563
2.30551
2.16693
2.0646
27.3558
199.629
51.082
30.9997
221.127
212.039
26.7653
164.663
215.01
20.7969
122.508
158.13
16.1873
98.6954
118.704
12.8461
152.894
324.308
86.8529
96.6186
14.9487
12.7042
38.1096
11.1026
8.78939
19.3185
13.3684
1120.55
440.368
131.911
17.2079
12.233
8.48764
21.9738
19.9558
30.4876
137.719
149.71
657.962
940.054
167.507
26.4435
19.5028
7.99837
19.9584
21.9271
29.4717
92.3224
112.412
333.737
464.715
137.177
32.3291
28.3747
7.43926
16.3746
19.531
23.7028
56.7568
69.9997
176.331
227.078
105.767
33.9378
33.0552
127.037
144.711
85.8099
33.3208
33.9093
104.852
113.75
11.4485
50.0682
142.703
102.064
88.0371
85.9764
149.754
133.334
23.2392
192.08
200.683
97.4785
186.096
957.984
1099.13
142.37
873.773
867.331
115.405
135.374
30.8442
161.337
132.646
198.442
162.937
475.64
641.002
231.6
605.758
433.635
859.506
620.997
231.065
72.2139
89.559
28.8695
101.848
79.3807
130.716
103.581
231.461
327.091
185.99
301.588
225.811
423.892
307.556
193.457
62.2168
50.5669
78.0542
64.1708
146.191
173.974
135.553
174.896
149.595
221.818
177.174
140.641
39.6417
33.5399
49.1475
40.662
115.061
125.371
146.874
131.691
108.862
27.409
24.4152
32.6655
27.9846
101.162
103.445
21.6047
128.112
66.2358
3787.39
2237.53
6.89482
13.2996
15.9441
18.2865
36.5154
43.8804
76.2382
79.3067
74.7775
31.9751
33.0216
595.505
911.082
301.028
845.803
116.359
45.1373
55.1196
22.9487
122.372
95.5454
55.0526
49.2203
93.6061
77.4632
79.7059
84.187
106.023
129.898
119.292
48.4498
43.9146
117.917
108.496
91.3426
43.5985
22.4002
80.4776
319.269
36.5475
45.9959
3733.27
928.813
3181.73
1708.72
3176.35
836.793
793.308
803.783
385.964
395.388
196.559
200.023
132.857
101.337
136.072
72.4868
75.8485
85.3566
81.9298
109.869
830.816
202.311
606.739
675.744
593.305
203.866
690.415
704.139
158.978
927.927
858.469
1086.67
1097.88
149.234
147.147
178.391
176.54
562.402
574.81
524.849
390.076
423.694
343.843
378.384
511.841
754.689
468.457
477.768
434.265
461.765
741.287
90.5142
89.0487
117.527
115.765
280.628
285.979
264.334
233.965
256.3
208.99
227.229
259.326
362.953
301.301
332.741
264.515
291.504
354.997
122.975
56.7946
100.798
129.383
81.3997
98.6241
55.1523
72.7767
130.362
70.5305
157.08
159.002
197.972
189.11
203.592
172.736
184.713
195.03
63.6581
56.1349
45.2075
68.2098
79.7653
58.7509
66.8977
43.9975
75.7639
64.8736
119.137
88.9556
85.7752
99.0553
89.5184
120.57
85.1388
40.2815
37.4337
99.4764
43.3214
41.2319
246.571
68.9748
71.8565
6236.97
6.38503
10.3531
12.9721
14.4182
24.9612
27.9035
175.205
89.2176
98.6024
2845.75
30.3855
35.6364
17.7256
101.431
93.2048
202.098
37.0719
35.1439
87.0525
76.6056
78.07
72.3002
404.422
374.008
149.522
506.399
1819.27
290.058
421.309
144.759
66.4286
66.6398
715.393
1221.83
885.276
100.737
57.6553
54.3876
61.5837
58.6878
103.606
354.328
433.019
184.179
215.398
52.0633
54.2824
108.584
81.3327
80.3367
24.6033
22.0255
69.1547
145.946
692.531
430.353
1025.44
1371.05
1252.26
903.995
442.348
374.349
476.242
454.579
898.396
124.517
64.6751
62.4402
66.4714
65.2519
127.539
157.049
226.857
223.373
185.052
194.542
138.735
225.276
237.011
168.649
511.659
621.914
576.027
501.481
530.815
389.056
414.061
464.817
53.2707
49.9054
81.6642
96.6699
128.363
140.026
124.91
173.383
182.024
143.218
150.656
108.774
250.705
308.627
284.784
265.481
279.561
220.853
229.435
239.137
396.275
358.423
380.96
284.694
300.59
326.486
150.485
143.413
137.66
187.529
176.332
167.137
162.067
159.147
169.104
147.363
156.197
158.688
36.8248
51.7135
57.7748
45.0707
48.7459
35.9615
57.1967
54.3758
30.4476
40.7107
43.9089
61.043
58.1034
49.7104
51.1994
3513.26
5089.56
3250.88
60.7267
77.5293
64.1495
60.4043
65.7765
78.0302
814.574
2256.54
1803.08
2261.32
859.607
114.021
107.352
102.443
102.016
52.3879
78.6461
83.9665
71.3904
77.2241
51.584
87.6949
84.9508
81.1035
81.5601
46.3717
63.6547
68.9262
74.9945
70.2298
3096.04
1943.34
1812.86
1929.59
1955.66
3012.03
736.247
862.259
362.251
422.816
187.156
211.42
111.778
116.639
119.984
112.871
115.654
108.903
127.279
134.051
121.41
125.706
74.109
57.8629
56.1731
59.9938
58.2029
74.5847
55.3833
59.1328
664.256
376.031
365.351
374.346
378.239
679.124
350.899
328.4
364.498
357.891
701.149
363.546
374.622
886.924
875.942
1466.37
1407.03
1045.5
1642.26
1814.77
1906.9
1690.33
1778.26
1111.78
1598.71
1509.48
212.446
224.27
155.394
261.087
252.066
252.479
263.002
233.205
222.575
248.404
236.864
140.749
197.9
208.642
319.616
301.322
322.362
320.855
270.221
254.983
294.652
275.945
170.598
241.603
256.594
523.531
610.131
460.204
490.395
565.669
475.677
422.94
450.528
118.201
125.229
95.0342
142.638
134.242
170.818
147.549
124.09
115.929
132.098
126.083
162.74
170.641
123.067
206.1
197.193
219.059
209.222
183.933
175.369
194.403
186.259
110.463
152.971
160.236
260.912
303.068
248.435
260.941
279.619
244.033
233.21
244.357
330.933
351.118
387.445
333.377
306.398
324.383
125.771
113.244
74.676
70.3498
80.5933
76.1568
120.259
88.1395
64.3193
63.8732
69.0683
65.4816
91.1408
102.376
96.9904
112.428
104.344
132.218
87.0127
82.0648
95.1545
89.007
134.367
154.594
145.779
152.114
152.232
161.665
136.812
148.771
165.691
164.727
172.984
158.841
60.3946
105.774
107.462
87.2047
103.241
59.3187
102.72
71.1293
107.465
69.4613
93.5942
109.653
112.051
106.728
108.776
92.1465
91.0695
93.3282
53.2803
50.0896
68.0473
62.2675
64.8681
49.8524
28.0024
11.3157
9.94101
89.8956
108.479
106.853
1868.58
858.736
2250.73
5279.47
1670.55
2068.57
17.6234
30.0162
221.86
63.9644
66.0509
146.75
676.329
748.999
727.695
340.302
454.19
44.4521
41.4026
63.9255
244.801
240.883
223.075
135.818
130.726
140.913
146.677
58.6557
62.9118
286.161
300.831
202.826
1679.49
1623.83
1109.89
185.832
277.183
282.069
487.865
707.068
688.907
627.004
413.882
423.454
443.891
551.731
573.968
672.699
79.2055
48.7859
45.5188
102.243
108.525
83.4252
236.548
253.23
248.898
320.226
295.669
284.976
290.429
414.535
395.806
404.66
295.997
301.704
313.613
77.4134
93.89
99.9622
210.816
208.942
214.769
139.927
137.832
144.667
93.3305
92.6017
37.0825
39.7303
29.7764
94.1664
93.8602
79.2254
78.2094
101.259
3857.48
4503.81
121.042
117.464
117.535
97.9734
91.8239
116.765
117.27
92.2007
95.6776
79.5258
83.949
81.9088
83.1386
58.8902
62.4451
45.7243
103.843
230.274
1372.12
3751.85
3261.39
2726.63
2679.43
2493
2573.36
1736.21
1380.38
2819.39
864.806
846.502
777.678
819.632
877.469
862.295
377.733
404.488
202.02
197.34
193.319
203.689
216.733
208.356
114.893
117.688
102.125
103.622
103.804
120.512
123.296
139.62
129.429
125.841
808.202
625.816
516.058
505.112
556.122
555.629
670.515
466.439
453.709
502.781
518.418
596.254
376.334
358.66
700.789
926.522
1224.21
1246.5
883.172
2419.92
2430.17
261.928
275.567
183.818
441.832
431.295
549.406
586.67
637.542
656.827
803.823
691.1
596.346
617.752
84.8143
110.415
116.175
275.041
291.649
347.715
355.13
370.947
347.479
333.403
340.426
123.305
103.403
88.3329
86.4034
104.012
101.904
127.854
87.3838
92.1749
75.0658
140.905
139.506
147.503
144.812
131.008
108.24
106.042
137.408
133.823
198.043
203.374
207.353
186.891
188.064
192.919
73.1509
58.1831
56.3977
61.9252
60.0351
74.9311
87.3617
101.739
105.886
99.3653
100.554
86.9837
96.4718
100.141
101.055
87.1443
86.2166
98.1831
88.1222
77.3925
74.959
94.6848
41.7019
54.0322
57.5816
50.701
53.1036
42.2027
104.529
65.6797
55.4626
54.0306
70.3599
3010.46
4111.26
2982.55
100.209
97.5512
52.5225
51.3369
239.588
81.787
96.0017
97.4794
95.8456
95.7784
78.6744
401.533
117.793
74.0794
747.804
1407.22
4051.62
789.506
769.615
695.469
1218.99
1106.2
1102.65
1052.41
1079.07
347.015
443.718
195.604
199.407
186.101
191.18
219.238
236.953
232.879
52.9762
52.0298
50.8125
54.8797
53.364
53.7683
1331.68
1192.39
1231.51
1122.76
1154.62
1290.44
499.85
618.673
675.673
678.499
454.277
433.27
443.356
263.37
257.532
242.605
314.267
274.685
279.719
290.089
378.798
387.208
405.367
319.876
307.623
313.79
183.1
173.952
179.105
166.624
169.999
179.564
91.5889
89.9638
93.8434
94.175
59.9946
72.5545
73.9157
47.7816
48.7832
50.034
47.5564
47.1146
49.6888
48.6783
50.5279
4397
4394.06
3660.46
5214.95
5448.03
4295.04
3828.6
4989.96
4889.44
5945.29
62.7191
65.5324
66.3689
64.7088
65.0425
61.5503
69.3966
68.9306
70.4341
67.3603
68.2717
67.5107
2209.69
1507.12
1600.06
1643.98
1578.8
1711.87
1709.1
118.489
101.519
117.882
119.564
102.424
102.313
69.7873
68.2991
81.7964
112.791
115.56
89.9474
111.704
111.446
113.32
82.0752
101.457
108.174
76.7097
75.9746
80.6642
75.466
77.5129
71.8854
73.5997
82.1633
80.0188
78.4061
73.5429
95.5738
95.8321
92.6898
94.7329
72.03
2663.13
2713.27
3182.8
2999.69
2649.36
2620.26
947.939
757.625
827.477
808.701
997.966
1025.7
947.86
970.317
369.957
413.528
210.724
214.272
203.331
207.147
190.201
193.41
189.844
228.407
222.868
207.442
219.09
109.081
112.261
106.346
105.349
107.147
129.283
132.756
129.713
138.62
135.679
131.559
122.827
120.282
118.107
126.657
122.773
124.247
126.487
59.3231
63.9843
64.3831
56.4233
57.6987
806.847
545.57
530.642
646.07
690.269
560.299
556.708
491.74
479.422
380.407
390.369
335.543
511.318
502.44
1130.49
1181.73
908.829
1544.26
900.584
1073.32
1087.12
1436.39
1307.56
1332.32
1266.82
1292.64
1441.5
1598.63
1600.44
1860.61
2098.09
2039.81
2149.36
2160.67
1894.9
1736.73
1990.66
1982.9
1782.35
258.568
255.5
254.22
293.64
296.259
299.786
264.803
229.625
226.092
244.613
240.738
314.859
369.083
373.772
356.848
363.432
308.269
318.427
365.466
371.502
377.862
365.425
318.038
424.551
429.503
264.735
314.054
320.768
301.506
307.598
259.526
288.185
342.054
349.574
327.672
334.759
281.929
535.791
598.109
139.234
163.878
164.972
161.806
162.962
136.562
164.441
166.679
170.068
155.465
121.899
151.697
153.86
142.172
147.909
119.227
130.05
158.853
160.412
155.422
157.162
128.053
202.974
199.92
215.588
212.376
181.416
178.7
191.63
188.839
268.354
297.439
379.058
362.735
370.607
320.162
326.672
340.333
123.863
93.4003
90.6268
107.136
125.024
99.4498
96.4947
142.71
141.94
100.54
115.501
117.51
109.237
127.082
134.13
119.813
122.757
106.566
143.649
143.252
114.89
110.959
131.481
128.75
121.339
151.275
151.409
153.623
147.219
149.252
148.398
155.361
158.423
140.171
145.352
141.715
145.064
169.118
160.753
163.558
155.923
158.301
164.76
106.86
82.6972
81.0033
86.0659
84.3082
107.31
92.6356
73.9062
71.6224
78.9701
76.4898
98.956
104.293
110.195
107.72
111.462
111.151
107.434
91.5328
88.2725
103.421
97.0265
108.79
98.3523
99.2667
95.0453
88.971
95.6345
87.0153
82.7251
65.789
83.411
89.051
75.7415
78.5599
63.816
93.4201
93.486
52.1835
48.2083
9.62545
9.70783
10.0133
9.76957
9.90932
10.1012
9.94187
9.94115
10.143
9.91617
9.87862
10.1391
8.89714
8.9649
9.24232
9.05527
9.60953
9.60255
9.9
11.4733
9.91092
11.6105
10.7032
9.93296
10.4485
9.78778
9.76048
9.60971
9.36797
9.54833
8.35828
8.60637
8.85246
8.88032
12.5502
9.759
10.9518
14.8202
10.7984
30.2498
24.3372
12.5696
13.3694
11.2765
10.5894
10.4578
9.3103
9.27692
7.87965
8.32353
8.53821
8.85142
9.4945
9.40451
18.1794
25.5032
22.2415
72.9445
24.8555
16.6729
13.5224
9.82093
9.49049
7.41582
7.92789
8.237
8.66796
9.64975
9.65054
29.2707
44.7005
43.4533
163.757
57.9778
45.8811
18.5816
10.8432
10.2861
6.96003
7.43815
7.81053
8.25921
9.37754
9.4832
30.4418
43.9013
44.8013
154.911
73.0963
70.4469
22.733
12.0009
11.4334
6.52573
6.93443
7.31043
7.72076
8.78119
8.94914
25.2393
33.7497
35.0876
120.123
69.3598
71.9367
24.7912
12.944
12.5085
6.12327
6.46343
6.81229
19.4877
24.6055
25.5544
94.51
60.6109
63.9548
25.3398
13.5959
13.3036
5.75279
6.03141
6.35162
79.2545
56.1056
58.1662
25.1256
14.0207
13.8305
5.40749
5.57969
5.75388
5.89693
8.9395
10.0115
11.5859
18.9349
21.1241
225.99
117.848
82.1237
67.2929
30.781
31.6343
22.115
14.5573
14.1953
5.09435
5.2499
5.41114
5.70128
7.70617
8.60806
9.48831
27.3462
35.7926
58.1575
65.0492
83.9581
60.7386
33.5201
30.4389
21.7974
14.9306
14.7413
5.31701
6.40298
6.74101
9.04032
16.6541
25.0549
39.7899
44.1665
58.7018
43.9341
32.0464
33.0431
41.8393
39.8521
26.1369
184.67
312.01
369.503
76.8479
109.487
68.7734
45.5277
46.0527
31.0908
226.194
337.548
311.887
378.481
387.76
221.494
36.4422
37.7995
27.5026
171.516
214.603
198.124
303.274
278.081
208.178
26.5536
27.6065
21.4915
126.59
149.026
138.054
193.135
179.658
151.94
100.955
114.659
112.039
133.883
129.994
115.182
21.881
24.0523
13.9438
238.936
55.7542
54.9975
210.936
181.261
403.285
109.61
107.378
94.7097
55.8516
17.9793
11.6152
5317.47
4051.36
5439.74
11.3275
17.2906
28.0884
5957.14
6069.22
28.3279
37.7062
55.0758
12.0743
21.4124
14.8433
9.62387
9.57032
8.82687
16.9653
11.0334
11.3417
10.3378
10.6902
16.0656
1074.82
1657.32
1686.86
651.27
860.735
578.563
41.4778
28.5554
88.7894
15.1702
20.389
24.5759
14.3893
16.9232
13.4995
9.56515
9.62099
8.58446
21.6298
11.9113
11.9614
11.5972
11.7892
21.3432
46.1459
45.5907
29.9645
140.151
109.791
108.585
111.816
112.358
149.514
1016.21
1003.4
924.574
68.8146
61.306
166.968
24.2566
37.7546
41.2823
29.1222
33.6255
21.9023
9.1069
9.2511
8.13186
21.0804
11.7017
11.5029
11.9397
11.8505
21.3774
41.6971
42.8571
30.0015
95.1007
80.1953
78.1096
92.6952
90.6383
109.447
72.5654
73.3212
150.64
31.3204
47.5872
48.3931
44.0973
46.1847
30.0068
8.42811
8.60654
7.57983
17.7194
10.7161
10.4226
11.2656
11
18.1782
31.1637
32.4376
24.4676
62.0404
40.4159
37.6364
60.7579
59.0477
67.8918
178.733
179.786
176.872
65.0861
68.3411
116.252
33.8223
48.2471
47.6517
48.701
48.6201
33.5405
128.882
120.634
117.897
142.327
140.948
143.446
60.4679
62.9875
92.1101
33.5748
45.3286
44.4977
46.9002
46.0546
33.7756
106.137
99.6894
98.5078
107.088
105.825
112.444
15.2723
18.24
12.0221
63.6332
21.2251
18.7407
34.3207
31.7723
112.773
88.9559
86.7194
151.895
90.5057
97.2292
87.4824
106.214
101.407
85.0374
149.394
109.851
110.978
50.2632
56.846
144.223
24.7608
37.5088
34.8271
196.519
313.536
300.211
114.655
177.293
149.26
273.142
265.743
178.917
979.144
1063.37
1036.47
1196.76
1232.18
1100.45
235.404
270.609
166.733
891.777
694.021
667.943
708.069
719.612
865.479
118.419
96.7263
94.7276
107.276
105.83
133.042
31.0427
46.3501
46.3907
159.871
178.444
179.793
146.437
148.778
134.678
181.602
183.825
164.768
367.916
345.783
229.828
592.677
565.998
578.185
821.021
675.7
692.964
592.032
606.337
637.477
227.808
386.525
374.102
74.4822
64.3195
62.5158
76.0349
73.9857
86.8388
28.2086
39.1422
40.4489
100.077
109.289
111.368
85.6618
87.1805
80.705
128.73
141.873
144.143
113.39
115.363
105.345
240.179
220.607
178.648
222.573
226.22
230.002
200.913
270.011
247.254
60.3335
70.1936
73.9431
56.4829
58.1627
52.0386
76.8035
82.6803
84.1592
75.2244
79.3845
66.206
147.551
145.264
143.782
173.993
171.21
171.633
161.289
152.011
130.878
168.143
171.511
175.232
152.124
154.964
152.467
218.041
215.568
218.882
179.211
183.492
184.281
146.108
175.597
164.615
38.6637
42.8163
43.9434
36.9467
37.8352
34.3272
47.783
53.3111
54.8691
45.1191
46.3473
41.7268
116.398
109.662
108.354
116.991
114.232
123.794
144.359
146.835
149.409
130.124
135.654
137.675
111.912
126.371
123.01
25.8311
33.8821
36.2667
31.6635
33.2167
25.4109
31.8832
35.2181
36.0688
100.884
79.7864
81.5795
31.8666
28.7109
19.8947
106.518
40.0735
47.7129
33.1924
39.9687
97.2975
2920.06
3359.82
2617.15
14.3529
9.54122
9.25853
10.1258
9.83089
14.7301
22.8491
23.7044
18.874
39.388
29.5955
28.3857
32.2214
30.8761
40.4374
76.6355
70.597
70.2769
73.6885
73.243
78.9272
52.8499
54.3233
77.9336
680.451
961.01
841.207
1203.59
1210.54
900.921
583.653
198.21
102.913
343.76
235.506
666.684
91.0634
150.232
193.93
49.1451
33.4611
33.625
36.7439
34.2578
50.554
22.2106
28.7496
29.9324
54.1011
59.8688
61.0151
53.8769
54.8845
49.9992
80.1909
75.0835
74.235
119.921
117.169
103.397
125.035
123.599
128.332
119.643
121.846
123.592
47.7271
51.9415
52.8865
47.3209
48.0308
44.5008
113.921
115.265
117.404
111.676
113.367
112.558
92.9479
105.323
103.446
31.9042
95.7448
196.722
32.0019
71.2244
27.7369
308.447
104.8
40.248
223.956
317.309
462.483
38.9265
139.209
71.7002
217.294
167.482
42.6009
1386.59
1622.56
1009.42
2588.17
1296.85
975.183
2630.22
2549.17
3141.89
712.438
1033.16
1197.55
124.653
121.614
130.854
137.081
134.388
133.215
73.0512
67.5228
66.9358
69.9627
69.6019
75.398
83.9657
97.0423
98.2028
94.8811
95.9327
83.4638
111.153
104.582
103.348
310.434
313.795
199.89
204.101
305.075
309.952
703.695
565.369
561.145
543.004
549.66
708.886
169.9
255.492
242.006
1207.69
1189.32
1074.64
1106.24
1243.45
1226.93
166.454
169.128
151.422
144.954
161.175
163.804
202.191
204.548
180.256
174.556
196.94
199.622
500.103
512.414
538.441
401.632
447.856
432.143
478.382
463.473
412.881
355.179
386.873
372.703
416.659
401.514
366.71
499.293
476.254
488.025
707.775
720.751
769.69
473.514
563.962
552.292
582.339
574.225
476.764
444.343
509.608
493.908
539.321
524.943
453.636
726.561
681.795
694.888
98.1127
99.7726
91.9733
87.6289
94.8922
96.487
129.055
131.117
119.372
113.962
125.037
127.037
255.679
260.317
269.394
241.045
252.697
244.892
269.678
260.939
248.482
214.738
224.288
217.936
237.554
230.726
220.83
254.193
246.715
251.131
311.436
333.355
321.358
359.047
345.937
321.938
273.11
288.685
278.925
309.885
299.014
282.118
63.6807
68.9732
58.5114
83.2404
73.6395
72.1358
84.6378
82.8905
96.4726
53.5687
59.9601
61.802
68.3331
80.9447
85.8057
155.304
153.44
155.413
160.753
159.215
157.263
197.236
199.909
200.965
193.703
200.983
195.896
211.937
206.311
198.519
176.535
182.032
177.884
191.03
186.407
180.528
192.25
191.888
194.391
62.5367
70.9141
72.3149
62.3034
63.7326
57.1683
50.3526
51.804
46.4693
69.6866
62.9868
61.8787
70.7739
69.464
78.1986
62.1048
51.5893
50.1269
54.7179
53.1231
63.3029
42.8384
47.63
48.9622
74.228
87.8634
89.8225
73.8968
75.8397
66.2445
112.513
111.034
117.757
88.3672
94.3506
94.9089
91.5675
92.0084
86.1871
95.4057
95.9362
90.1314
122.099
115.114
113.807
39.3395
47.6983
49.953
44.6054
46.902
38.3902
42.7643
45.9443
46.6215
67.3654
54.117
62.798
66.3033
65.6787
71.2903
10.7526
8.47015
8.23163
8.98317
8.7147
12.0676
25.9027
21.6938
20.9452
23.314
22.4797
26.8826
172.446
170.984
204.09
92.6306
85.5096
95.2465
80.3084
79.6038
95.7181
32.4684
25.1579
24.1995
27.2444
26.1698
33.2136
17.1893
21.2686
22.0381
97.9631
107.256
228.326
36.5753
42.6968
45.6756
40.6669
41.6907
35.9493
76.7666
93.7265
104.61
68.3929
75.9372
74.9427
409.923
262.754
232.857
288.26
587.246
1142.18
236.173
362.232
212.125
1494.39
632.909
366.298
1408.01
1824.91
2377.9
350.149
921.529
520.723
1248.25
1063.93
406.234
111.673
110.838
142.532
66.6301
85.7655
85.8767
85.0191
85.4753
66.7153
906.688
982.751
956.146
84.3832
82.2867
97.9002
56.5825
68.5246
70.0358
65.465
66.9992
55.4971
60.656
74.4159
75.8036
71.5256
72.9881
59.7005
106.512
88.5648
86.4762
186.379
182.989
181.348
102.108
100.871
107.312
82.6499
92.4998
93.7922
90.085
91.2811
81.5167
23.7131
27.7716
30.9469
25.7706
26.7431
22.8537
74.931
33.5312
32.5711
224.676
202.88
131.057
631.012
323.951
354.921
236.404
283.529
593.097
1124.18
1093.75
1003.03
723.417
712.265
902.07
423.878
553.657
570.374
502.859
531.268
401.247
471.928
589.787
587.692
581.751
588.157
464.735
886.064
727.04
728.225
100.597
98.6861
121.46
63.9892
79.6508
80.8037
77.1444
78.4289
63.2594
66.1592
83.6983
84.4251
81.8703
82.8407
65.7685
130.439
104.186
102.435
175.969
177.339
158.543
226.942
199.367
198.525
200.133
199.403
224.007
188.138
165.544
162.833
171.169
168.316
191.295
136.642
151.149
153.585
228.618
204.69
201.997
211.227
207.839
232.643
166.655
186.289
188.883
546.274
555.469
582.617
513.832
525.542
518.194
397.143
409.903
400.959
428.482
419.079
405.615
52.1485
62.3973
63.9276
59.3731
60.8759
51.0229
84.2033
71.9697
69.9971
105.202
107.213
98.3389
132.099
117.829
115.268
123.12
120.503
136.171
137.466
139.653
126.839
176.183
155.035
152.55
160.18
157.577
179.06
145.908
127.831
125.561
132.111
129.99
148.333
107.028
117.281
119.199
269.942
274.248
269.463
284.366
279.231
274.793
231.488
227.725
226.139
234.453
230.42
234.443
365.674
375.801
367.891
392.281
383.922
373.326
289.735
295.06
289.644
306.506
300.684
295.19
148.282
146.773
149.095
141.431
143.759
145.381
140.619
142.189
139.524
169.411
168.558
165.983
164.35
167.822
165.497
162.3
166.598
163.266
173.928
170.146
165.624
150.085
154.202
151.428
160.116
157.119
153.257
155.479
157.934
161.056
40.6982
41.7359
37.726
54.2129
46.1559
44.94
48.7401
47.4194
55.0795
46.2661
41.68
40.6704
43.8088
42.7242
47.4886
35.1296
38.7528
39.7062
56.2929
68.2267
69.2678
65.816
67.1174
55.3671
33.6061
34.3948
31.1297
41.7319
37.8327
36.9511
39.6914
38.7466
42.7963
70.3086
71.3893
59.0301
2965.9
3780.45
4051.59
71.5638
70.9999
77.0569
78.5005
72.7684
72.2021
1134.38
1058.5
754.121
1217.48
1380.65
2024.04
886.954
1213.66
1191.7
57.8219
58.819
53.2166
80.1139
66.9975
65.7814
73.7545
62.0131
60.5879
64.5846
63.3452
75.6683
50.789
55.8745
56.8511
50.2529
51.0638
47.0207
65.0368
56.6506
55.6201
59.1578
57.8237
66.7586
1920.64
2295.08
2287.46
2216.36
2273.82
1877.6
1953.85
2244.58
2190.84
2275.65
2276.96
1963.37
927.799
900.795
839.808
117.624
112.949
111.774
116.062
114.273
118.695
113.752
108.3
107.252
110.626
109.467
114.693
68.4876
68.0479
73.6317
57.4521
62.4788
62.8768
61.3661
61.9714
56.8808
63.2015
63.5496
58.6429
74.9574
69.2193
68.8706
372.231
443.543
452.17
429.118
435.036
368.217
376.158
458.249
457.427
458.275
459.905
378.04
343.201
400.763
411.457
364.764
431.735
428.188
421.77
429.344
362.878
559.046
564.57
707.883
368.334
453.689
447.008
457.971
457.298
372.48
1061.4
1172.57
1151.44
1258.84
1254.25
1111.07
1582.78
1413.35
1427.38
1363.03
1392.04
1551.81
216.379
190.065
186.699
196.388
193.389
220.437
153.447
171.714
174.071
156.062
158.606
142.908
201.377
177.134
174.106
183.43
180.239
204.957
191.537
194.235
172.616
246.394
218.399
214.758
225.919
222.13
251.392
469.93
490.011
479.517
509.756
500.237
480.065
552.439
524.7
536.237
453.834
464.802
487.106
431.869
448.227
438.193
468.985
458.537
441.208
120.327
108.848
106.976
112.927
110.812
122.623
93.4985
101.492
103.291
165.301
145.371
143.064
150.117
147.723
167.943
121.183
133.203
135.325
121.117
123.07
112.235
155.342
136.393
134.236
140.806
138.583
157.772
252.428
255.87
251.545
264.818
260.303
256.739
274.504
265.028
269.805
238.394
242.461
249.024
236.766
239.278
235.402
247.322
243.249
240.605
337.393
345.538
338.546
360.178
352.741
344.267
312.117
318.687
312.524
331.693
325.073
318.264
73.2268
80.3697
82.2395
77.0833
78.6498
71.7031
79.1303
88.0229
89.7834
84.2105
86.1683
77.6514
77.2555
75.4466
85.4642
63.2654
68.5156
69.8666
67.8543
74.169
75.6091
71.2844
72.7288
66.6445
94.0332
81.0707
79.1627
111.693
113.607
98.7646
85.2118