/*--------------------------------*- C++ -*----------------------------------*\
| =========                 |                                                 |
| \\      /  F ield         | OpenFOAM: The Open Source CFD Toolbox           |
|  \\    /   O peration     | Version:  5.x                                   |
|   \\  /    A nd           | Web:      www.OpenFOAM.org                      |
|    \\/     M anipulation  |                                                 |
\*---------------------------------------------------------------------------*/
FoamFile
{
    version     2.0;
    format      ascii;
    class       volScalarField;
    location    "2287";
    object      k;
}
// * * * * * * * * * * * * * * * * * * * * * * * * * * * * * * * * * * * * * //

dimensions      [0 2 -2 0 0 0 0];

internalField   nonuniform List<scalar> 
6584
(
3.21382
3.2138
3.21382
3.21385
3.2139
3.21395
3.21411
3.21442
3.21502
3.21599
3.21723
3.2185
3.21923
3.21904
3.21811
3.21683
3.21564
3.21481
3.2143
3.21402
3.21381
3.21371
3.21366
3.21362
3.06937
3.06954
3.06952
3.06953
3.06959
3.06976
3.07011
3.07077
3.07177
3.0737
3.07563
3.07745
3.07869
3.07889
3.07807
3.07603
3.07403
3.07238
3.07116
3.07041
3.0699
3.06961
3.06952
3.06925
2.93669
2.93672
2.93672
2.9366
2.93659
2.9368
2.93721
2.93826
2.9403
2.99077
3.00522
3.00845
3.01054
3.01133
3.01054
2.95454
2.94664
2.94277
2.94027
2.93867
2.93768
2.93717
2.93676
2.93643
2.81434
2.81429
2.81421
2.8141
2.81394
2.81408
2.8146
2.816
2.81899
2.85739
2.87731
2.88563
2.89119
2.8931
2.89112
2.89253
2.83641
2.82616
2.82113
2.81809
2.81629
2.81513
2.8144
2.81391
2.70123
2.70112
2.70093
2.70072
2.70051
2.70048
2.70102
2.70313
2.74728
2.75153
2.76776
2.78563
2.79819
2.79941
2.79452
2.78714
2.78151
2.72523
2.71377
2.70809
2.70471
2.70266
2.70144
2.70061
2.59644
2.5963
2.59597
2.5956
2.59531
2.59526
2.59639
2.6372
2.64297
2.65357
2.69115
2.74519
2.79696
2.78023
2.73257
2.70736
2.68873
2.63356
2.61693
2.60777
2.60227
2.59894
2.59695
2.59562
2.49917
2.49902
2.4986
2.49811
2.49769
2.49764
2.49905
2.5308
2.54641
2.57
2.64359
2.85021
3.41592
3.04655
2.77607
2.66036
2.61686
2.55283
2.52987
2.51638
2.50819
2.50318
2.50018
2.49814
2.4087
2.40858
2.40811
2.40755
2.40706
2.40705
2.40878
2.43563
2.45674
2.49831
2.66196
4.0775
5.40224
3.04386
2.6653
2.56647
2.48309
2.45187
2.43315
2.42174
2.41468
2.41042
2.40747
2.3244
2.32434
2.32387
2.32332
2.32283
2.3229
2.32482
2.34906
2.37277
2.42871
2.6781
5.26189
8.01164
3.47958
2.71758
2.53502
2.42275
2.38182
2.3571
2.34207
2.33269
2.327
2.32299
2.24569
2.24571
2.24527
2.24476
2.24431
2.2445
2.24654
2.26887
2.29306
2.35474
2.64011
5.06569
7.80281
3.79759
2.78031
2.51509
2.36928
2.31826
2.28723
2.26837
2.25654
2.24929
2.24412
2.17205
2.17213
2.17175
2.17131
2.17094
2.17126
2.17338
2.19406
2.2173
2.27809
2.55564
4.43086
6.73598
3.91155
2.82372
2.49894
2.32042
2.25975
2.22267
2.19992
2.18559
2.17673
2.17034
2.10302
2.10317
2.10287
2.10254
2.10229
2.10274
2.10488
2.12403
2.14552
2.20239
2.45117
3.8161
5.88069
3.8789
2.83962
2.48171
2.27455
2.20514
2.16248
2.13607
2.11919
2.10873
2.10113
2.03818
2.0384
2.0382
2.038
2.03786
2.03842
2.04055
2.05833
2.07772
2.12973
2.34547
3.35307
5.36418
3.76837
2.83192
2.46157
2.23092
2.15376
2.10604
2.07615
2.05686
2.0448
2.03606
1.97716
1.97743
1.97733
1.97725
1.97723
1.97785
1.97978
1.97461
2.00937
2.0599
2.23921
2.99976
3.26046
5.0093
3.62592
2.80679
2.43833
2.18941
2.10537
2.05297
2.01974
1.99826
1.98454
1.97473
1.91961
1.91992
1.91992
1.91995
1.92004
1.92067
1.92228
1.91891
1.94601
1.99367
2.13942
2.76064
3.43574
5.15729
3.35225
2.76699
2.33043
2.15404
2.05967
2.00259
1.96653
1.94301
1.92776
1.91682
1.86525
1.86558
1.86567
1.8658
1.86598
1.86658
1.86789
1.86606
1.88827
1.93101
2.07929
2.51893
2.9941
4.49345
3.26456
2.71653
2.29187
2.11894
2.01738
1.95538
1.91608
1.89046
1.87385
1.86207
1.81382
1.81415
1.81431
1.81453
1.81478
1.81532
1.81649
1.81586
1.82015
1.86759
1.99722
2.35688
2.74559
3.75814
3.17491
2.66025
2.2529
2.08383
1.97748
1.91106
1.86868
1.84099
1.82287
1.8101
1.76506
1.7654
1.76562
1.76592
1.76621
1.76665
1.76783
1.76806
1.7724
1.80726
1.9155
2.20752
2.49106
3.12954
2.84268
2.48718
2.21924
2.04956
1.93979
1.86949
1.82411
1.79431
1.77465
1.76093
1.71879
1.71912
1.7194
1.71976
1.7201
1.72053
1.72175
1.72251
1.72684
1.75725
1.86746
2.09399
2.25699
2.61808
2.65454
2.41072
2.17818
2.01462
1.90376
1.83042
1.78222
1.75029
1.72906
1.7144
1.67481
1.67512
1.67545
1.67586
1.67626
1.67672
1.67795
1.67905
1.68334
1.70985
1.80291
1.98961
2.09162
2.34009
2.46033
2.31887
2.12918
1.97775
1.86862
1.79347
1.74282
1.70882
1.68598
1.67036
1.63294
1.63324
1.6336
1.63406
1.63452
1.63502
1.63624
1.63756
1.64176
1.66488
1.74346
1.89681
1.96253
2.12551
2.27316
2.2155
2.07223
1.93802
1.83362
1.75815
1.70564
1.66972
1.6453
1.62868
1.59305
1.59333
1.59371
1.59421
1.59472
1.59526
1.59647
1.59793
1.60202
1.62219
1.68855
1.81434
1.85799
1.95827
2.1013
2.10538
2.00807
1.89483
1.79804
1.72396
1.67038
1.63282
1.60688
1.58923
1.55498
1.55525
1.55565
1.55618
1.55672
1.5573
1.55849
1.56004
1.56398
1.58161
1.63768
1.74087
1.77086
1.82636
1.94851
1.99307
1.93798
1.848
1.76133
1.69038
1.6367
1.5979
1.57057
1.55189
1.51862
1.51887
1.51928
1.51983
1.5204
1.52101
1.52218
1.52378
1.52756
1.543
1.59041
1.67511
1.69646
1.72082
1.81567
1.8825
1.86357
1.79763
1.72309
1.65696
1.60422
1.56472
1.5362
1.51653
1.48385
1.48409
1.48449
1.48506
1.48566
1.48629
1.48744
1.48906
1.49266
1.50621
1.54636
1.61597
1.63164
1.63498
1.70189
1.77676
1.7866
1.74412
1.68311
1.62329
1.57261
1.53302
1.50361
1.48302
1.45057
1.45079
1.45119
1.45176
1.45238
1.45304
1.45417
1.45578
1.4592
1.47112
1.50522
1.56255
1.57434
1.56397
1.60538
1.6781
1.70888
1.6881
1.64136
1.5891
1.54152
1.50254
1.47259
1.45122
1.41869
1.41889
1.41928
1.41985
1.42049
1.42116
1.42227
1.42385
1.42709
1.43763
1.46665
1.514
1.52302
1.50416
1.52393
1.58794
1.63217
1.63038
1.59797
1.55419
1.5107
1.47305
1.44299
1.42104
1.38811
1.3883
1.38868
1.38924
1.38989
1.39057
1.39166
1.39321
1.39629
1.40562
1.43037
1.46956
1.47653
1.4528
1.45507
1.50665
1.55772
1.57167
1.55312
1.51844
1.47988
1.44427
1.41457
1.39227
1.35876
1.35894
1.3593
1.35986
1.3605
1.3612
1.36226
1.3638
1.36672
1.37499
1.39613
1.42868
1.43406
1.40794
1.39669
1.43426
1.48668
1.51279
1.50712
1.48183
1.44888
1.41598
1.38712
1.36475
1.33057
1.33073
1.33108
1.33162
1.33226
1.33296
1.33403
1.33554
1.33829
1.34563
1.36375
1.39085
1.39498
1.36813
1.34689
1.37042
1.41991
1.45455
1.46034
1.4444
1.41757
1.38798
1.36047
1.33833
1.30347
1.30362
1.30395
1.30447
1.30511
1.30582
1.30689
1.30835
1.31094
1.31748
1.33304
1.35569
1.35882
1.3323
1.30406
1.31447
1.35797
1.39767
1.4132
1.40627
1.38588
1.36013
1.33444
1.31286
1.2774
1.27753
1.27784
1.27835
1.27896
1.27971
1.28076
1.28218
1.28461
1.29045
1.30387
1.32286
1.32518
1.29965
1.26684
1.26565
1.30118
1.34279
1.36614
1.36762
1.35379
1.33228
1.30886
1.2882
1.2523
1.25242
1.25271
1.25319
1.2538
1.25456
1.2556
1.25697
1.25926
1.26449
1.27608
1.29208
1.29374
1.26959
1.23413
1.22311
1.24962
1.29046
1.31959
1.32865
1.32132
1.30436
1.28361
1.26418
1.22811
1.22822
1.2285
1.22894
1.22956
1.23033
1.23135
1.23267
1.23482
1.23952
1.24958
1.2631
1.26425
1.24167
1.20499
1.18598
1.20317
1.24106
1.27397
1.28959
1.28853
1.2763
1.25856
1.2407
1.20481
1.20491
1.20516
1.20559
1.20619
1.20696
1.20796
1.20925
1.21127
1.2155
1.22426
1.23575
1.23653
1.21565
1.17886
1.15354
1.16163
1.19491
1.22969
1.25071
1.25554
1.24811
1.23365
1.21764
1.18282
1.18291
1.18315
1.18355
1.18414
1.1849
1.18588
1.18713
1.18904
1.19287
1.20054
1.21035
1.21077
1.1914
1.15521
1.1253
1.12508
1.15274
1.18773
1.21297
1.22313
1.2204
1.20937
1.19544
5.21418
9.22461
6.25182
5.12758
8.68822
9.32304
4.51481
7.20691
8.49894
3.88529
6.21714
7.05077
3.4032
5.6925
6.12944
3.03344
2.78217
3.1726
5.5464
5.65241
3.82664
3.37314
5.66617
3.06099
2.67855
4.39612
3.56044
19.254
15.4532
7.86325
3.7409
3.2472
2.65488
4.45918
4.44901
5.28563
8.38335
9.56461
10.1085
14.3605
7.91606
4.22242
3.89266
2.57968
4.05537
4.42415
4.84619
6.23117
7.03266
5.5106
6.9433
6.86559
4.36209
4.28658
2.47787
3.57963
3.99428
4.18554
4.96526
5.44434
4.95955
4.99827
5.96769
4.2795
4.3562
5.08359
5.10057
5.4131
4.10231
4.24018
5.34489
5.24668
2.82423
2.94492
2.82985
3.23991
5.93048
5.55267
9.71766
10.3651
4.90767
11.8043
10.3865
10.0077
11.8707
14.6921
18.899
8.43917
17.4065
14.8226
7.16349
8.21648
5.26246
8.31273
7.01824
10.1428
8.41519
7.06888
9.90371
9.16822
10.4506
7.80824
14.5416
10.656
9.27543
5.52046
6.1316
4.76559
6.01828
5.40156
6.94824
6.06701
5.03634
5.43813
7.72697
6.12492
5.55573
7.68568
6.20137
7.91525
4.82528
4.47763
5.36542
4.87828
5.09624
4.9784
6.51822
5.36812
5.47082
5.52263
5.36758
6.63732
4.1024
3.86357
4.4316
4.1398
5.22991
5.10368
5.46742
5.47861
5.90774
3.60035
3.42166
3.82794
3.62685
5.68995
5.35537
4.74242
10.3435
8.41185
29.1554
31.1429
2.37161
3.19143
3.52518
3.6244
4.15733
4.47083
3.50993
3.24834
5.16734
3.90489
4.05314
21.2426
20.8434
13.1332
17.465
7.97088
4.52186
4.90552
4.1072
3.31957
3.38297
3.43002
3.40289
3.37348
3.42275
3.20175
2.82407
5.84558
5.48325
5.53478
3.39876
3.36142
5.54243
5.58548
5.56414
7.03053
4.9264
9.26317
13.9298
6.16604
7.19299
27.941
19.1397
27.7881
27.8817
28.6995
18.6896
11.7563
12.154
6.11502
6.20776
4.96607
4.93646
5.03346
2.76983
5.14431
3.73531
3.54448
3.61501
3.82623
5.29188
13.973
11.3232
11.1384
14.7202
10.7713
11.1106
15.2644
19.217
11.7134
20.1087
14.5911
16.899
17.2025
7.63746
7.55411
9.27363
9.16105
8.02127
8.18127
8.86315
10.4236
11.0937
9.57324
10.2044
8.72127
12.571
12.1637
12.655
11.3183
11.9659
12.2588
5.70926
5.66701
6.50016
6.44107
4.90627
4.96867
5.64562
7.64827
8.0294
7.23468
7.53569
5.58859
6.92278
8.81479
9.37369
8.17135
8.64233
6.82405
3.34948
4.67082
3.58637
3.50104
3.62617
3.57751
4.62055
5.10111
3.5319
5.04323
5.04884
5.04053
5.409
6.90869
7.14554
6.64866
6.83771
5.4143
3.44155
3.43003
4.29998
3.63382
3.62057
3.61544
3.63158
4.25828
3.42268
3.44258
5.17629
3.2478
3.57709
2.80695
3.187
5.15738
2.72138
3.2568
3.22289
2.37721
3.3558
3.26648
3.78981
3.9028
3.75424
44.2701
2.26793
2.83345
3.1498
3.21235
3.62943
3.79758
3.46898
5.30733
5.64755
36.568
3.86663
4.11767
3.56566
2.70482
2.70351
2.31958
3.17676
3.11804
2.72379
2.74864
4.04558
4.08834
2.30312
18.6044
12.5105
20.1708
29.4602
15.5367
19.3533
8.89673
7.16056
6.99317
10.7096
12.9349
13.3595
6.55186
6.04618
5.81811
6.35304
6.12301
6.66601
5.7562
6.61531
4.94798
4.88544
2.41815
2.25522
5.30523
3.84997
4.12124
3.3741
3.24682
2.90961
11.474
19.6494
18.7289
15.6023
14.5246
13.3016
16.6415
12.9478
12.5129
12.7731
12.9439
16.2498
7.58466
6.65318
6.42882
6.93114
6.72481
7.7351
8.00372
7.18037
7.7776
6.1148
6.33995
7.23728
7.9353
8.33482
8.72609
7.43908
8.91408
9.63268
10.8423
11.1951
9.10962
9.48843
8.1804
5.7426
5.52332
5.85174
5.88361
5.17693
5.17163
6.7477
5.84375
6.04509
5.19312
5.32448
6.2187
4.96178
5.21898
5.90223
7.25303
7.45834
6.5222
6.77605
5.57066
7.34479
8.64524
8.98678
7.5345
7.77102
6.45281
5.07189
3.85753
4.00085
3.80233
3.66769
5.00521
5.49683
6.44282
6.59279
6.2671
6.40021
5.48877
3.99578
3.57204
3.61087
3.56625
3.61662
3.96195
2.79255
2.79278
3.73548
3.49872
3.54981
2.79264
2.7933
2.61725
2.44648
32.2641
41.8315
32.713
2.12942
3.40833
2.22361
2.35133
2.23851
3.37543
22.627
28.5077
31.799
26.1481
22.4652
3.30945
3.34349
2.78765
2.7231
3.41986
2.88255
2.90022
2.88817
2.87534
3.41432
3.36216
3.3781
3.04461
2.97768
3.38465
2.92587
2.90556
2.74197
2.7356
24.6268
23.5917
24.3625
21.5745
23.169
23.6717
10.925
13.0725
5.83881
6.50644
4.96112
4.8666
2.846
3.95047
3.84085
4.08009
3.98856
2.83023
3.61932
3.58407
3.81281
3.66754
3.66798
2.6529
2.77552
2.45222
2.59203
3.64063
2.17789
2.13726
12.3329
13.2208
12.4151
14.2421
13.4859
12.8098
11.0608
10.3991
12.1313
11.2983
17.0477
15.1065
14.4834
17.8032
16.9959
16.6132
14.9427
15.9265
16.0833
19.0911
20.9804
16.5981
18.4718
18.0222
18.7133
17.0844
6.7597
7.05252
7.90697
6.47529
6.12653
7.31958
6.61068
5.70389
5.48977
6.03215
5.7839
7.31398
6.42047
6.67073
9.11047
8.58078
10.1785
9.36114
7.86503
7.47805
8.42893
7.99875
8.8308
8.46822
8.88853
7.57534
8.73764
10.1915
10.6685
9.37842
8.31134
9.62334
10.0428
5.07308
5.16308
5.83846
4.79024
4.70918
4.61877
4.78203
4.54307
4.51844
4.67484
4.57354
5.59952
5.78059
6.68356
5.17596
5.00442
5.42546
5.23456
4.74175
4.62311
4.94962
4.79454
6.2732
5.37722
5.54156
4.88459
5.15421
7.01217
7.18702
5.83483
5.54539
6.82195
6.95662
8.22864
8.53439
7.23382
6.54042
7.85839
8.1295
3.43149
3.53873
4.31178
4.28048
4.35594
4.32074
3.49687
3.60757
4.21973
4.10656
4.26699
4.23217
3.58769
4.50473
4.44286
4.53393
4.52417
3.63803
4.40528
4.37062
4.42669
4.40903
3.65687
3.80117
3.83809
5.0676
3.36418
3.50256
3.55227
3.35904
3.52943
5.00396
3.62487
3.71852
3.43161
2.83038
2.88773
2.89292
2.82847
3.42989
2.80717
3.41989
2.91038
3.42591
3.01512
4.19794
4.11067
4.30602
4.2239
3.03757
2.59614
2.62097
2.79651
2.79459
2.74849
2.78934
3.29852
2.69421
4.95778
3.10352
2.82826
5.54617
5.72595
5.96173
35.6678
25.7977
35.5165
45.1625
32.3859
36.9339
4.09409
5.52055
11.8836
7.30053
7.20467
9.07155
10.3059
9.57354
9.366
5.58671
6.82873
5.17775
4.98693
5.22299
4.50333
4.44114
4.95828
4.02978
4.08614
5.12061
10.1188
7.29029
7.31333
10.5732
11.1697
10.6345
20.7681
19.252
18.2582
9.76402
9.73808
10.3769
7.18944
9.15907
8.95626
9.67372
8.37444
8.50081
7.93075
11.543
11.8941
11.2591
5.76458
5.45124
5.24517
4.85186
4.9109
5.50944
5.05701
4.64197
4.57199
5.36608
6.04939
6.60523
6.67965
7.56858
8.13052
8.25036
6.7558
6.83464
6.28093
5.21969
4.7924
4.84178
5.42352
6.38775
6.45373
5.4736
6.1394
6.2276
2.48621
2.47425
3.43195
3.48219
3.70616
2.5099
2.49835
4.15515
4.35449
5.45491
30.2816
30.5771
3.29747
3.17599
3.20687
3.38755
3.36387
3.12134
3.14685
3.19719
3.18795
3.41577
2.49873
2.48192
2.87641
2.92198
2.92336
3.37841
9.38469
13.7934
26.0805
26.5014
26.548
26.3234
27.066
21.2876
22.0488
24.4293
23.6941
30.4362
11.0487
10.7987
11.4268
12.4976
11.9768
11.6099
6.01422
6.30126
4.46746
4.48909
4.97743
4.89681
4.31715
4.38723
2.94585
2.94945
3.23699
3.2078
2.76953
2.98017
3.0155
5.12572
4.11926
4.21959
13.3934
11.507
12.3316
11.9546
14.9061
14.4399
14.1263
9.38121
9.15244
11.5134
10.8715
10.2818
16.087
15.2773
17.6338
19.3433
19.1112
20.169
15.2538
19.6272
20.5034
9.03412
9.53042
9.63519
8.93146
8.71952
7.87067
8.35514
13.0152
13.3945
13.4117
11.4747
12.2541
12.6293
5.54843
4.94092
5.03941
4.85682
5.03124
7.47345
7.57503
7.02233
6.72434
7.27547
7.3735
3.38253
3.59074
3.85615
3.85236
3.81352
3.80347
3.47809
4.70137
4.76948
5.16025
3.75996
3.7299
3.98554
3.96559
3.56675
3.84063
3.82755
3.70974
3.71093
6.27555
6.32837
5.40296
5.39327
6.17684
6.22531
3.6179
4.0375
4.01547
4.08292
4.05949
3.61224
3.39466
4.24601
4.32686
4.33393
4.29104
3.44601
2.88152
3.34872
3.28831
2.63952
2.50246
2.66493
2.42213
2.47449
2.46442
2.56697
3.33899
2.95042
2.92856
2.95558
2.95331
3.27605
3.16386
2.60874
2.80382
2.93163
3.82575
34.5589
39.9704
31.8037
2.6917
2.69009
2.73813
2.71582
2.81091
2.74682
2.6666
2.68012
2.62524
2.64665
2.75215
2.87126
3.45847
3.41859
21.9791
29.6793
40.9179
10.0192
9.78978
10.5049
12.4891
12.885
13.5298
12.2336
12.5741
5.66937
6.72061
3.88871
3.93426
3.92106
3.88166
4.91943
4.38454
4.33211
2.39406
2.05904
2.06024
2.04925
2.06273
2.3521
14.1075
14.701
15.0657
13.9683
14.3442
13.6998
7.31151
9.37753
8.764
8.50638
8.05402
8.62923
8.76079
4.741
4.70457
5.04276
5.28839
6.46332
6.53251
5.9734
7.90049
8.01425
7.45564
6.36515
6.91736
7.00329
3.77436
4.07761
3.99352
4.10583
4.10508
3.72435
2.46323
2.45547
2.53263
2.52036
2.79356
2.62979
2.63161
2.05967
2.01549
2.55156
2.19888
2.309
2.07899
2.12158
2.49214
33.5711
32.2702
31.4886
34.2225
40.6433
38.166
38.1426
36.0967
37.4914
38.793
2.23197
2.66628
2.63721
2.77834
2.71667
2.27128
2.26093
2.48035
2.40621
2.61505
2.57512
2.25824
30.5299
28.0534
27.2894
22.753
21.3006
25.8778
24.2861
3.2917
3.37894
3.23561
3.25348
2.76552
2.74367
3.08425
3.08477
2.89749
3.1023
3.10353
3.3583
3.0642
3.03894
3.0799
3.39939
3.15413
3.12181
2.59851
2.70003
3.10609
2.37915
2.37942
2.37105
2.36669
2.91911
2.48392
2.52011
2.73543
2.58649
2.60476
2.5699
2.57295
2.73202
24.7605
25.5503
25.6047
22.5274
22.7759
23.921
10.6427
11.1584
10.5351
10.268
11.586
11.8967
11.0126
11.2943
5.92348
6.39959
4.09948
4.15435
3.98595
4.04033
4.97311
4.47999
4.4579
4.29008
4.28304
4.86776
4.18699
3.05396
2.98024
2.79724
3.18594
3.14592
3.59712
3.12149
3.11976
3.20381
3.15641
3.59009
3.7761
3.32864
3.36862
3.15941
3.23578
3.7257
3.0331
2.50098
2.88285
2.83599
2.14097
2.13198
12.6858
13.0618
12.6914
11.8962
13.305
13.9267
13.4687
9.89332
9.6233
9.95881
10.1861
10.6164
10.5357
10.202
17.1867
18.1071
18.5701
19.7464
15.9454
15.338
16.3273
16.089
16.458
16.9271
15.4664
15.9278
15.3404
14.9848
15.5919
19.6848
19.3166
18.671
20.8811
19.9074
20.3078
17.124
18.0488
17.3275
17.628
6.34765
6.23089
7.10067
6.535
6.66551
6.32279
6.7447
5.62817
5.55701
5.94507
5.86324
8.90869
8.2455
8.46678
7.8576
8.03942
8.73781
9.94314
9.4834
9.73139
8.68598
9.17111
9.67162
8.49801
8.17102
7.73602
7.01595
7.13721
6.78351
6.89929
7.60963
8.28173
7.54787
7.69662
7.2655
7.40257
8.13788
7.72498
8.54859
4.77191
4.38254
4.43865
4.27825
4.32766
4.74249
4.65101
4.487
4.5093
4.7201
4.51974
4.04991
4.07559
4.08473
4.05117
4.51039
4.64053
4.19176
4.23342
4.11316
4.15208
4.60662
5.11964
5.06323
5.36201
5.29659
4.69437
4.65279
4.89761
4.847
4.84754
5.0921
7.12552
7.67979
7.78851
7.09123
7.18144
6.63016
3.41341
3.83776
3.8522
3.58032
3.47425
3.80367
3.81773
3.83447
3.79517
4.48354
4.15777
4.18046
4.54282
4.19989
4.14437
4.20014
4.21101
4.53866
3.92504
3.87793
3.83555
3.84694
3.6038
3.73744
3.7875
3.83012
4.28246
4.25671
4.30868
4.29619
3.83381
3.40272
3.45415
3.4661
3.27133
3.2479
3.39559
3.6164
4.12181
4.10592
4.215
4.16374
3.65089
2.84504
3.02859
3.0249
3.04219
3.03555
2.86532
2.86639
3.06204
3.07719
3.02893
3.04315
2.84317
2.81886
2.97036
2.9671
3.01205
2.98806
2.93236
3.03707
3.04477
2.98239
3.00841
2.94716
3.44288
3.40227
2.97477
2.59926
2.65149
2.45551
2.46519
2.76592
2.59975
2.58138
2.63107
2.62288
2.78084
2.5594
2.54693
2.28093
2.1262
2.72137
2.73903
2.77683
2.75047
2.77715
2.79313
2.783
2.78145
2.80004
2.77589
2.76551
2.79811
2.61021
2.62856
2.66408
2.64853
2.76359
2.72886
2.82192
3.13367
2.78843
3.15916
2.97442
2.79026
2.92315
2.78768
2.75241
2.75042
2.69863
2.71813
2.53316
2.59407
2.61567
2.65397
3.40492
2.80526
3.06414
3.77866
3.01192
5.78951
5.03168
3.34276
3.47531
3.101
2.96018
2.95024
2.72099
2.69731
2.4639
2.57271
2.58961
2.66963
2.81
2.77837
4.32
5.22258
4.86286
6.69292
4.46705
3.84453
3.3725
2.84129
2.7713
2.39229
2.52288
2.5635
2.67406
2.89116
2.88057
5.2879
6.30017
6.30728
8.17182
5.65323
5.34153
3.73775
2.99378
2.91928
2.31653
2.44506
2.50537
2.62239
2.86243
2.87951
4.99735
5.6745
5.78363
7.41073
5.78709
5.83154
3.89992
3.10448
3.05687
2.23994
2.35558
2.42309
2.5304
2.75016
2.78289
4.34774
4.76367
4.87244
6.3749
5.40542
5.57343
3.89677
3.15226
3.1358
2.16564
2.26622
2.33287
3.74958
4.01658
4.09652
5.65197
4.94145
5.11098
3.80033
3.14841
3.15568
2.09449
2.18022
2.24432
5.24756
4.64354
4.73279
3.66272
3.10975
3.13247
2.02617
2.08119
2.11678
2.16483
2.62019
2.78218
2.88688
3.2287
3.37353
3.33051
4.15948
3.93578
5.12584
3.73554
3.85822
3.41964
3.05778
3.08275
1.96199
2.01155
2.04592
2.12261
2.42329
2.56874
2.58438
2.84159
2.94218
3.08813
4.92157
5.80886
4.96537
3.78782
3.69713
3.30634
2.98734
3.0223
2.03752
2.21428
2.27894
2.44201
2.62493
2.79692
2.91
3.52676
4.56817
4.12321
3.68704
3.7569
6.28572
6.22965
5.14103
9.06122
11.182
11.6305
7.38966
8.22239
6.84655
5.88762
5.98495
5.18185
8.86701
10.0066
9.47627
11.6362
11.4343
9.36056
4.98402
5.0979
4.59904
7.37197
7.61589
7.31592
9.30411
8.81119
8.30431
4.1807
4.26981
3.95702
6.31198
6.44524
6.3241
7.22548
6.98416
6.90383
5.73818
5.9677
5.93129
6.25494
6.19133
6.04924
3.42346
3.57585
3.16007
2.90819
2.64185
2.6657
3.31189
3.05666
3.08651
5.90002
5.8743
5.61771
7.82544
4.29547
3.20261
50.7314
46.0793
47.1737
3.11484
4.18145
5.58302
51.1874
52.6868
5.08463
5.80926
6.62029
3.2495
4.65163
3.71514
2.86297
2.83894
2.67548
4.13249
3.14535
3.21572
2.97656
3.06325
4.00721
19.3976
22.2864
21.218
18.2857
19.8655
16.8156
5.20054
4.67082
7.06866
3.57633
4.06128
4.30493
3.55086
3.80178
3.40794
2.89039
2.89438
2.66624
4.51821
3.32504
3.32714
3.26995
3.30638
4.51908
6.21891
6.26917
5.2948
8.55217
8.14743
8.02355
8.81948
8.72438
9.41389
14.0144
13.5619
14.0091
5.82476
5.72029
8.14733
4.13544
4.82286
4.91456
4.51748
4.69088
4.02523
2.81314
2.84001
2.60209
4.23158
3.2528
3.20892
3.31432
3.28873
4.28586
5.44643
5.56167
4.92385
6.33439
6.30883
6.21173
6.93868
6.82804
6.90627
5.62522
5.75513
7.27278
4.35405
4.9892
4.96439
4.96953
4.99269
4.32981
2.68045
2.71578
2.50437
3.7515
3.05121
2.99551
3.15945
3.10632
3.81131
4.55563
4.65792
4.26578
5.1553
4.92448
4.74927
5.44121
5.36615
5.36678
4.94421
4.43488
4.47268
5.16995
5.34643
6.26489
4.31285
4.80644
4.73765
4.92292
4.8691
4.33911
5.06624
4.35655
4.42687
4.79744
4.80959
5.10794
4.83275
4.94184
5.58519
4.15026
4.51966
4.44669
4.66519
4.59142
4.19654
5.33314
4.99226
5.01206
4.8571
4.88228
5.26234
3.01082
3.18059
2.89049
2.93065
3.20477
3.06633
3.10948
3.08537
2.88354
4.77096
5.13228
3.41247
5.94749
5.92337
5.65627
6.03521
6.05645
5.65802
9.8645
8.98485
8.90677
7.04326
7.25297
10.2173
5.04009
6.1336
5.98997
11.6776
13.0963
13.5846
10.6312
12.7965
12.0548
13.4877
13.6807
11.896
14.9989
14.7626
14.4095
19.341
19.224
18.6813
10.2955
10.6836
8.8146
17.2323
15.7726
15.7581
14.4697
14.7817
15.3573
7.29874
7.16677
7.0516
7.89925
7.7746
8.05195
5.22732
6.07409
6.15294
8.20818
8.13093
8.25446
6.84891
6.92238
7.08943
8.37384
8.49034
8.51892
10.7096
10.1852
9.0294
10.225
10.6525
10.8576
13.6822
13.7639
14.1254
11.0582
11.2511
10.8545
9.34236
11.317
10.8759
5.59885
5.59635
5.51777
6.11686
6.02434
6.0355
4.6829
5.21348
5.32997
5.97316
5.80461
5.84548
5.28062
5.31218
5.43613
6.87998
6.70692
6.77709
5.88977
5.93688
6.11544
8.09037
7.72626
7.54561
5.99358
6.02246
5.5787
8.10854
8.65589
8.22339
4.77358
4.4979
4.54934
4.34714
4.38606
4.52447
5.32973
5.21647
5.24921
4.56785
4.61968
4.93228
5.0878
4.76838
4.78422
4.52014
4.55738
4.99373
6.65996
6.49812
6.41
5.35733
6.0285
6.05857
5.87063
5.89134
5.47527
5.4857
5.92429
5.95659
6.0924
6.13195
5.38044
6.76598
6.91194
6.71818
4.06597
3.99976
4.03161
3.81877
3.84804
3.89622
4.38664
4.27186
4.309
4.06404
4.09708
4.17822
5.21291
4.8029
4.83021
4.44798
4.50631
5.12447
5.4665
5.83454
5.85153
6.04998
6.11077
5.47228
5.97554
6.13323
6.08097
3.52518
3.36474
3.41555
3.26104
3.33697
3.49743
3.79603
3.76034
3.78928
5.50319
4.48938
4.62284
5.79255
5.53583
4.54433
9.95543
6.52121
6.93035
6.03335
6.56076
9.68786
34.5661
35.2485
32.2088
3.3246
2.83301
2.78179
2.94014
2.88584
3.3722
3.86789
3.94047
3.68571
4.28315
4.1454
4.06577
4.31393
4.22829
4.32791
3.47495
3.11326
3.15875
2.84845
2.91024
3.29528
4.5075
4.56769
5.21853
22.0368
24.9714
24.2167
21.5284
22.6105
21.4978
16.1234
10.3417
8.43281
12.2269
10.9164
16.7333
7.4303
9.03215
9.73915
4.68108
4.47969
4.40156
4.692
4.53216
4.73537
4.03099
4.36179
4.45687
3.42833
3.2658
3.26564
3.25463
3.25391
3.40577
3.15689
2.75161
2.79321
6.03534
5.99843
5.78929
5.50337
5.9851
6.02947
5.92461
5.96388
5.51266
3.39516
3.25624
3.2557
3.2389
3.24183
3.3666
5.56467
5.92123
5.92196
5.94009
5.9275
5.56957
5.58818
5.85418
5.83969
6.02264
10.2874
14.099
6.01659
8.96068
5.57903
16.6374
10.6588
6.75892
12.3537
14.4511
16.4115
6.47601
11.3012
8.14749
14.5849
12.4433
6.81507
22.3272
22.4997
19.366
30.4202
23.5603
21.7696
27.6343
28.0525
29.4893
17.9002
20.8924
21.5535
4.24494
4.32984
5.05021
5.13508
4.86593
4.87879
3.71494
3.41307
3.43684
3.20323
3.24328
3.57634
3.71632
4.41352
4.37495
4.48819
4.45114
3.74517
5.27759
4.9067
4.9298
12.2591
12.8954
11.5139
10.8787
11.3781
12.0404
15.8219
15.7781
15.3453
18.0176
17.7097
18.7235
11.8483
13.787
13.7692
17.0254
16.6324
16.5826
17.4915
17.7625
17.3991
7.49186
7.58205
7.72404
7.4723
7.31977
7.4047
9.33885
9.4706
9.39116
9.04816
9.08429
9.21044
9.47342
9.63042
9.01315
10.6458
10.733
10.4664
11.2794
11.0071
10.87
9.77841
9.71586
9.48245
10.2084
9.95765
9.98895
8.58374
9.17922
9.32411
12.8172
13.0668
12.8682
12.3465
12.9945
12.7184
13.5058
13.2582
12.5117
11.54
11.8528
11.565
12.4323
12.1422
11.7568
11.9665
12.3132
12.5599
5.56603
5.6059
5.75096
5.62722
5.48875
5.52689
6.32035
6.38096
6.55967
6.3844
6.20368
6.26119
6.21511
6.27312
5.70731
7.76805
7.53892
7.41812
7.80679
7.6682
7.89502
7.3298
7.11041
7.01427
7.30632
7.2046
7.43024
5.54915
6.12228
6.16352
8.99405
8.83695
8.64112
9.25793
9.04291
9.1807
8.32058
8.11113
7.95436
8.45434
8.27797
8.47779
4.49373
4.48148
4.72316
3.62798
3.85138
3.84874
3.84564
3.83996
3.57093
4.57196
4.42165
4.45759
4.98709
4.63429
4.68113
4.67985
4.69734
5.05754
5.02504
4.62816
4.65627
5.8067
5.81115
5.39955
6.98343
6.76684
6.69592
6.92463
6.84253
7.06218
6.70786
6.50708
6.45262
6.62875
6.56562
6.77079
5.41331
5.78321
5.79414
3.43848
3.24462
3.24756
3.26221
3.25549
3.43021
4.20018
4.23569
4.34275
3.63207
3.82071
3.81656
3.84149
3.83599
3.6149
3.62002
3.94435
3.92063
3.99196
3.96797
3.6212
4.21771
4.13074
4.16515
3.41999
3.18886
3.19468
3.24725
3.24031
3.44011
4.74897
4.77549
5.19509
3.29824
3.68903
3.64751
3.91481
3.88276
3.53744
3.60103
3.55354
3.12188
5.13948
4.67998
4.7147
3.24716
2.95505
2.95529
2.94621
2.95627
3.2374
3.35093
3.23449
3.23652
3.75467
2.99718
3.44156
3.45865
3.48101
3.77441
2.89124
2.63784
2.59321
2.73213
2.68386
3.03289
3.68405
3.59445
3.53834
3.71466
3.65296
3.74015
4.36481
4.34078
3.53122
5.47288
4.45961
4.47424
4.53104
4.52055
5.58166
3.96983
3.84687
3.77993
3.9895
3.91657
4.00541
3.50928
3.73255
3.79868
2.41032
2.40693
2.55901
3.14813
2.91724
2.8915
2.91398
2.91323
3.12855
4.13631
3.49019
3.43784
3.58883
3.71878
4.17532
2.51173
2.5702
2.70307
16.7312
22.2725
29.3466
15.1673
18.264
14.6127
30.5783
22.7276
18.118
27.2254
30.5446
32.994
17.2375
25.281
19.4123
30.2446
27.2389
18.7308
8.39076
8.27005
8.72315
7.10832
7.70486
7.78533
7.53324
7.6208
7.05399
13.6698
13.1746
12.8459
6.50985
6.40817
6.44123
5.96983
6.23288
6.32243
6.05738
6.14446
5.89338
6.27641
6.59701
6.69021
6.41304
6.50461
6.19981
6.78423
6.71978
6.61363
4.43562
4.42533
4.94061
4.95136
4.97158
5.31806
4.05497
4.54809
4.5224
4.59901
4.57392
4.08926
3.3314
3.24088
3.24568
3.17596
3.20802
3.28895
2.86983
3.00146
2.99614
13.6318
13.3172
11.1191
20.3862
16.0185
16.1796
14.6697
15.5272
20.3069
15.4507
15.1032
15.2908
15.5521
15.6991
16.9729
12.8692
14.3034
14.294
14.1016
14.2425
12.724
12.8617
13.9304
13.7317
14.2223
14.0985
12.9192
15.813
15.0819
15.3427
7.40429
7.28436
7.43915
6.57883
6.97331
7.0685
6.7841
6.87847
6.50464
6.86409
7.35147
7.4434
7.16341
7.25797
6.79632
7.89111
7.6497
7.52603
7.88673
8.00608
8.10562
7.35314
7.76584
7.62023
8.08213
7.9281
7.58155
6.18689
6.63298
6.55908
6.7878
6.70917
6.26188
7.16248
6.9979
7.07548
8.07314
8.35078
8.22124
8.60245
8.47657
8.2041
8.62125
8.6057
8.72197
10.2154
10.4479
9.9519
11.0161
10.9112
10.6781
9.23196
8.92756
8.79988
9.19236
9.0583
9.3604
5.66896
5.88728
5.97152
5.72327
5.80436
5.59497
5.9421
5.93401
5.84613
5.72676
5.76547
5.92724
5.17644
5.51959
5.4939
5.57299
5.54423
5.16948
6.57157
6.63827
6.81274
5.90932
6.3481
6.2812
6.48719
6.41691
5.97688
5.22963
5.65205
5.60913
5.75071
5.69979
5.27466
6.1672
5.9868
6.03852
7.31725
6.97524
6.90824
7.11814
7.04566
7.38883
6.45859
6.42433
6.73787
5.58489
6.04834
6.06528
8.75502
8.43796
8.324
8.67522
8.5549
8.87111
7.60885
7.27026
7.19299
7.43502
7.35115
7.69055
4.73403
4.75127
5.08184
3.90255
4.35696
4.32803
4.41662
4.38854
3.95636
5.00313
4.57749
4.58457
5.96516
5.99473
5.50416
6.4896
6.30963
6.26969
6.4017
6.3536
6.53971
6.3058
6.16472
6.13354
6.23292
6.19855
6.35656
5.48097
5.91373
5.93826
3.93786
3.96849
4.03041
3.5881
3.84798
3.82404
3.89653
3.87219
3.59358
3.58289
3.74737
3.72282
3.79795
3.7724
3.5999
3.92882
3.87759
3.90754
2.79177
2.61832
2.62171
2.61548
2.61567
2.79154
3.70451
3.73194
3.76423
3.51575
3.65076
3.62754
3.69856
3.67448
3.53292
2.62501
2.62773
2.79369
32.7103
35.2557
34.6882
3.03835
3.07215
3.44082
3.33821
2.96462
3.00593
25.0321
25.2193
22.4903
27.7424
28.2354
31.73
22.0629
23.6232
24.4745
3.26056
3.26362
3.42396
2.89062
3.08189
3.07783
2.87519
3.07449
3.08055
3.07414
3.07251
2.87162
3.41047
3.25494
3.25724
3.25262
3.25514
3.38987
2.92565
3.09816
3.0981
3.08846
3.09504
2.91943
23.9436
24.9548
24.3782
25.8558
25.4615
24.2071
22.135
22.29
21.6046
23.7428
22.9996
22.6741
12.5537
12.2744
12.793
3.90936
3.46797
3.52762
3.38957
3.41754
3.87125
4.05088
3.6498
3.68256
3.57979
3.619
4.02157
3.3534
3.38553
3.69324
2.70722
3.05466
3.01338
3.11608
3.08855
2.74679
2.96799
2.92402
2.53973
3.60865
3.28068
3.31803
12.9552
12.9932
13.3165
12.3386
12.6721
12.6879
14.0003
14.3657
14.7095
13.6534
14.0065
13.7472
10.8356
10.4197
10.6626
11.8366
11.5631
11.972
10.9224
11.2175
11.5559
16.6231
16.2079
16.4139
14.9123
15.6553
15.9242
15.0403
15.3581
14.7142
16.2543
16.2203
15.8215
18.4515
18.1166
17.766
18.1128
18.2532
18.7061
17.363
17.8002
17.5716
6.85241
7.29947
7.20869
7.499
7.39492
6.94867
7.81312
7.67652
7.77726
7.15521
7.23663
7.39245
6.50189
6.95083
6.86855
7.12048
7.03468
6.58501
8.84
8.96084
8.93933
8.60536
8.86139
8.73039
9.13192
8.9954
8.74588
10.3427
10.0942
9.92959
10.4644
10.2711
10.5031
9.18016
9.80145
9.99468
8.89652
9.03668
8.44762
9.75887
9.47434
9.33108
9.77296
9.62178
9.9008
5.10634
5.39344
5.35694
5.46382
5.4296
5.13754
5.79512
5.64652
5.68699
5.65924
6.09129
6.03072
6.21631
6.15312
5.71939
6.62142
6.44314
6.50654
6.09225
6.14725
6.32758
5.43109
5.85861
5.80391
5.97177
5.91451
5.48559
7.06641
6.7229
6.66675
6.8439
6.78235
7.12783
5.77018
6.33415
6.39734
6.07659
6.09317
5.53206
6.86157
6.52869
6.49372
6.61495
6.56924
6.91037
8.32625
8.00008
7.8989
8.21242
8.10452
8.43057
7.9442
7.61088
7.5218
7.79978
7.70359
8.03717
4.30204
4.09704
4.09656
4.08643
4.09341
4.29134
4.34224
4.09982
4.10999
4.09426
4.09435
4.33046
3.84639
3.84971
3.62236
4.20668
4.04517
4.05191
4.25546
4.06922
4.0776
4.05693
4.06209
4.24256
3.57309
3.8382
3.84128
4.11431
4.13491
4.4624
4.39709
4.14189
4.14067
4.12238
4.13417
4.38489
4.416
4.09693
4.09971
4.12787
4.10911