/*--------------------------------*- C++ -*----------------------------------*\
| =========                 |                                                 |
| \\      /  F ield         | OpenFOAM: The Open Source CFD Toolbox           |
|  \\    /   O peration     | Version:  5.x                                   |
|   \\  /    A nd           | Web:      www.OpenFOAM.org                      |
|    \\/     M anipulation  |                                                 |
\*---------------------------------------------------------------------------*/
FoamFile
{
    version     2.0;
    format      ascii;
    class       volScalarField;
    location    "2287";
    object      massFlux;
}
// * * * * * * * * * * * * * * * * * * * * * * * * * * * * * * * * * * * * * //

dimensions      [0 0 0 0 0 0 0];

internalField   nonuniform List<scalar> 
6584
(
0.0241896
0.0241896
0.0241896
0.0241896
0.0241896
0.0241896
0.0241896
0.0241896
0.0241896
0.0241896
0.0241896
0.0241896
0.0241896
0.0241896
0.0241896
0.0241896
0.0241896
0.0241896
0.0241896
0.0241896
0.0241896
0.0241896
0.0241896
0.0241896
0.0241878
0.0241878
0.0241878
0.0241878
0.0241878
0.0241878
0.0241878
0.0241878
0.0241878
0.0241878
0.0241878
0.0241878
0.0241878
0.0241878
0.0241878
0.0241878
0.0241878
0.0241878
0.0241878
0.0241878
0.0241878
0.0241878
0.0241878
0.0241878
0.024186
0.024186
0.024186
0.024186
0.024186
0.024186
0.024186
0.024186
0.024186
0.0241867
0.0241869
0.0241869
0.0241869
0.0241869
0.0241869
0.0241861
0.024186
0.024186
0.024186
0.024186
0.024186
0.024186
0.024186
0.024186
0.0241842
0.0241842
0.0241842
0.0241841
0.0241841
0.0241841
0.0241841
0.0241841
0.0241841
0.0241847
0.024185
0.0241851
0.0241851
0.0241851
0.0241851
0.0241852
0.0241844
0.0241842
0.0241842
0.0241842
0.0241842
0.0241842
0.0241842
0.0241841
0.0241823
0.0241823
0.0241823
0.0241823
0.0241823
0.0241823
0.0241823
0.0241823
0.024183
0.024183
0.0241831
0.0241832
0.0241832
0.0241833
0.0241833
0.0241834
0.0241835
0.0241826
0.0241824
0.0241824
0.0241824
0.0241824
0.0241823
0.0241823
0.0241805
0.0241805
0.0241805
0.0241805
0.0241805
0.0241805
0.0241804
0.0241811
0.0241812
0.0241811
0.0241815
0.0241817
0.0241818
0.0241819
0.0241817
0.0241817
0.0241817
0.0241809
0.0241807
0.0241806
0.0241806
0.0241805
0.0241805
0.0241805
0.0241787
0.0241787
0.0241787
0.0241787
0.0241787
0.0241786
0.0241786
0.0241792
0.0241793
0.0241792
0.0241795
0.0241797
0.02418
0.0241802
0.0241804
0.02418
0.02418
0.0241793
0.024179
0.0241789
0.0241788
0.0241788
0.0241787
0.0241787
0.0241769
0.0241769
0.0241769
0.0241769
0.0241768
0.0241768
0.0241767
0.0241772
0.0241774
0.0241772
0.0241774
0.0241773
0.0241786
0.0241787
0.0241784
0.0241783
0.0241776
0.0241773
0.0241772
0.024177
0.024177
0.0241769
0.0241769
0.0241751
0.0241751
0.0241751
0.0241751
0.024175
0.024175
0.0241749
0.0241754
0.0241755
0.0241753
0.0241753
0.0241749
0.024177
0.0241772
0.0241769
0.0241767
0.024176
0.0241757
0.0241754
0.0241753
0.0241752
0.0241751
0.0241751
0.0241733
0.0241733
0.0241733
0.0241733
0.0241732
0.0241732
0.0241731
0.0241735
0.0241736
0.0241734
0.0241734
0.0241729
0.0241755
0.0241758
0.0241754
0.0241751
0.0241743
0.024174
0.0241737
0.0241735
0.0241734
0.0241733
0.0241732
0.0241715
0.0241715
0.0241715
0.0241715
0.0241714
0.0241714
0.0241713
0.0241717
0.0241717
0.0241716
0.0241715
0.0241711
0.0241738
0.0241743
0.0241739
0.0241736
0.0241727
0.0241723
0.024172
0.0241718
0.0241716
0.0241715
0.0241714
0.0241698
0.0241697
0.0241697
0.0241697
0.0241696
0.0241696
0.0241695
0.0241699
0.0241699
0.0241698
0.0241698
0.0241694
0.0241721
0.0241727
0.0241723
0.024172
0.024171
0.0241706
0.0241703
0.02417
0.0241698
0.0241697
0.0241696
0.024168
0.024168
0.024168
0.0241679
0.0241679
0.0241678
0.0241677
0.0241681
0.0241681
0.024168
0.024168
0.0241677
0.0241701
0.0241711
0.0241707
0.0241703
0.0241694
0.0241689
0.0241686
0.0241683
0.024168
0.0241679
0.0241677
0.0241662
0.0241662
0.0241662
0.0241662
0.0241661
0.0241661
0.024166
0.0241656
0.0241662
0.0241663
0.0241662
0.0241659
0.0224371
0.0241677
0.0241694
0.024169
0.0241687
0.0241677
0.0241672
0.0241668
0.0241665
0.0241663
0.0241661
0.0241659
0.0241644
0.0241644
0.0241644
0.0241644
0.0241644
0.0241643
0.0241642
0.0241639
0.0241644
0.0241645
0.0241645
0.0241641
0.0236955
0.0241647
0.0241672
0.0241673
0.0241661
0.0241659
0.0241655
0.0241651
0.0241647
0.0241645
0.0241642
0.0241641
0.0241627
0.0241627
0.0241627
0.0241627
0.0241626
0.0241626
0.0241625
0.0241622
0.0241626
0.0241628
0.0241624
0.0241624
0.023935
0.0241518
0.0241651
0.0241655
0.0241644
0.0241642
0.0241638
0.0241633
0.024163
0.0241626
0.0241624
0.0241622
0.0241609
0.0241609
0.0241609
0.0241609
0.0241609
0.0241608
0.0241607
0.0241605
0.0241602
0.0241609
0.0241608
0.0241603
0.0239891
0.0241122
0.0241615
0.0241637
0.0241627
0.0241624
0.024162
0.0241616
0.0241612
0.0241608
0.0241606
0.0241604
0.0241592
0.0241592
0.0241592
0.0241592
0.0241591
0.0241591
0.024159
0.0241588
0.0241585
0.0241584
0.024159
0.0241587
0.0240396
0.0240787
0.024155
0.0241601
0.0241608
0.0241606
0.0241602
0.0241598
0.0241594
0.024159
0.0241587
0.0241585
0.0241574
0.0241574
0.0241574
0.0241574
0.0241574
0.0241574
0.0241573
0.0241571
0.0241568
0.0241567
0.0241564
0.0241555
0.0240551
0.0240881
0.0241444
0.0241563
0.0241586
0.0241587
0.0241584
0.024158
0.0241576
0.0241572
0.0241569
0.0241566
0.0241557
0.0241557
0.0241557
0.0241557
0.0241557
0.0241556
0.0241556
0.0241554
0.0241552
0.024155
0.0241548
0.0241539
0.0240707
0.0240833
0.024134
0.0241515
0.024156
0.0241568
0.0241566
0.0241562
0.0241558
0.0241554
0.0241551
0.0241548
0.024154
0.024154
0.024154
0.024154
0.0241539
0.0241539
0.0241539
0.0241537
0.0241535
0.0241533
0.0241531
0.0241523
0.0240833
0.0240816
0.0241244
0.0241459
0.0241529
0.0241546
0.0241547
0.0241544
0.024154
0.0241536
0.0241532
0.0241529
0.0241522
0.0241522
0.0241522
0.0241522
0.0241522
0.0241522
0.0241521
0.024152
0.0241518
0.0241516
0.0241514
0.0241507
0.0240933
0.0240819
0.0241161
0.0241398
0.0241493
0.0241522
0.0241528
0.0241526
0.0241522
0.0241518
0.0241514
0.0241511
0.0241505
0.0241505
0.0241505
0.0241505
0.0241505
0.0241505
0.0241504
0.0241503
0.0241502
0.02415
0.0241498
0.0241491
0.0241013
0.0240837
0.0241092
0.0241335
0.0241453
0.0241495
0.0241507
0.0241507
0.0241504
0.0241499
0.0241496
0.0241492
0.0241488
0.0241488
0.0241488
0.0241488
0.0241488
0.0241487
0.0241487
0.0241486
0.0241485
0.0241483
0.0241481
0.0241475
0.0241077
0.0240863
0.0241037
0.0241272
0.0241408
0.0241466
0.0241485
0.0241488
0.0241485
0.0241481
0.0241477
0.0241474
0.024147
0.024147
0.024147
0.024147
0.024147
0.024147
0.024147
0.0241469
0.0241468
0.0241466
0.0241464
0.0241459
0.0241127
0.0240893
0.0240997
0.0241212
0.0241361
0.0241433
0.024146
0.0241467
0.0241466
0.0241463
0.0241459
0.0241455
0.0241453
0.0241453
0.0241453
0.0241453
0.0241453
0.0241453
0.0241453
0.0241452
0.0241451
0.024145
0.0241448
0.0241443
0.0241166
0.0240925
0.0240968
0.0241156
0.0241313
0.0241398
0.0241435
0.0241446
0.0241447
0.0241444
0.024144
0.0241436
0.0241436
0.0241436
0.0241436
0.0241436
0.0241436
0.0241436
0.0241436
0.0241435
0.0241434
0.0241433
0.0241431
0.0241427
0.0241195
0.0240956
0.024095
0.0241106
0.0241263
0.0241361
0.0241407
0.0241424
0.0241428
0.0241426
0.0241422
0.0241418
0.0241418
0.0241418
0.0241419
0.0241419
0.0241419
0.0241419
0.0241419
0.0241418
0.0241417
0.0241416
0.0241414
0.024141
0.0241217
0.0240986
0.024094
0.0241062
0.0241215
0.0241321
0.0241377
0.0241401
0.0241407
0.0241407
0.0241403
0.0241399
0.0241401
0.0241401
0.0241401
0.0241401
0.0241402
0.0241402
0.0241402
0.0241401
0.0241401
0.0241399
0.0241398
0.0241394
0.0241232
0.0241013
0.0240937
0.0241025
0.0241168
0.024128
0.0241345
0.0241376
0.0241386
0.0241387
0.0241385
0.0241381
0.0241384
0.0241384
0.0241384
0.0241384
0.0241384
0.0241384
0.0241384
0.0241384
0.0241384
0.0241382
0.0241381
0.0241378
0.0241242
0.0241037
0.0240939
0.0240994
0.0241123
0.0241238
0.0241312
0.0241349
0.0241364
0.0241368
0.0241366
0.0241362
0.0241366
0.0241367
0.0241367
0.0241367
0.0241367
0.0241367
0.0241367
0.0241367
0.0241367
0.0241366
0.0241364
0.0241361
0.0241247
0.0241058
0.0240944
0.024097
0.0241081
0.0241197
0.0241277
0.0241321
0.0241341
0.0241347
0.0241347
0.0241344
0.0241349
0.0241349
0.0241349
0.024135
0.024135
0.024135
0.024135
0.024135
0.024135
0.0241349
0.0241347
0.0241345
0.0241249
0.0241076
0.0240951
0.0240951
0.0241044
0.0241155
0.0241241
0.0241292
0.0241317
0.0241326
0.0241327
0.0241325
0.0241332
0.0241332
0.0241332
0.0241332
0.0241333
0.0241333
0.0241333
0.0241333
0.0241333
0.0241332
0.0241331
0.0241328
0.0241248
0.0241091
0.024096
0.0240936
0.024101
0.0241115
0.0241204
0.0241262
0.0241292
0.0241305
0.0241308
0.0241306
0.0241315
0.0241315
0.0241315
0.0241315
0.0241315
0.0241316
0.0241316
0.0241316
0.0241316
0.0241315
0.0241314
0.0241311
0.0241244
0.0241102
0.0240969
0.0240926
0.024098
0.0241077
0.0241167
0.024123
0.0241266
0.0241282
0.0241287
0.0241287
0.0241297
0.0241298
0.0241298
0.0241298
0.0241298
0.0241298
0.0241299
0.0241299
0.0241299
0.0241298
0.0241297
0.0241295
0.0241238
0.024111
0.0240978
0.024092
0.0240953
0.024104
0.024113
0.0241198
0.0241239
0.0241259
0.0241267
0.0241267
0.024128
0.024128
0.024128
0.0241281
0.0241281
0.0241281
0.0241282
0.0241282
0.0241282
0.0241281
0.024128
0.0241278
0.024123
0.0241116
0.0240987
0.0240916
0.0240931
0.0241006
0.0241093
0.0241164
0.024121
0.0241235
0.0241245
0.0241248
0.0241752
0.0241771
0.0241785
0.0241732
0.0241755
0.0241769
0.0241713
0.0241737
0.0241752
0.0241696
0.0241719
0.0241735
0.0241679
0.0241698
0.0241716
0.0241662
0.0239305
0.022105
0.0241673
0.0241695
0.0241776
0.0241799
0.0241787
0.0241803
0.0241758
0.0241753
0.0241773
0.0241769
0.0241781
0.0241772
0.0241776
0.0241787
0.0241738
0.0241733
0.024175
0.0241741
0.0241736
0.0241745
0.0241679
0.0241734
0.0241757
0.0241761
0.0241772
0.024172
0.0241714
0.024173
0.0241722
0.0241717
0.0241724
0.0241133
0.0241487
0.024174
0.0241747
0.0241758
0.0241702
0.0241697
0.0241712
0.0241705
0.02417
0.0241707
0.024126
0.0240997
0.0241723
0.0241731
0.0241743
0.024144
0.024148
0.0241703
0.0241715
0.0241727
0.0241482
0.0241472
0.0241645
0.0241327
0.0239571
0.0237277
0.0241628
0.024167
0.0241747
0.0241758
0.0241761
0.0241757
0.0241745
0.0241772
0.0241758
0.0241737
0.0241768
0.0241777
0.024177
0.024175
0.0241726
0.0241734
0.0241739
0.0241734
0.0241724
0.0241744
0.0241734
0.0241508
0.0241676
0.0241761
0.0241701
0.0241637
0.0241747
0.0241704
0.0241763
0.0241708
0.0241716
0.024172
0.0241715
0.0241707
0.0241724
0.0241715
0.0241007
0.0241102
0.0241744
0.0241539
0.0241512
0.0241634
0.0241548
0.0241746
0.0241698
0.0241691
0.0241707
0.0241699
0.0241473
0.0241286
0.0241726
0.0241562
0.0241614
0.0241511
0.0241557
0.0241728
0.0241682
0.0241674
0.024169
0.0241683
0.024147
0.0241446
0.0241614
0.0241614
0.0241709
0.0241665
0.0241657
0.0241673
0.0241666
0.024148
0.0241484
0.0241764
0.0241759
0.0241772
0.0241747
0.0241776
0.0241685
0.024168
0.0241695
0.0241688
0.0241683
0.0241691
0.0236794
0.0235473
0.0241681
0.0241697
0.0241711
0.0241771
0.0241761
0.0241782
0.0241772
0.0241779
0.0241692
0.0241699
0.0241702
0.0241668
0.024167
0.0241671
0.0241668
0.0241669
0.0241672
0.0235224
0.0232939
0.0241706
0.0241613
0.0241606
0.0241668
0.0241665
0.0241605
0.0241595
0.0241686
0.0241789
0.0241786
0.0241774
0.0241782
0.0241791
0.0241789
0.0241739
0.0241775
0.0241753
0.0241777
0.0241758
0.0241776
0.0241699
0.0241709
0.0241358
0.0241369
0.0241154
0.024111
0.0241419
0.0233619
0.0241517
0.0238188
0.0236964
0.0237615
0.0238437
0.0241477
0.024175
0.0241752
0.0241745
0.0241751
0.0241745
0.024175
0.0241752
0.0241761
0.0241764
0.0241759
0.0241751
0.0241754
0.0241756
0.0241729
0.0241728
0.024174
0.0241739
0.0241577
0.0241587
0.0241655
0.0241747
0.0241752
0.0241741
0.0241746
0.0241653
0.0241726
0.024176
0.0241765
0.0241754
0.0241759
0.0241721
0.0241711
0.0241711
0.024172
0.0241719
0.024074
0.0240799
0.0241458
0.0241724
0.0241728
0.0241719
0.0241722
0.0241449
0.0241606
0.0241735
0.0241739
0.0241729
0.0241733
0.0241601
0.0241669
0.0241695
0.0241679
0.0241679
0.024168
0.0241679
0.0241694
0.0241703
0.024168
0.0241702
0.0241408
0.0241394
0.0241527
0.0241714
0.0241718
0.0241709
0.0241713
0.0241534
0.0241672
0.0241671
0.0241687
0.0241679
0.024168
0.0241677
0.0241679
0.0241686
0.0241672
0.0241673
0.0241462
0.0236163
0.0237468
0.0233806
0.0235884
0.0241459
0.0232349
0.024166
0.0241657
0.0241286
0.0241665
0.0241661
0.0229601
0.0238575
0.0238339
0.0241771
0.0241667
0.0241663
0.0241678
0.0241671
0.0241667
0.0241673
0.0232897
0.0241128
0.0241364
0.0241768
0.0241675
0.0241682
0.0241685
0.0241621
0.0241624
0.0236016
0.0241655
0.0241652
0.0241626
0.024163
0.0238792
0.0238742
0.0203909
0.0241781
0.024178
0.0241772
0.0241777
0.0241783
0.0241781
0.024174
0.0241743
0.0241739
0.0241684
0.0241668
0.0241722
0.024172
0.0241723
0.024172
0.0241728
0.0241724
0.0241721
0.0241247
0.0241447
0.0241207
0.024096
0.0226537
0.0224293
0.0241478
0.023854
0.0239478
0.0241655
0.0241649
0.0241085
0.0241766
0.0241762
0.0241771
0.0241744
0.0241689
0.0241674
0.0241764
0.0241771
0.0241775
0.0241766
0.024177
0.0241761
0.0241729
0.0241732
0.0241729
0.0241737
0.0241734
0.024173
0.0241731
0.0241728
0.0241731
0.0241721
0.0241723
0.0241726
0.0241731
0.0241733
0.0241736
0.0241534
0.0241621
0.0241675
0.0241734
0.0241736
0.0241717
0.0241721
0.0241645
0.0241718
0.0241715
0.0241712
0.0241713
0.024171
0.0241711
0.0241722
0.0241719
0.024172
0.0241712
0.0241713
0.0241717
0.0240869
0.0240968
0.0241505
0.0241695
0.0241698
0.0241679
0.024169
0.024149
0.0241624
0.0241712
0.0241716
0.0241699
0.0241702
0.0241575
0.0241447
0.0239401
0.0239766
0.023935
0.0238973
0.0241337
0.024161
0.0241704
0.0241708
0.0241699
0.0241703
0.0241611
0.0241678
0.0241674
0.0241676
0.0241671
0.0241673
0.0241677
0.0241638
0.0241639
0.024167
0.0241667
0.024167
0.0241638
0.0241638
0.0230046
0.0227234
0.0241766
0.0241772
0.0241771
0.0224354
0.0236283
0.0225067
0.0226086
0.0225947
0.0236122
0.0241766
0.0241762
0.0241769
0.0241761
0.0241765
0.0241665
0.0241667
0.0241624
0.0241622
0.024167
0.0241637
0.0241636
0.024164
0.0241637
0.0241669
0.024167
0.0241671
0.0234372
0.0233958
0.0241667
0.0241645
0.0241642
0.024163
0.0241632
0.0241728
0.0241763
0.024177
0.0241749
0.024176
0.0241724
0.0241686
0.0241719
0.0241267
0.024143
0.02412
0.0240972
0.023483
0.0239536
0.0239257
0.0239822
0.0239626
0.0234622
0.0238594
0.0238409
0.023918
0.0238756
0.0237696
0.0229464
0.023104
0.0227001
0.0228739
0.0237511
0.0223158
0.0223885
0.0241748
0.0241751
0.0241748
0.0241755
0.0241752
0.0241748
0.0241744
0.0241742
0.0241748
0.0241745
0.0241756
0.0241759
0.0241756
0.0241756
0.0241754
0.024172
0.0241694
0.0241746
0.0241695
0.0241729
0.0241745
0.02417
0.0241724
0.0241762
0.0241739
0.0241723
0.0241726
0.0241728
0.0241731
0.0241727
0.0241725
0.024173
0.0241728
0.0241722
0.024172
0.0241724
0.0241723
0.0241727
0.0241723
0.0241725
0.0241738
0.0241736
0.0241741
0.0241738
0.0241732
0.024173
0.0241735
0.0241733
0.0241737
0.0241734
0.0241736
0.0241549
0.0241618
0.0241728
0.0241732
0.0241666
0.0241647
0.0241723
0.0241727
0.0241708
0.024171
0.0241713
0.0241708
0.0241706
0.0241709
0.0241708
0.0241704
0.0241703
0.0241706
0.0241704
0.0241716
0.0241718
0.0241721
0.0241717
0.0241715
0.024172
0.0241718
0.0241712
0.024171
0.0241715
0.0241713
0.0241717
0.0241714
0.0241716
0.0240757
0.0240922
0.0241692
0.0241694
0.0241492
0.0241473
0.024169
0.0241692
0.0241708
0.0241711
0.024162
0.0241581
0.0241703
0.0241706
0.0241673
0.0241677
0.0241693
0.0241692
0.0241695
0.0241694
0.0241676
0.024168
0.024169
0.0241688
0.0241692
0.024169
0.0241679
0.0241701
0.0241699
0.0241702
0.0241701
0.0241683
0.0241697
0.0241696
0.0241699
0.0241697
0.0241684
0.0239176
0.0239324
0.0241439
0.0237782
0.0238511
0.0238305
0.0237663
0.0238584
0.0241348
0.0238774
0.0238981
0.0241672
0.0241624
0.0241626
0.0241634
0.0241625
0.0241671
0.0241624
0.0241672
0.0241627
0.0241672
0.023493
0.0240061
0.0239886
0.0240295
0.024012
0.0235064
0.0231722
0.023229
0.0241639
0.024164
0.0241633
0.0241637
0.0233684
0.0230902
0.0241788
0.0241791
0.0241803
0.0241683
0.024161
0.0241594
0.0241776
0.0241776
0.024177
0.0241774
0.0241778
0.0241777
0.0241794
0.0241792
0.0241783
0.0241748
0.0241744
0.0241741
0.0241681
0.0241623
0.024162
0.0241169
0.024147
0.024171
0.0241707
0.0241704
0.0240503
0.0240405
0.0240983
0.0239835
0.0239982
0.0241498
0.0241751
0.0241754
0.024175
0.0241743
0.0241745
0.0241747
0.0241755
0.0241743
0.0241764
0.0241742
0.024174
0.0241742
0.0241514
0.0241613
0.0241601
0.024167
0.0241677
0.0241678
0.024164
0.0241739
0.0241742
0.0241709
0.0241711
0.0241714
0.0241711
0.0241704
0.0241706
0.0241709
0.0240999
0.0240652
0.0240596
0.0241076
0.024153
0.0241638
0.024164
0.024163
0.0241673
0.0241675
0.0241643
0.0241646
0.0241557
0.0241705
0.0241702
0.0241704
0.0241502
0.0241677
0.0241678
0.0241615
0.0241694
0.0241698
0.0241596
0.0241596
0.0241663
0.0241666
0.0241669
0.0241597
0.0241596
0.0239577
0.0239879
0.0241488
0.0241752
0.0241741
0.0241668
0.0241655
0.0241658
0.024167
0.0241669
0.024165
0.0241652
0.0241656
0.0241655
0.0241672
0.0230817
0.0230226
0.0233264
0.0241646
0.0241645
0.0241667
0.0241787
0.0241784
0.0241778
0.0241726
0.0241741
0.0241755
0.0241761
0.024172
0.0241723
0.0241772
0.0241776
0.024177
0.0241665
0.024166
0.0241692
0.0241714
0.0241693
0.0241686
0.0241323
0.0241384
0.0240455
0.0240502
0.0241179
0.0241054
0.0240195
0.0240334
0.0235213
0.0235395
0.0236549
0.0236383
0.0233809
0.0235707
0.0236011
0.0241503
0.0240054
0.0240254
0.024175
0.0241746
0.0241747
0.0241746
0.0241753
0.0241752
0.024175
0.0241741
0.024174
0.0241745
0.0241744
0.0241744
0.0241762
0.024176
0.0241757
0.0241758
0.0241756
0.0241757
0.0241752
0.0241699
0.0241712
0.0241737
0.0241739
0.0241742
0.0241739
0.0241738
0.0241571
0.0241599
0.024175
0.0241753
0.0241735
0.0241711
0.0241744
0.0241747
0.0241709
0.0241706
0.0241708
0.0240694
0.0240844
0.0241662
0.0241664
0.024161
0.0241595
0.0241658
0.024166
0.0241671
0.0241679
0.0241687
0.0241687
0.0241688
0.0241687
0.0241678
0.02417
0.0241702
0.0241704
0.0241689
0.0241688
0.0241697
0.0241696
0.0241681
0.0241688
0.0241688
0.0241688
0.0241688
0.0241676
0.0241676
0.0241505
0.0241545
0.0241674
0.0241675
0.0241679
0.0241685
0.0241684
0.0241687
0.0241686
0.0241679
0.0236755
0.0240031
0.0240345
0.024016
0.0240098
0.0236963
0.0234311
0.0237055
0.0236793
0.0231667
0.0231118
0.0233162
0.0241602
0.0241605
0.0241606
0.0241594
0.0241664
0.0241649
0.0241647
0.0241649
0.0241649
0.0241662
0.0229706
0.0228293
0.0231527
0.023324
0.0238759
0.0241765
0.0241767
0.0241763
0.024162
0.0241621
0.0241598
0.0241593
0.0236566
0.0241629
0.0241624
0.0241624
0.0241622
0.0241623
0.024163
0.021254
0.0232878
0.0234342
0.0241781
0.0241779
0.0241774
0.0241636
0.0241628
0.0241682
0.0241656
0.0241682
0.02417
0.0241674
0.024168
0.0241211
0.0241456
0.0239439
0.0239601
0.0239456
0.0239376
0.024097
0.0240313
0.0240226
0.0225981
0.0223793
0.0223928
0.0223838
0.0223883
0.0225346
0.0241687
0.0241712
0.0241714
0.0241707
0.0241711
0.0241684
0.0241523
0.0241656
0.0241591
0.0241572
0.0241642
0.024168
0.0241682
0.024072
0.0240703
0.0240963
0.0241019
0.0241631
0.0241635
0.0241517
0.024167
0.0241671
0.0241627
0.0241566
0.0241648
0.0241651
0.0239303
0.0239821
0.0239652
0.0239918
0.0239892
0.0239188
0.0241595
0.0241596
0.0241598
0.0241598
0.0241638
0.0241621
0.0241621
0.0226161
0.0225823
0.022911
0.0225987
0.0227056
0.0224321
0.0225089
0.0228131
0.0241759
0.0241754
0.0241762
0.024175
0.024177
0.0241772
0.0241774
0.0241762
0.0241766
0.0241761
0.0224657
0.0230329
0.0230013
0.0231339
0.0230808
0.0225038
0.0227417
0.0228867
0.0228119
0.02298
0.0229504
0.022684
0.0241764
0.0241766
0.0241764
0.0241759
0.0241758
0.0241762
0.024176
0.0241665
0.0241669
0.024166
0.0241662
0.0241623
0.0241622
0.0241654
0.0241654
0.0241636
0.0241647
0.0241648
0.0241669
0.0241646
0.0241644
0.0241648
0.0241671
0.0241652
0.0241649
0.0230703
0.0231322
0.0234724
0.0228868
0.0229225
0.0227912
0.0228267
0.0233567
0.0229857
0.0230007
0.0241631
0.024162
0.0241621
0.0241616
0.0241619
0.0241631
0.0241746
0.024175
0.0241735
0.0241706
0.0241726
0.0241742
0.0241636
0.0241688
0.0241656
0.0241647
0.0241658
0.0241665
0.0241652
0.0241654
0.0241292
0.0241405
0.0239933
0.0240033
0.0239715
0.0239821
0.0241192
0.0240513
0.0240506
0.0240152
0.0240146
0.0241003
0.0240078
0.023573
0.0235306
0.0234221
0.0236265
0.0236094
0.0238493
0.0236496
0.023634
0.023719
0.0236832
0.0238442
0.0239081
0.0237191
0.0237346
0.0236472
0.0236859
0.0238934
0.023616
0.0227541
0.0232159
0.0231802
0.0222767
0.0223149
0.0241749
0.0241749
0.0241748
0.0241747
0.0241749
0.024175
0.0241749
0.0241742
0.0241741
0.0241741
0.0241741
0.0241743
0.0241743
0.0241743
0.0241754
0.0241755
0.0241757
0.0241757
0.0241753
0.0241753
0.0241753
0.0241715
0.0241731
0.0241735
0.0241717
0.0241723
0.0241698
0.0241675
0.0241693
0.0241733
0.0241716
0.0241709
0.0241732
0.0241718
0.0241738
0.0241706
0.0241703
0.0241695
0.0241712
0.0241726
0.0241726
0.0241729
0.0241728
0.0241729
0.0241728
0.0241728
0.0241721
0.0241721
0.0241724
0.0241723
0.0241737
0.0241736
0.0241737
0.0241735
0.0241736
0.0241736
0.024174
0.0241739
0.024174
0.0241737
0.0241738
0.0241739
0.0241738
0.0241737
0.0241732
0.0241731
0.0241732
0.024173
0.024173
0.0241731
0.0241734
0.0241734
0.0241734
0.0241732
0.0241733
0.0241734
0.0241567
0.0241613
0.0241708
0.0241706
0.0241707
0.0241704
0.0241705
0.0241707
0.0241709
0.0241708
0.0241708
0.0241709
0.0241703
0.0241698
0.0241699
0.0241697
0.0241697
0.0241703
0.0241705
0.0241702
0.0241703
0.0241701
0.0241702
0.0241705
0.0241716
0.0241716
0.0241719
0.0241718
0.0241711
0.0241711
0.0241714
0.0241713
0.0240703
0.024088
0.0241615
0.0241666
0.0241668
0.0241653
0.0241656
0.0241588
0.0241672
0.0241688
0.0241688
0.0241679
0.0241676
0.0241687
0.0241687
0.0241692
0.024169
0.02417
0.0241696
0.0241697
0.0241702
0.0241698
0.0241698
0.0241697
0.0241698
0.0241702
0.0241696
0.0241693
0.0241688
0.0241688
0.0241682
0.0241687
0.0241688
0.0239258
0.0240361
0.0240306
0.0240431
0.0240397
0.0239285
0.0238041
0.0238321
0.0238054
0.0237529
0.0237424
0.0237763
0.023868
0.0240012
0.023995
0.0240218
0.024011
0.0238756
0.0241625
0.0241647
0.0241647
0.0241646
0.0241646
0.0241625
0.0241631
0.0241651
0.0241653
0.0241648
0.024165
0.0241627
0.0241623
0.0241636
0.0241636
0.024164
0.0241638
0.0241632
0.0241644
0.0241646
0.0241637
0.0241641
0.0241634
0.0237413
0.023727
0.0234736
0.0231444
0.0232846
0.0241598
0.0241602
0.0241635
0.0241616
0.0241613
0.0241621
0.0241619
0.0241636
0.0241598
0.0241599
0.0227205
0.0226541
0.0241821
0.0241821
0.0241831
0.0241822
0.0241822
0.0241832
0.0241823
0.0241824
0.0241833
0.0241824
0.0241825
0.0241833
0.0241801
0.02418
0.0241811
0.02418
0.02418
0.0241816
0.0241801
0.0241802
0.0241818
0.0241803
0.0241805
0.0241819
0.0241806
0.0241807
0.0241821
0.0241808
0.0241809
0.0241816
0.0241782
0.0241779
0.0241795
0.0241779
0.0241776
0.0241795
0.0241789
0.0241789
0.0241798
0.0241791
0.0241793
0.0241801
0.0241797
0.0241798
0.0241802
0.0241791
0.0241793
0.0241801
0.0241762
0.0241759
0.0241774
0.0241768
0.0241768
0.0241773
0.024177
0.0241769
0.0241773
0.024178
0.0241782
0.0241788
0.0241776
0.0241778
0.0241785
0.0241743
0.0241739
0.0241754
0.0241748
0.0241747
0.0241752
0.0241747
0.0241745
0.0241748
0.0241764
0.0241767
0.0241773
0.0241761
0.0241763
0.024177
0.0241725
0.0241721
0.0241735
0.0241729
0.0241728
0.0241733
0.0241727
0.0241726
0.0241728
0.0241749
0.0241752
0.0241758
0.0241747
0.0241748
0.0241755
0.0241707
0.0241703
0.0241716
0.0241711
0.024171
0.0241714
0.0241709
0.0241708
0.024171
0.0241732
0.0241737
0.0241742
0.0241731
0.0241732
0.024174
0.0241689
0.0241685
0.0241698
0.0241692
0.0241691
0.0241693
0.0241713
0.024172
0.0241726
0.0241715
0.0241716
0.0241724
0.0241671
0.0241668
0.0241681
0.0241693
0.0241701
0.0241706
0.0241698
0.02417
0.0241708
0.0241654
0.0241651
0.024166
0.0241649
0.0241647
0.0241659
0.0241653
0.0241651
0.0241657
0.023115
0.023523
0.0237704
0.0241657
0.0241678
0.0241693
0.0241681
0.0241683
0.0241692
0.0241636
0.0241635
0.0241643
0.0241632
0.024163
0.0241643
0.0241629
0.0241539
0.0241501
0.0238914
0.0241181
0.0241591
0.0241562
0.0241655
0.0241673
0.0241662
0.0241664
0.0241674
0.0241616
0.0241614
0.0241622
0.0241612
0.0241582
0.0241547
0.023955
0.0239898
0.0240959
0.0241321
0.0241593
0.0241633
0.0241751
0.0241754
0.0241755
0.0241773
0.0241772
0.0241768
0.0241784
0.0241782
0.0241783
0.024173
0.0241733
0.0241734
0.0241757
0.024175
0.0241746
0.0241767
0.0241763
0.0241767
0.0241712
0.0241714
0.0241716
0.0241739
0.0241729
0.0241726
0.0241745
0.0241741
0.024175
0.0241695
0.0241697
0.0241698
0.0241721
0.024171
0.0241709
0.0241725
0.0241721
0.0241733
0.0241701
0.024169
0.0241687
0.0241707
0.0241704
0.0241714
0.0241659
0.0241665
0.0241668
0.0236949
0.0241506
0.024152
0.0221768
0.0221895
0.021628
0.0241684
0.0241681
0.0241692
0.0241774
0.0241786
0.0241786
0.0241772
0.0241772
0.0241769
0.0241798
0.0241789
0.024179
0.0241773
0.0241773
0.0241789
0.0241789
0.0241786
0.0241802
0.0241794
0.0241796
0.0241757
0.0241763
0.0241763
0.0241761
0.0241761
0.0241756
0.0241773
0.0241767
0.0241764
0.0241771
0.0241766
0.0241758
0.024178
0.0241778
0.0241779
0.0241774
0.024178
0.0241778
0.024178
0.0241779
0.0241776
0.0241787
0.0241783
0.0241783
0.0241737
0.0241742
0.0241743
0.024174
0.0241741
0.0241736
0.0241751
0.0241746
0.0241743
0.024174
0.0241743
0.0241744
0.0241737
0.0241738
0.0241737
0.0241747
0.0241745
0.0241744
0.024172
0.0241711
0.0241729
0.024176
0.0241765
0.0241763
0.0241765
0.0241765
0.0241761
0.0241772
0.0241769
0.0241769
0.0241719
0.0241723
0.0241724
0.0241721
0.0241722
0.0241717
0.0241731
0.0241726
0.0241723
0.0241721
0.0241723
0.0241725
0.0241718
0.0241719
0.0241718
0.0241726
0.0241725
0.0241723
0.0241744
0.024175
0.0241746
0.024175
0.024175
0.0241746
0.0241758
0.0241754
0.0241754
0.0241701
0.0241705
0.0241706
0.0241704
0.0241704
0.02417
0.0241713
0.0241708
0.0241706
0.0241703
0.0241706
0.0241707
0.0241703
0.0241705
0.0241702
0.0241708
0.0241707
0.0241706
0.0241236
0.024056
0.0240632
0.0241728
0.0241735
0.024173
0.0241735
0.0241735
0.0241731
0.0241743
0.0241739
0.0241739
0.0241434
0.0240492
0.0240606
0.0241193
0.024121
0.0241486
0.024171
0.0241715
0.0241711
0.0241719
0.0241718
0.0241714
0.0241727
0.0241722
0.0241723
0.0241481
0.0241177
0.0241188
0.0241102
0.0241116
0.0241474
0.0241643
0.0241649
0.0241649
0.0241158
0.0241647
0.0241642
0.0241652
0.0241649
0.0240232
0.0239426
0.0240918
0.0234332
0.0241641
0.0241514
0.0241443
0.024159
0.0241532
0.0241658
0.0241748
0.024175
0.0241748
0.024176
0.0241755
0.0241753
0.0241758
0.0241757
0.024176
0.0241755
0.0241753
0.0241756
0.024177
0.0241769
0.0241771
0.0241757
0.0241759
0.024176
0.0241739
0.0241727
0.0241724
0.0241767
0.0241765
0.0241767
0.0241776
0.0241774
0.0241775
0.0241768
0.0241771
0.0241772
0.024176
0.0241761
0.0241755
0.0241727
0.0241728
0.0241727
0.0241736
0.0241734
0.0241733
0.0241736
0.0241735
0.0241738
0.0241733
0.0241732
0.0241733
0.0241723
0.0241724
0.0241725
0.0241734
0.0241734
0.0241735
0.0241756
0.0241752
0.0241759
0.0241697
0.0241715
0.0241718
0.0241738
0.0241755
0.0241757
0.024172
0.0241722
0.0241705
0.0241765
0.0241762
0.0241758
0.0241709
0.024171
0.0241709
0.0241717
0.0241716
0.0241714
0.0241718
0.0241716
0.0241719
0.0241714
0.0241713
0.0241714
0.0241706
0.0241707
0.0241708
0.0241723
0.0241722
0.0241723
0.0241714
0.0241715
0.0241716
0.0241734
0.0241731
0.0241741
0.0241629
0.0241629
0.024151
0.0241748
0.0241739
0.0241736
0.0241697
0.0241695
0.0241696
0.0241689
0.024169
0.0241692
0.0241706
0.0241705
0.0241706
0.0241697
0.0241698
0.02417
0.0241465
0.0241152
0.0241174
0.0240713
0.0240778
0.0241308
0.0241715
0.0241711
0.0241724
0.0241573
0.0241671
0.0241672
0.0241666
0.0241667
0.0241613
0.0241506
0.0241629
0.0241629
0.0241673
0.0241673
0.0241547
0.024173
0.024172
0.0241716
0.024168
0.0241679
0.024168
0.0241673
0.0241674
0.0241675
0.0241689
0.0241687
0.0241688
0.0241682
0.0241683
0.0241684
0.0241468
0.0241071
0.0241087
0.0240642
0.0240741
0.0241451
0.0241614
0.0241664
0.0241665
0.0241688
0.0241692
0.0241615
0.0241711
0.0241701
0.0241699
0.0241662
0.0241659
0.0241662
0.0241655
0.0241658
0.0241661
0.0241672
0.0241671
0.0241672
0.0241489
0.0239956
0.0240105
0.0241763
0.0241766
0.0241767
0.0241765
0.0241767
0.0241762
0.0241772
0.0241768
0.0241767
0.0241775
0.0241774
0.0241775
0.0241686
0.0241687
0.0241682
0.0241695
0.0241691
0.0241688
0.0241686
0.0241689
0.024169
0.0241686
0.0241687
0.0241685
0.0241691
0.0241689
0.0241688
0.0236618
0.0234225
0.0234522
0.0232439
0.0232886
0.0235722
0.0241691
0.0241696
0.024169
0.0241769
0.0241769
0.024177
0.0241759
0.0241761
0.0241762
0.0241778
0.0241781
0.0241784
0.0241776
0.024178
0.0241776
0.0241781
0.024178
0.0241778
0.0241695
0.0241697
0.0241694
0.0241701
0.0241698
0.0241696
0.02417
0.0241699
0.0241701
0.024167
0.0241665
0.0241665
0.0241664
0.0241664
0.0241669
0.0234987
0.0231676
0.0232012
0.0241696
0.0241693
0.0241704
0.0241611
0.0241682
0.0241686
0.024167
0.024168
0.024161
0.0241668
0.0241664
0.0241664
0.0241663
0.0241663
0.0241666
0.0241601
0.0241664
0.0241667
0.0241657
0.024166
0.0241599
0.0241689
0.0241678
0.0241675
0.0241788
0.0241782
0.0241783
0.0241782
0.0241782
0.0241787
0.0241773
0.024178
0.024178
0.0241784
0.0241783
0.0241781
0.0241791
0.0241786
0.0241788
0.0241783
0.0241785
0.024179
0.0241773
0.0241768
0.0241773
0.0241773
0.0241777
0.0241779
0.0241765
0.0241768
0.0241762
0.0241778
0.0241777
0.0241775
0.02403
0.0240446
0.0241427
0.0241513
0.0241286
0.02413
0.0238036
0.0236238
0.0236463
0.0234798
0.0235037
0.0237118
0.0238007
0.0240267
0.0240216
0.0240361
0.0240315
0.0238115
0.0241475
0.0241129
0.0241141
0.024175
0.0241752
0.0241753
0.0241748
0.0241746
0.0241749
0.0241753
0.0241755
0.0241754
0.0241761
0.024176
0.0241759
0.0241762
0.0241761
0.0241763
0.0241746
0.0241743
0.0241752
0.0241759
0.0241752
0.0241749
0.0241728
0.0241729
0.024173
0.0241728
0.0241727
0.0241727
0.0241739
0.024174
0.024174
0.0241738
0.0241738
0.0241738
0.024169
0.0241692
0.0241657
0.0241749
0.0241742
0.024174
0.0241746
0.0241744
0.0241751
0.0241742
0.0241734
0.0241732
0.0241738
0.0241736
0.0241744
0.0241651
0.0241687
0.0241689
0.0241738
0.0241741
0.024173
0.0241762
0.0241758
0.0241756
0.0241762
0.024176