/*--------------------------------*- C++ -*----------------------------------*\
| =========                 |                                                 |
| \\      /  F ield         | OpenFOAM: The Open Source CFD Toolbox           |
|  \\    /   O peration     | Version:  5.x                                   |
|   \\  /    A nd           | Web:      www.OpenFOAM.org                      |
|    \\/     M anipulation  |                                                 |
\*---------------------------------------------------------------------------*/
FoamFile
{
    version     2.0;
    format      ascii;
    class       volScalarField;
    location    "2287";
    object      nut;
}
// * * * * * * * * * * * * * * * * * * * * * * * * * * * * * * * * * * * * * //

dimensions      [0 2 -1 0 0 0 0];

internalField   nonuniform List<scalar> 
6584
(
0.0699792
0.0699792
0.0699793
0.0699794
0.0699795
0.0699799
0.0699813
0.0699846
0.0699921
0.0700048
0.0700212
0.0700382
0.0700483
0.0700462
0.0700344
0.0700175
0.0700019
0.069991
0.0699847
0.0699815
0.0699798
0.069979
0.0699787
0.0699785
0.0695966
0.0695972
0.0695972
0.0695973
0.0695977
0.069599
0.0696021
0.0696091
0.0696226
0.069649
0.0696753
0.0696995
0.0697149
0.0697162
0.069704
0.0696763
0.0696495
0.069628
0.0696135
0.0696051
0.0696005
0.0695982
0.0695972
0.0695961
0.0692354
0.0692357
0.0692358
0.0692357
0.0692364
0.069239
0.0692449
0.0692582
0.0692883
0.0694338
0.0695097
0.0695477
0.069572
0.0695778
0.0695631
0.0694077
0.0693463
0.0693032
0.0692736
0.0692552
0.0692447
0.0692394
0.0692364
0.0692345
0.0688935
0.0688937
0.0688938
0.0688941
0.0688952
0.0688997
0.0689107
0.0689357
0.0689877
0.0691373
0.0692692
0.0693637
0.0694264
0.069435
0.0693942
0.0693058
0.0691142
0.0690267
0.0689708
0.0689349
0.0689139
0.0689022
0.068896
0.0688925
0.0685694
0.06857
0.0685699
0.0685706
0.0685732
0.0685804
0.0685996
0.0686516
0.0688011
0.0689567
0.0691933
0.0694171
0.069563
0.0695362
0.069432
0.0692527
0.0690474
0.0688148
0.0687118
0.0686482
0.0686094
0.0685874
0.0685757
0.068569
0.0682622
0.0682633
0.0682633
0.0682646
0.0682691
0.0682813
0.0683186
0.0684681
0.0685993
0.0688862
0.06926
0.070013
0.0707088
0.0703701
0.0698399
0.0694411
0.0690594
0.0686716
0.0685021
0.0683982
0.0683336
0.068296
0.0682755
0.0682634
0.0679706
0.0679727
0.0679733
0.0679757
0.0679827
0.0680015
0.0680537
0.068215
0.0684568
0.0689871
0.0700303
0.0731189
0.0811213
0.0757746
0.0715889
0.0700162
0.0692738
0.0686294
0.0683523
0.0681889
0.0680884
0.0680291
0.0679961
0.0679758
0.0676937
0.0676971
0.0676986
0.0677029
0.067713
0.0677388
0.0678059
0.0679938
0.0683501
0.0692232
0.0719241
0.0906386
0.0735655
0.0760166
0.0713084
0.069737
0.0687005
0.0682701
0.0680231
0.0678754
0.0677874
0.0677378
0.0677062
0.0674304
0.0674353
0.0674381
0.0674446
0.0674581
0.0674908
0.0675705
0.067788
0.0682416
0.0694211
0.073888
0.0877418
0.0404586
0.0741187
0.0728336
0.0704123
0.0688682
0.0682525
0.0679004
0.0676941
0.0675709
0.0675006
0.0674545
0.0671796
0.0671859
0.0671902
0.067199
0.0672158
0.0672541
0.0673429
0.067582
0.0681014
0.0694444
0.0748733
0.0750344
0.0331345
0.0655541
0.0734279
0.0711168
0.0690966
0.0682862
0.0678167
0.0675428
0.0673784
0.0672837
0.0672203
0.0669402
0.0669477
0.0669533
0.0669643
0.0669838
0.0670264
0.0671206
0.06737
0.0679229
0.0693057
0.0747785
0.0679391
0.030767
0.0587676
0.0727896
0.0716415
0.0693431
0.0683533
0.0677649
0.0674182
0.0672081
0.0670858
0.0670028
0.0667111
0.0667195
0.0667264
0.0667392
0.0667609
0.0668061
0.0669024
0.0671529
0.067715
0.069071
0.0740753
0.0651132
0.0303114
0.0540903
0.0712391
0.0718573
0.0695695
0.0684373
0.0677373
0.0673161
0.0670575
0.0669047
0.0668007
0.0664913
0.0665003
0.0665081
0.0665225
0.0665457
0.0665921
0.0666879
0.0669336
0.067488
0.0687873
0.0731925
0.0643802
0.030842
0.0504441
0.0690598
0.071696
0.0697443
0.0685239
0.067727
0.0672323
0.0669238
0.0667384
0.0666124
0.0662801
0.0662891
0.0662977
0.0663132
0.0663373
0.0663834
0.0664753
0.0667351
0.0672165
0.0684804
0.0722317
0.0643949
0.0032063
0.0329388
0.0472949
0.0663662
0.0711027
0.0698333
0.0685992
0.0677277
0.0671637
0.0668047
0.0665855
0.0664366
0.0660765
0.0660854
0.0660945
0.0661105
0.0661351
0.0661803
0.0662671
0.0665143
0.0669434
0.0681708
0.0712871
0.0628678
0.0109851
0.0358849
0.0464856
0.0630788
0.0698931
0.0696616
0.0686193
0.0677247
0.0671041
0.0666988
0.0664446
0.0662726
0.0658801
0.0658885
0.0658978
0.0659142
0.0659388
0.0659823
0.0660642
0.0662968
0.0666891
0.0678359
0.0706841
0.0634488
0.0161088
0.036364
0.0440288
0.0595585
0.0686577
0.0692851
0.0685675
0.0677116
0.0670528
0.0666025
0.0663131
0.0661185
0.0656903
0.0656981
0.0657075
0.0657238
0.0657481
0.0657897
0.0658671
0.0660837
0.0665468
0.0674549
0.0698819
0.0594995
0.0208135
0.0331927
0.0421723
0.0560609
0.0670021
0.0686578
0.0684092
0.0676719
0.0670043
0.0665171
0.0661924
0.0659743
0.0655066
0.0655138
0.065523
0.0655391
0.0655628
0.0656022
0.0656758
0.0658765
0.0663149
0.0674725
0.069079
0.0599419
0.024304
0.030323
0.0423532
0.0536724
0.063852
0.0675276
0.0680736
0.0675806
0.0669494
0.0664387
0.0660814
0.0658401
0.0653288
0.0653353
0.0653442
0.0653599
0.065383
0.0654206
0.0654905
0.0656756
0.0660876
0.0671207
0.0674059
0.0508526
0.0270334
0.0308032
0.0403392
0.0507873
0.0608265
0.0660043
0.0675154
0.0674073
0.0668756
0.0663633
0.0659794
0.0657157
0.0651564
0.0651622
0.0651708
0.065186
0.0652084
0.0652443
0.0653105
0.0654809
0.0658662
0.0667864
0.0668316
0.0518958
0.0289421
0.0301224
0.0385105
0.0482717
0.0579976
0.064209
0.0667184
0.0671222
0.0667668
0.0662849
0.0658845
0.0656005
0.0649892
0.0649943
0.0650026
0.0650172
0.0650388
0.0650732
0.0651358
0.0652926
0.0656511
0.0664699
0.0663522
0.0529232
0.0309876
0.0299228
0.0369223
0.0460375
0.0553891
0.0622554
0.0656946
0.0667021
0.0666047
0.0661948
0.0657937
0.0654938
0.0648268
0.0648313
0.0648392
0.0648531
0.064874
0.064907
0.064966
0.0651103
0.0654428
0.0661709
0.0659478
0.0539202
0.0331069
0.0301211
0.0356155
0.0440376
0.0529941
0.0602346
0.0644754
0.0661332
0.0663716
0.0660824
0.0657024
0.0653939
0.064669
0.0646731
0.0646805
0.0646938
0.0647138
0.0647453
0.064801
0.0649339
0.0652411
0.0658888
0.0656026
0.0548721
0.035251
0.030646
0.0346088
0.042251
0.0507948
0.058211
0.0631015
0.065413
0.0660516
0.0659358
0.0656046
0.0652986
0.0645156
0.0645192
0.0645262
0.0645388
0.064558
0.064588
0.0646406
0.064763
0.065046
0.0656227
0.0653041
0.0557664
0.0373805
0.0314356
0.0339048
0.0406735
0.0487745
0.0562265
0.0616168
0.0645484
0.065633
0.0657431
0.0654933
0.0652044
0.0643664
0.0643696
0.0643761
0.064388
0.0644063
0.064435
0.0644846
0.0645975
0.0648576
0.0653715
0.0650425
0.0565944
0.039464
0.0324362
0.0334926
0.0393085
0.0469209
0.054307
0.0600613
0.063555
0.0651096
0.0654929
0.0653603
0.0651071
0.0642211
0.0642239
0.06423
0.0642413
0.0642587
0.064286
0.0643328
0.0644369
0.0646756
0.0651339
0.06481
0.0573476
0.0414705
0.0335985
0.0333521
0.0381629
0.0452311
0.0524715
0.0584724
0.0624547
0.0644809
0.0651761
0.0651973
0.0650018
0.0640796
0.0640821
0.0640878
0.0640984
0.0641149
0.0641409
0.064185
0.0642811
0.0644999
0.0649094
0.0646003
0.058025
0.0433806
0.0348787
0.033456
0.0372403
0.043707
0.0507335
0.0568802
0.0612703
0.0637528
0.0647872
0.0649968
0.0648828
0.0639416
0.0639439
0.0639492
0.0639591
0.0639748
0.0639995
0.0640411
0.0641299
0.0643303
0.0646967
0.0644086
0.0586294
0.0451865
0.0362469
0.0337764
0.036535
0.0423431
0.0490921
0.0553005
0.0600201
0.0629304
0.064321
0.0647509
0.064744
0.0638071
0.0638091
0.063814
0.0638233
0.0638382
0.0638616
0.0639008
0.063983
0.0641666
0.0644948
0.0642314
0.0591627
0.046878
0.0376728
0.0342848
0.036042
0.0411428
0.0475536
0.0537496
0.0587247
0.0620238
0.063776
0.0644532
0.064579
0.0636758
0.0636776
0.0636821
0.0636909
0.063705
0.0637271
0.0637642
0.0638404
0.0640083
0.0643027
0.0640657
0.0596286
0.0484488
0.0391299
0.0349532
0.0357521
0.0401093
0.0461241
0.0522411
0.0574017
0.0610449
0.0631536
0.0640987
0.0643818
0.0635476
0.0635492
0.0635534
0.0635616
0.0635749
0.0635959
0.063631
0.0637016
0.0638552
0.0641198
0.0639094
0.0600313
0.049896
0.0405951
0.0357545
0.035653
0.0392446
0.0448096
0.0507864
0.0560672
0.0600065
0.0624574
0.0636843
0.0641467
0.0634224
0.0634238
0.0634277
0.0634354
0.0634479
0.063468
0.0635011
0.0635665
0.063707
0.0639451
0.0637607
0.0603758
0.0512193
0.0420487
0.0366636
0.0357297
0.0385484
0.0436157
0.049395
0.054736
0.0589211
0.0616932
0.0632083
0.0638689
0.0633
0.0633013
0.0633049
0.063312
0.0633239
0.063343
0.0633742
0.0634349
0.0635634
0.0637781
0.0636183
0.0606673
0.0524212
0.0434741
0.037657
0.0359655
0.0380182
0.0425476
0.0480756
0.0534201
0.0578018
0.0608678
0.0626709
0.0635444
0.0631804
0.0631816
0.0631849
0.0631915
0.0632027
0.0632208
0.0632503
0.0633066
0.0634243
0.0636182
0.0634813
0.0609111
0.0535054
0.0448571
0.0387127
0.0363424
0.0376489
0.0416089
0.0468359
0.0521305
0.0566601
0.0599893
0.0620739
0.0631706
0.0630639
0.063065
0.063068
0.0630742
0.0630848
0.063102
0.0631298
0.0631821
0.0632898
0.0634652
0.0633494
0.0611128
0.0544791
0.0461892
0.0398142
0.0368441
0.0374338
0.0408029
0.045684
0.0508783
0.0555084
0.0590671
0.0614215
0.0627466
0.0629643
0.0629653
0.0629681
0.0629739
0.0629839
0.0630001
0.0630264
0.063075
0.063174
0.0633334
0.0632367
0.0612876
0.0553467
0.0474485
0.0409308
0.0374483
0.0373698
0.0401445
0.0446468
0.0496999
0.0543883
0.0581411
0.0607454
0.0622958
0.0894469
0.0383632
0.0688632
0.0763328
0.0307229
0.0368928
0.068541
0.0283886
0.0302352
0.0653268
0.0283963
0.0282945
0.0643938
0.0295496
0.0284853
0.0644678
0.00455639
0.0027933
0.0318772
0.0297612
0.0881605
0.0806051
0.0758208
0.0759525
0.0734654
0.0900343
0.0853434
0.029775
0.0488046
0.0421858
0.0731925
0.077576
0.0747389
0.0814419
0.089269
0.0824732
0.0459288
0.0549953
0.013977
0.0197438
0.0336687
0.0606803
0.0699258
0.0748812
0.0741616
0.0803379
0.0717198
0.0378508
0.0395975
0.00818911
0.00933657
0.0309256
0.052971
0.0582816
0.0742797
0.0704286
0.0735182
0.0665192
0.0390939
0.0381098
0.0125545
0.00990165
0.0303044
0.0485673
0.0516675
0.0183085
0.0161799
0.0307325
0.0454553
0.047719
0.0245214
0.0217801
0.0627039
0.0155893
0.00505052
0.00925627
0.0359548
0.0322751
0.0567528
0.0725178
0.0932765
0.0652894
0.0483808
0.0924701
0.0681486
0.0202792
0.0292461
0.045022
0.0312082
0.0227985
0.040019
0.0448825
0.0808065
0.0385474
0.0334199
0.0466576
0.0391156
0.00945509
0.0137714
0.0326644
0.0162265
0.0126539
0.022142
0.0164568
0.0335101
0.0379815
0.0377816
0.0708005
0.0320063
0.03308
0.0332402
0.0319825
0.00986267
0.00813718
0.0288917
0.0111951
0.0123021
0.0125416
0.0112537
0.0291465
0.0336807
0.0356839
0.0331936
0.0333763
0.0159891
0.0128215
0.0282093
0.0148288
0.0180065
0.0123748
0.0146352
0.0281914
0.038209
0.0400552
0.0359636
0.0379326
0.0213946
0.0186988
0.0183174
0.0205128
0.0288541
0.0425637
0.0431574
0.0403724
0.042304
0.0288032
0.0249523
0.0936904
0.0751601
0.0961463
0.0201994
0.0390112
0.0734184
0.0689249
0.0701466
0.0646524
0.0425985
0.0409966
0.0145434
0.0119744
0.032137
0.042919
0.0447743
0.0681983
0.0429165
0.0515678
0.0324572
0.0491422
0.0407701
0.0392922
0.066157
0.00810445
0.0107802
0.0192335
0.0211735
0.010942
0.0136113
0.0115751
0.00852608
0.0290066
0.0208313
0.0231117
0.0214581
0.0231568
0.0234458
0.0258792
0.0305046
0.102034
0.0975101
0.0959592
0.0546983
0.093626
0.101238
0.0188208
0.0354963
0.0218422
0.0409458
0.023338
0.0375687
0.0156797
0.0165401
0.00871949
0.00877179
0.0112921
0.0109646
0.0171629
0.00681366
0.0175037
0.0173235
0.0149073
0.0137792
0.0160821
0.0229396
0.0211503
0.0570376
0.018403
0.0288596
0.0175997
0.0544969
0.0303734
0.0472012
0.0776728
0.0392191
0.0223201
0.023652
0.0242589
0.0351781
0.0349026
0.0433879
0.0427849
0.0102963
0.0104799
0.0134705
0.0250685
0.0261423
0.0239883
0.0247675
0.0133742
0.0188459
0.0284254
0.0301683
0.0265493
0.0279069
0.0182454
0.0324104
0.0324581
0.0323559
0.0322539
0.00771996
0.00776939
0.0108521
0.0225018
0.0226391
0.0225402
0.0224919
0.0108393
0.0118838
0.0232095
0.0237661
0.0227185
0.02306
0.011806
0.00821073
0.0345717
0.0114843
0.00852628
0.0145384
0.0116794
0.0348391
0.0321795
0.00861206
0.0324551
0.0146051
0.0143811
0.0133006
0.0227153
0.0225711
0.0230318
0.0227807
0.0135277
0.0167454
0.0188627
0.03681
0.017423
0.0147905
0.0200239
0.0177428
0.0370922
0.0139159
0.0164415
0.0202412
0.010672
0.0134258
0.00715868
0.0102116
0.0198547
0.00782879
0.0236984
0.0249729
0.00511279
0.0233955
0.02329
0.00524247
0.0198748
0.017653
0.0282807
0.0725003
0.0697915
0.0688334
0.0644135
0.0474957
0.0465156
0.00618158
0.0284147
0.0291122
0.0422909
0.0442835
0.0428205
0.0645536
0.00649155
0.00705766
0.00239607
0.0244999
0.0248976
0.00767021
0.00887598
0.0188677
0.0208064
0.00118043
0.0832897
0.0942076
0.0723099
0.0429358
0.0748988
0.0800118
0.0492105
0.0694674
0.0660476
0.0144293
0.0123241
0.0181445
0.0383517
0.0570643
0.0560153
0.0589847
0.0574942
0.0386
0.00841604
0.00909571
0.0119635
0.00997259
0.0101082
0.00843258
0.0233285
0.0164018
0.0190277
0.0416452
0.0430757
0.0110177
0.0811854
0.0501768
0.0733575
0.0213653
0.0138484
0.0127162
0.0275715
0.0341092
0.037643
0.0308322
0.0331711
0.0264528
0.0415803
0.0615977
0.0595719
0.0650455
0.0623748
0.0422212
0.0367106
0.0204542
0.0243727
0.018185
0.0185952
0.0339787
0.0251568
0.0263795
0.0406346
0.00973421
0.0114991
0.0144975
0.0210974
0.0212498
0.0191969
0.0195689
0.0129572
0.055715
0.0550169
0.0377382
0.0322284
0.0187908
0.0171905
0.0328064
0.0177264
0.0180684
0.0169473
0.016936
0.0319976
0.008838
0.00794293
0.0110093
0.0178339
0.0179081
0.0173352
0.0180109
0.0116791
0.0122519
0.0187673
0.0190797
0.0179462
0.0180811
0.0114783
0.0153847
0.00933838
0.010465
0.00693864
0.00686589
0.0134901
0.0167792
0.0234745
0.0231328
0.0239876
0.0236025
0.0170863
0.0390216
0.022206
0.0203108
0.0253964
0.0241496
0.0392848
0.0122708
0.0129095
0.0412462
0.0270615
0.0258285
0.0114984
0.0120859
0.0124018
0.0105211
0.0266668
0.0309435
0.0296267
0.00672025
0.0134853
0.00693693
0.00823762
0.00685632
0.0131413
0.0565672
0.0324133
0.0504725
0.0272121
0.0528402
0.00864511
0.00937201
0.0068271
0.00654187
0.0200922
0.00950868
0.00901566
0.010516
0.00963533
0.0203393
0.0116013
0.0120898
0.0102864
0.00978412
0.022234
0.0121038
0.0110234
0.00902275
0.00959015
0.01763
0.0257759
0.0294662
0.0217101
0.0247038
0.0167433
0.0145901
0.0178369
0.00846995
0.00901109
0.0118358
0.010082
0.0065216
0.0120419
0.0110656
0.0132739
0.0123798
0.00661986
0.00926272
0.00862435
0.0107765
0.00963022
0.016339
0.0109467
0.0123425
0.00902097
0.0103891
0.0159936
0.00770788
0.00695228
0.0206081
0.0418345
0.0379693
0.0487659
0.0432751
0.021746
0.0313788
0.0296367
0.0363378
0.0321012
0.0373047
0.0564951
0.0503952
0.0321627
0.0296794
0.0169396
0.0142823
0.0218351
0.014176
0.0180752
0.0207751
0.0146686
0.0172689
0.0262929
0.0197139
0.0174026
0.0193575
0.01996
0.03621
0.0144536
0.0134016
0.0190981
0.0149546
0.0125559
0.0121864
0.0131834
0.0127111
0.0342063
0.018747
0.019195
0.023372
0.0219921
0.0289246
0.0245805
0.0206027
0.0197383
0.0217009
0.0208672
0.0411404
0.0267131
0.0277112
0.00986518
0.0112618
0.0203127
0.0208884
0.0139939
0.0130699
0.0197068
0.020148
0.0195959
0.0191582
0.0322819
0.0144784
0.0148677
0.0112399
0.0139486
0.0149694
0.0158499
0.0148895
0.0149311
0.01734
0.017624
0.0326674
0.011699
0.0114303
0.0120936
0.0117868
0.0110017
0.0109688
0.0113418
0.0111076
0.032063
0.0170117
0.0172483
0.0082301
0.0078891
0.0178129
0.0178155
0.010958
0.0113412
0.0179603
0.0178244
0.0184144
0.0186696
0.0121553
0.0115483
0.0181395
0.0183363
0.00842611
0.00995225
0.0224065
0.0234404
0.0211888
0.0220623
0.00915136
0.0132893
0.0249156
0.0237619
0.023725
0.0246178
0.0127104
0.0178395
0.0183164
0.0164558
0.0176545
0.00900913
0.0200727
0.0209494
0.0185341
0.0196564
0.00895716
0.0084117
0.00909452
0.0151942
0.00669106
0.00682962
0.00830101
0.00682582
0.00676632
0.0136806
0.00683631
0.00783468
0.0175485
0.00681636
0.00698396
0.00863724
0.0069742
0.0178489
0.00690437
0.0147985
0.0070937
0.0152072
0.00874183
0.0144642
0.0135723
0.0156356
0.0147617
0.0090119
0.00666081
0.00662448
0.0132101
0.0140323
0.00999123
0.0112457
0.0150956
0.0131044
0.078999
0.0766078
0.0724185
0.0307957
0.0272016
0.0299365
0.061275
0.06975
0.0504405
0.0347704
0.0565057
0.0593502
0.0855991
0.0913801
0.0572874
0.0749916
0.0707281
0.0504692
0.0141338
0.011013
0.0108493
0.0082545
0.00924027
0.0542791
0.0540608
0.0384066
0.00745584
0.00736926
0.00991869
0.0107609
0.011495
0.0167469
0.0628264
0.0815496
0.0765141
0.0351598
0.037325
0.0501826
0.023113
0.0205424
0.0270319
0.046172
0.0307909
0.0343574
0.00953527
0.0106779
0.0104794
0.0134326
0.0152503
0.0153588
0.0127525
0.0217345
0.0221827
0.0169601
0.0377591
0.05482
0.0543965
0.0207216
0.0200003
0.0327462
0.00972996
0.00765829
0.00755844
0.00809282
0.0111393
0.0137788
0.0138264
0.0124368
0.0150313
0.0151391
0.0138774
0.0139345
0.0113213
0.0316749
0.0220155
0.0211065
0.0125574
0.0175757
0.0174539
0.0192703
0.0246119
0.0241276
0.00596067
0.00594994
0.0285861
0.0274679
0.0415162
0.00602089
0.00598506
0.0196134
0.0218202
0.0264475
0.0213942
0.0186833
0.00808479
0.00772852
0.00787473
0.0105416
0.0110908
0.00750949
0.0075999
0.00997805
0.00955996
0.0132042
0.00669368
0.0067684
0.00895656
0.0130483
0.0123171
0.0224657
0.0763313
0.0743606
0.0446149
0.0168474
0.0194493
0.0228718
0.0246064
0.0163596
0.0170025
0.030936
0.0366034
0.0295712
0.0127041
0.0123982
0.015111
0.0171504
0.0147128
0.0140683
0.00861818
0.0088347
0.0088914
0.00919063
0.0115339
0.010595
0.00773947
0.00831413
0.00679784
0.00665262
0.0092341
0.00893728
0.00665034
0.00663276
0.00663764
0.0169357
0.0117991
0.0127339
0.0199758
0.0190425
0.0265207
0.0254637
0.0359583
0.0337741
0.0267851
0.0169811
0.0166165
0.0237287
0.0205182
0.0159568
0.06189
0.0585666
0.0399344
0.0363453
0.0268511
0.029371
0.0237112
0.0143271
0.0155688
0.0280435
0.0296647
0.0454543
0.0162492
0.0158655
0.0101478
0.0107092
0.0239131
0.0245834
0.0201395
0.017147
0.0226626
0.0232373
0.0326673
0.019899
0.0196738
0.0077188
0.00781145
0.0144564
0.014542
0.0119645
0.0117115
0.0142888
0.0143737
0.00835111
0.0112222
0.0151506
0.0154584
0.0125837
0.0127765
0.00851547
0.0227646
0.0222112
0.0319258
0.00902987
0.00897525
0.0096921
0.00977358
0.00873954
0.0122648
0.0124339
0.00901404
0.00926143
0.0178973
0.0177227
0.0126706
0.0140075
0.0182587
0.0180796
0.0161041
0.0252157
0.0257309
0.0242279
0.0247047
0.0156723
0.0118717
0.0159484
0.0159128
0.0170126
0.0164804
0.0122867
0.00774616
0.0100783
0.00963004
0.0071954
0.00653711
0.00650993
0.00599172
0.00712059
0.00729205
0.00626332
0.0240612
0.0144997
0.013405
0.0155064
0.0147822
0.0228878
0.00861871
0.00932555
0.0127569
0.014316
0.0187219
0.0357051
0.0349739
0.0305219
0.0065071
0.00667639
0.0128471
0.0129305
0.00296805
0.00830271
0.00666619
0.00663191
0.00647153
0.00658215
0.00866468
0.00184785
0.00913883
0.0141984
0.0581401
0.056336
0.0371912
0.0114434
0.0112077
0.0142805
0.0115161
0.0135075
0.0149413
0.0127987
0.013187
0.00833612
0.00916121
0.00695788
0.00698599
0.00743535
0.00709308
0.00993472
0.00730179
0.00725287
0.00973715
0.00733365
0.00751812
0.00688687
0.00717591
0.00926038
0.0134506
0.0163123
0.0165876
0.0156403
0.0160382
0.0130899
0.00962536
0.0127926
0.0102308
0.00959805
0.0128513
0.0154678
0.0155803
0.007681
0.00773484
0.00943365
0.00800924
0.0136874
0.0137303
0.0110702
0.0148301
0.0149288
0.0123414
0.0113993
0.0139992
0.0140672
0.00700227
0.00860251
0.00801395
0.0091056
0.00892153
0.00695222
0.00596223
0.00603178
0.00615152
0.00607061
0.011707
0.00857867
0.00843238
0.00799053
0.00749431
0.0117109
0.00915033
0.0101844
0.0078287
0.00832194
0.0110626
0.0230684
0.0213295
0.0243788
0.0202123
0.0272886
0.0305231
0.0341999
0.0235007
0.025873
0.0227812
0.00714859
0.00976336
0.00943123
0.0107362
0.0102122
0.00754318
0.00662947
0.0080326
0.0073982
0.00913687
0.00874172
0.00679847
0.0379632
0.0469966
0.0418884
0.0283415
0.0258643
0.0352068
0.0310592
0.00823009
0.0101218
0.00799294
0.00796777
0.00672042
0.0066218
0.0122677
0.0125393
0.00923746
0.0076795
0.00750149
0.0112848
0.00756503
0.00745803
0.00753367
0.0126716
0.0088251
0.00810835
0.00792209
0.00863597
0.0107644
0.00675047
0.00657369
0.00703856
0.00684934
0.00933396
0.00693946
0.00729005
0.00915701
0.00629979
0.00637188
0.00641275
0.00628935
0.00932603
0.020719
0.0216541
0.0185383
0.0152261
0.0176219
0.0196542
0.0107539
0.0147907
0.0120716
0.0117334
0.0121059
0.0124186
0.0115154
0.0118316
0.00853583
0.00891338
0.00717774
0.00724907
0.0070324
0.00709246
0.0117027
0.00933939
0.00942119
0.00725208
0.00740794
0.0102803
0.00720149
0.0076952
0.00712058
0.0066219
0.00867135
0.00831304
0.00900765
0.00660559
0.00675306
0.00666421
0.00660874
0.00881726
0.0104481
0.0082904
0.00864712
0.00709295
0.00767531
0.0100548
0.00654591
0.00948944
0.01169
0.011243
0.00731152
0.00708994
0.0179509
0.0281449
0.0273187
0.0197141
0.0230809
0.0311545
0.0293268
0.0179139
0.0173849
0.0234644
0.0239213
0.0302307
0.019538
0.0186436
0.0235158
0.0249703
0.0341498
0.0227246
0.025409
0.0197267
0.0220696
0.016219
0.0186438
0.0193552
0.0169945
0.0176634
0.0146928
0.0126414
0.0136711
0.0187434
0.0160058
0.0153811
0.0182574
0.0165075
0.0195877
0.0151956
0.0147279
0.0136273
0.0156913
0.0140247
0.0136758
0.0178497
0.0130894
0.013497
0.0120019
0.0154612
0.0124153
0.0122925
0.013004
0.0128521
0.0226858
0.0165788
0.0172613
0.0155718
0.0160055
0.0222904
0.0279434
0.0221475
0.022942
0.0179699
0.0207151
0.0264705
0.015309
0.0139903
0.0203454
0.0141063
0.0142925
0.0137358
0.0139273
0.0200812
0.0214197
0.0149898
0.0152512
0.0144989
0.0147325
0.021141
0.010024
0.0109964
0.0147191
0.0105481
0.0107481
0.0101807
0.0103434
0.0148226
0.0118393
0.0108711
0.0107606
0.0128977
0.0150824
0.00973099
0.0097162
0.0105622
0.00998642
0.0153566
0.0149028
0.00995497
0.0100552
0.00979676
0.00987245
0.0149148
0.011622
0.0115409
0.0120026
0.0118886
0.0109326
0.010903
0.0112654
0.0111969
0.00788095
0.00784581
0.0120551
0.0146336
0.0147312
0.0141357
0.0142087
0.0116248
0.00846599
0.0141922
0.0147368
0.0107684
0.00868902
0.0130931
0.0135941
0.00927254
0.0091327
0.0179947
0.0134704
0.0133849
0.0170029
0.012492
0.0115248
0.0132515
0.0130008
0.0173971
0.00965225
0.00944802
0.0115243
0.0120036
0.00888999
0.00976435
0.0106402
0.00872768
0.0109013
0.0106153
0.0113493
0.0111299
0.00891408
0.00670736
0.00677807
0.00771376
0.0066263
0.00669931
0.00715343
0.00695992
0.00951176
0.00927668
0.0102548
0.00985657
0.00728097
0.00681718
0.00998234
0.0101663
0.00967799
0.00983663
0.00688572
0.00798245
0.0114178
0.0118988
0.0104558
0.0108965
0.00735199
0.00685701
0.0072061
0.00735548
0.00732557
0.00722953
0.00720336
0.00906936
0.00945206
0.00774041
0.00839514
0.00718554
0.0108468
0.0104948
0.00837949
0.0068343
0.0066162
0.00623636
0.00661161
0.0104657
0.00729259
0.00673452
0.00822574
0.00788128
0.010906
0.0063107
0.00624495
0.00897287
0.00843972
0.0692464
0.0695529
0.0693053
0.0696919
0.0700484
0.0695106
0.0701132
0.0700403
0.0695674
0.0699362
0.0696783
0.0694981
0.0689194
0.0693638
0.0691124
0.069719
0.07153
0.0697938
0.0723932
0.0770298
0.0706069
0.0773634
0.0743933
0.0705431
0.0736024
0.071457
0.0698548
0.0708482
0.0699655
0.0696396
0.0690957
0.0703695
0.0695577
0.0713849
0.083139
0.0725742
0.0771566
0.0867091
0.075608
0.0997247
0.093626
0.0800077
0.0813055
0.076749
0.0744743
0.0749056
0.0715703
0.070583
0.0693395
0.0715679
0.0706876
0.0724656
0.0748485
0.073873
0.0923913
0.0962537
0.0956887
0.0552689
0.0722541
0.0797845
0.0756996
0.073981
0.0728317
0.0694563
0.0722566
0.0718027
0.0742453
0.0779596
0.0773834
0.0859756
0.0799161
0.0823957
0.0367013
0.0496105
0.055968
0.0676677
0.0743918
0.0745659
0.0693914
0.0723362
0.072328
0.0749374
0.0786363
0.0786909
0.0738334
0.0660116
0.0671976
0.0319068
0.0412351
0.0434458
0.0602139
0.0722782
0.0735566
0.0691966
0.0720155
0.0722835
0.0746381
0.0775182
0.0778852
0.067405
0.060514
0.0608951
0.0304484
0.0379134
0.0388631
0.0551257
0.0690905
0.0707512
0.0689338
0.0715125
0.0719003
0.0649304
0.0590096
0.0591026
0.0304204
0.0362577
0.0367602
0.0512959
0.0656172
0.0673691
0.0686311
0.0709292
0.0713717
0.0312704
0.0345887
0.0346582
0.0480544
0.0620759
0.0638524
0.0683277
0.0698647
0.0700862
0.0715262
0.0691185
0.069585
0.0647399
0.049549
0.0484878
0.0044175
0.013213
0.016976
0.0351402
0.0408006
0.0423505
0.0475902
0.0578063
0.0602525
0.0680058
0.0693667
0.0696194
0.071123
0.0685826
0.0689884
0.0633527
0.0265747
0.0217665
0.014758
0.0335126
0.0361711
0.0365327
0.0385226
0.0404152
0.045137
0.0537939
0.0557673
0.0702714
0.0689167
0.0693397
0.059368
0.0372356
0.0281002
0.0191538
0.0253456
0.0319946
0.0348267
0.0381786
0.0384434
0.0849902
0.0876433
0.0910101
0.0400147
0.0360673
0.0329474
0.0639527
0.0555746
0.0613432
0.0685245
0.0700017
0.0777285
0.0312836
0.0266981
0.0259132
0.0321973
0.0303458
0.0356028
0.0613475
0.0618784
0.0692153
0.0285172
0.0243247
0.0243133
0.0256896
0.025127
0.0298137
0.0592403
0.0594358
0.065571
0.0283252
0.0250875
0.0260729
0.0243285
0.0244357
0.0282326
0.0293538
0.0279543
0.0282601
0.0263005
0.0265391
0.028593
0.0482064
0.0478459
0.0644546
0.00318572
0.0112663
0.0116284
0.00467999
0.00463907
0.00212601
0.0285823
0.0289229
0.0299893
0.0986789
0.0923617
0.0794736
0.0435603
0.0471687
0.0368183
0.0770865
0.0910092
0.0998745
0.039585
0.0411636
0.0821388
0.0805511
0.0716201
0.0787071
0.0909468
0.0836883
0.0766527
0.075793
0.0729859
0.0905954
0.0806995
0.0820576
0.0771332
0.0789987
0.0899558
0.0315066
0.0269721
0.0240199
0.0462065
0.0412641
0.0439863
0.0586846
0.0687609
0.0506472
0.0758796
0.0728069
0.0678681
0.0788623
0.076866
0.0774302
0.0786077
0.0783673
0.0745294
0.0849422
0.0835367
0.0832919
0.0829798
0.0834575
0.0861155
0.0754291
0.0775865
0.0842045
0.0469676
0.054415
0.0533587
0.0626073
0.060969
0.0533456
0.0173943
0.0164972
0.0191038
0.0443729
0.0480369
0.0357799
0.0634537
0.0554474
0.052656
0.0630682
0.0588956
0.0665787
0.0782086
0.0784674
0.0749372
0.0764482
0.0813782
0.0805661
0.0828012
0.0821411
0.0773327
0.0640266
0.0649576
0.0727293
0.0379724
0.0446675
0.0444593
0.0467455
0.0462938
0.0392218
0.0392457
0.0406559
0.0316012
0.0544755
0.0470776
0.0458343
0.0504036
0.0485751
0.056229
0.0767235
0.0771263
0.0744695
0.0714827
0.0781897
0.077483
0.0797466
0.078948
0.0719184
0.0599365
0.0601975
0.066934
0.0385546
0.0540022
0.0539372
0.0438562
0.0438899
0.0381815
0.0123092
0.00984578
0.0101793
0.0369595
0.0376434
0.0303858
0.0494959
0.0430941
0.0423926
0.0447868
0.0438857
0.0505212
0.0179235
0.0141599
0.01496
0.0145537
0.0147707
0.0163699
0.0347621
0.0348951
0.0304797
0.0461722
0.0405585
0.0399926
0.0417645
0.0411968
0.046927
0.0241179
0.0225003
0.0229512
0.0198268
0.0202723
0.0221648
0.0534204
0.0499152
0.0625471
0.0121475
0.0435498
0.0451536
0.0253548
0.0269654
0.00663575
0.0230292
0.0273367
0.0068998
0.035175
0.0324776
0.0329141
0.0308636
0.0325543
0.0338814
0.0586218
0.0661395
0.0643351
0.0888261
0.0832865
0.0651443
0.0923326
0.0902693
0.0927204
0.0624522
0.0492326
0.0553239
0.0887178
0.0831252
0.0876231
0.059942
0.0633863
0.0711862
0.0206784
0.0184452
0.0180296
0.0281317
0.0269934
0.0285423
0.0405254
0.0379607
0.0419399
0.0299689
0.032261
0.0334589
0.0266125
0.027327
0.0245253
0.040487
0.0477909
0.0472435
0.0523496
0.0514033
0.0438586
0.0792211
0.0716398
0.0734475
0.0379287
0.0333442
0.0341073
0.0288294
0.0289878
0.0335867
0.0347513
0.0352929
0.0396404
0.0280568
0.0270008
0.0319269
0.0158763
0.018044
0.0183504
0.0205212
0.0252333
0.0259139
0.0185894
0.0187895
0.0166342
0.0344816
0.0298213
0.0284568
0.0378781
0.0438238
0.0438308
0.0442882
0.0441482
0.0377533
0.0699666
0.0624962
0.0632098
0.0320861
0.0277469
0.0276135
0.0292972
0.0291319
0.0329551
0.0330932
0.0285357
0.0286771
0.0275336
0.0274974
0.0319508
0.024527
0.0243536
0.0286835
0.0145259
0.0144298
0.0121781
0.0294522
0.0249738
0.0246151
0.0339916
0.0259397
0.0251908
0.0301115
0.0297678
0.0354041
0.0332868
0.0296206
0.0294665
0.0249637
0.0241953
0.0330705
0.0157892
0.0140872
0.0143272
0.0105685
0.010918
0.0130765
0.0247503
0.0250002
0.0282547
0.0153625
0.0190708
0.0188526
0.0203899
0.0201577
0.0176961
0.0124214
0.0146532
0.0145891
0.0186404
0.0184427
0.0141383
0.0281988
0.0244864
0.0246761
0.0384828
0.033628
0.0332894
0.0355234
0.035223
0.0398008
0.0362437
0.0308077
0.0304556
0.0329456
0.0325962
0.0376538
0.0210115
0.0189318
0.0193789
0.01522
0.0159991
0.0190916
0.0186302
0.0208654
0.0206254
0.0253159
0.0247743
0.019576
0.0287157
0.0267901
0.0270551
0.0432974
0.0300728
0.0289504
0.030227
0.0301711
0.0433232
0.0406761
0.0361351
0.0358283
0.0270177
0.0227345
0.0235765
0.0947645
0.096064
0.093421
0.0837414
0.0955083
0.0905976
0.0987008
0.0969239
0.0868154
0.0368257
0.0332818
0.035675
0.0693077
0.0757067
0.0752229
0.0768334
0.0762419
0.0694805
0.058928
0.0589534
0.064777
0.0419183
0.0522576
0.0524118
0.051981
0.0521133
0.0416885
0.0141811
0.0123563
0.0127779
0.00990971
0.0104072
0.0123823
0.0345995
0.0345661
0.0314495
0.064231
0.0583985
0.0627434
0.0346566
0.0380089
0.0461684
0.0400866
0.0485623
0.0621892
0.0391397
0.0455406
0.0377995
0.0545646
0.0488724
0.0440191
0.0401286
0.0539758
0.0518553
0.0539229
0.0539628
0.0399204
0.0658424
0.0595582
0.0597256
0.0195525
0.0160332
0.0157305
0.0176947
0.0173622
0.020879
0.011185
0.00907549
0.00945889
0.0273369
0.0276379
0.0291734
0.0218007
0.0260838
0.0254956
0.0264043
0.0262717
0.0221296
0.0217369
0.0183722
0.0180379
0.0199519
0.0196926
0.0229222
0.0244635
0.0273761
0.0268837
0.0284361
0.0278933
0.0248033
0.0302374
0.0292853
0.0296695
0.102322
0.0994803
0.0909425
0.101805
0.10146
0.100996
0.0807667
0.0975656
0.102153
0.0613298
0.0592329
0.0524138
0.0969645
0.0825713
0.083324
0.088105
0.0832037
0.0981214
0.0323566
0.0280799
0.0334389
0.0321792
0.0385225
0.043738
0.0261304
0.0277834
0.0249104
0.0404772
0.0380234
0.0349127
0.0130102
0.0138741
0.0175418
0.0173125
0.0158568
0.016081
0.0170027
0.0155269
0.0158819
0.0131993
0.0136017
0.0152673
0.0148036
0.0180655
0.0175414
0.0191076
0.0185874
0.0151247
0.0225523
0.0207188
0.021164
0.0435703
0.0476944
0.0596889
0.0521852
0.0381921
0.0420947
0.0320166
0.0396296
0.0377676
0.0538065
0.0513533
0.0445083
0.074363
0.0669585
0.0705078
0.0216014
0.0209341
0.0230295
0.0248911
0.0228363
0.0222063
0.0303479
0.0305915
0.0354603
0.0346674