/*--------------------------------*- C++ -*----------------------------------*\
| =========                 |                                                 |
| \\      /  F ield         | OpenFOAM: The Open Source CFD Toolbox           |
|  \\    /   O peration     | Version:  5.x                                   |
|   \\  /    A nd           | Web:      www.OpenFOAM.org                      |
|    \\/     M anipulation  |                                                 |
\*---------------------------------------------------------------------------*/
FoamFile
{
    version     2.0;
    format      ascii;
    class       volScalarField;
    location    "2287";
    object      p;
}
// * * * * * * * * * * * * * * * * * * * * * * * * * * * * * * * * * * * * * //

dimensions      [0 2 -2 0 0 0 0];

internalField   nonuniform List<scalar> 
6584
(
32.7641
31.1993
29.5933
27.9657
26.2368
24.3229
22.1111
19.44
16.1486
11.9464
6.89502
1.03744
-5.27062
-11.459
-17.0397
-21.7864
-25.6554
-28.7997
-31.4098
-33.638
-35.6263
-37.467
-39.2491
-40.9962
32.7099
31.2033
29.6221
28.0371
26.3609
24.5159
22.3915
19.8176
16.6274
12.3327
7.21153
1.1765
-5.3782
-11.763
-17.4119
-22.2672
-26.0564
-29.1049
-31.6293
-33.7814
-35.7131
-37.5084
-39.2624
-40.9739
32.5932
31.1888
29.69
28.2247
26.7028
25.0679
23.2214
21.0088
18.2727
15.0388
10.0103
3.71928
-3.61235
-10.9593
-17.3324
-23.7953
-27.4159
-30.1011
-32.333
-34.2373
-35.9851
-37.6385
-39.2979
-40.9252
32.4265
31.1488
29.7597
28.4574
27.1499
25.8116
24.3575
22.6718
20.4016
17.377
12.6366
5.50169
-3.62604
-12.6888
-19.7784
-24.6266
-29.2303
-31.5552
-33.326
-34.8522
-36.3361
-37.7868
-39.3157
-40.8226
32.1935
31.0615
29.7965
28.6809
27.6277
26.6556
25.7465
24.7634
23.2306
21.1199
17.0592
8.51656
-4.06009
-16.2107
-24.3643
-28.6653
-31.0609
-33.316
-34.5753
-35.559
-36.7044
-37.9043
-39.2774
-40.6311
31.8779
30.8985
29.7576
28.8307
28.0327
27.4517
27.0625
26.4982
26.9125
26.8415
24.5006
17.4135
-2.01651
-21.9299
-32.1246
-34.4369
-34.797
-35.2817
-35.8234
-36.2157
-37.0005
-37.9298
-39.137
-40.3152
31.4691
30.6328
29.5973
28.8335
28.2565
28.0185
28.2216
28.3875
30.145
33.15
35.8365
34.7098
-1.26943
-42.9764
-44.2241
-41.7917
-38.7408
-37.1286
-36.8477
-36.6826
-37.1236
-37.7943
-38.8474
-39.8443
30.963
30.2434
29.2757
28.6146
28.1615
28.0957
28.5521
29.3424
31.9672
36.8881
45.3041
65.1385
-91.4158
-60.5896
-48.4251
-42.1018
-38.4039
-37.3874
-36.8015
-36.9709
-37.435
-38.368
-39.1978
30.3649
29.723
28.7752
28.1409
27.6904
27.6051
27.9758
29.0095
31.3284
35.4655
42.7417
55.1463
-111.175
-69.1949
-51.3692
-43.5637
-38.6522
-37.1872
-36.4291
-36.4606
-36.8072
-37.6745
-38.3711
29.6904
29.0817
28.107
27.4276
26.8715
26.602
26.627
27.4892
28.6751
30.4036
32.9524
32.5033
-93.4415
-65.0892
-49.2324
-42.4127
-37.611
-36.1398
-35.4994
-35.56
-35.8989
-36.7649
-37.3775
28.9622
28.3441
27.3053
26.5274
25.7952
25.2472
24.8088
25.2633
25.2082
24.8322
24.2334
19.5553
-66.4162
-53.4311
-43.3823
-39.0298
-35.4037
-34.3475
-34.0657
-34.3008
-34.7389
-35.6642
-36.2477
28.2062
27.5432
26.417
25.5107
24.5744
23.7238
22.8324
22.8156
21.7975
20.1763
18.4515
14.865
-42.5804
-40.174
-35.9989
-34.3759
-32.4277
-32.0467
-32.2637
-32.7723
-33.3822
-34.4184
-35.0251
27.4483
26.7144
25.491
24.4465
23.3101
22.1745
20.9031
20.4367
18.7788
16.4331
14.1095
10.7875
-26.6541
-28.6832
-28.7365
-29.3862
-29.1372
-29.5158
-30.2587
-31.09
-31.912
-33.0838
-33.7573
26.7107
25.8894
24.5702
23.3934
22.0831
20.7129
19.1814
17.3195
16.3234
13.4645
10.7168
5.59679
-8.69258
-14.8787
-19.6413
-22.4307
-24.7006
-25.8896
-26.9857
-28.2029
-29.3591
-30.4035
-31.7166
-32.491
26.0105
25.0938
23.6864
22.392
20.9402
19.3978
17.6726
15.7132
14.3547
11.3604
8.38402
3.64464
-1.96785
-7.21129
-13.5033
-17.6514
-20.6781
-22.9764
-24.6644
-26.2433
-27.6778
-28.9203
-30.3687
-31.2591
25.3592
24.3454
22.8605
21.465
19.9
18.2284
16.3532
14.2287
12.7361
9.92447
6.63164
3.71724
0.244171
-4.77442
-9.78215
-14.2733
-18.0985
-20.4966
-22.5951
-24.4393
-26.1066
-27.5274
-29.0939
-30.1084
24.7639
23.6558
22.1052
20.6265
18.9762
17.2165
15.2632
13.0776
10.6329
8.99446
6.02603
2.99596
0.5872
-3.08395
-8.00354
-11.9405
-15.7505
-18.4204
-20.8096
-22.8343
-24.6727
-26.2366
-27.906
-29.0429
24.2276
23.0311
21.4266
19.8812
18.1707
16.3574
14.3752
12.2169
9.86144
7.32692
5.59704
2.83423
0.111448
-3.83124
-7.56762
-11.1407
-14.1806
-16.9098
-19.3537
-21.4642
-23.4098
-25.0792
-26.8243
-28.0744
23.7503
22.4726
20.8245
19.2259
17.473
15.6259
13.6316
11.4994
9.21273
6.77505
4.1784
1.56402
-1.60373
-4.48403
-6.55589
-10.3682
-13.0684
-15.7493
-18.1604
-20.3074
-22.3138
-24.0588
-25.8579
-27.2109
23.3296
21.9786
20.2954
18.6542
16.8718
15.005
13.0116
10.9088
8.6865
6.35531
3.95155
1.50692
-0.645523
-3.67646
-6.06136
-9.52221
-12.1399
-14.7886
-17.1649
-19.3281
-21.3665
-23.1658
-25.0035
-26.4482
22.9618
21.5455
19.8343
18.1589
16.3563
14.4795
12.494
10.4194
8.25026
5.98381
3.67251
1.21917
-0.973458
-3.77546
-5.96055
-8.99055
-11.4758
-14.0281
-16.349
-18.5052
-20.5536
-22.3902
-24.2538
-25.7787
22.6425
21.1685
19.4348
17.7318
15.9156
14.0347
12.0602
10.0109
7.88535
5.66792
3.42344
1.02095
-1.18938
-3.78088
-5.88599
-8.61474
-10.9824
-13.4231
-15.6811
-17.8149
-19.8587
-21.7199
-23.5995
-25.1933
22.367
20.8425
19.0908
17.3656
15.5403
13.6588
11.697
9.67109
7.58535
5.41605
3.23388
0.913112
-1.25302
-3.69587
-5.79769
-8.30903
-10.5878
-12.9285
-15.1278
-17.2329
-19.2639
-21.1407
-23.0292
-24.6817
22.1305
20.562
18.7961
17.0528
15.2218
13.3419
11.3935
9.39008
7.33973
5.21512
3.08461
0.836872
-1.29257
-3.61778
-5.71386
-8.05943
-10.2651
-12.5185
-14.6645
-16.7386
-18.753
-20.6394
-22.5319
-24.2337
21.9285
20.3218
18.5446
16.7866
14.9524
13.0757
11.1406
9.15836
7.13884
5.05501
2.96774
0.784457
-1.3122
-3.54234
-5.62551
-7.85043
-9.99455
-12.1736
-14.2723
-16.316
-18.3119
-20.2033
-22.0964
-23.8393
21.7567
20.1171
18.3309
16.5611
14.7253
12.8528
10.9305
8.96814
6.97588
4.9291
2.87879
0.751952
-1.31291
-3.46577
-5.52968
-7.66831
-9.76062
-11.8782
-13.9361
-15.9512
-17.9283
-19.8214
-21.7126
-23.489
21.611
19.9432
18.1499
16.3706
14.5344
12.6667
10.7567
8.81291
6.84496
4.83092
2.81343
0.735798
-1.30059
-3.39347
-5.43282
-7.50684
-9.55336
-11.6202
-13.6435
-15.6332
-17.5928
-19.4857
-21.3737
-23.1761
21.4879
19.796
17.997
16.21
14.3745
12.5118
10.6133
8.68688
6.74049
4.75616
2.76847
0.735005
-1.27179
-3.31681
-5.3314
-7.35911
-9.3673
-11.3921
-13.3852
-15.352
-17.2952
-19.1862
-21.0699
-22.8925
21.3842
19.6716
17.8681
16.075
14.2407
12.3831
10.4955
8.58463
6.65778
4.70072
2.74
0.74484
-1.23327
-3.23742
-5.22589
-7.21871
-9.19537
-11.1858
-13.1532
-15.1
-17.0278
-18.9156
-20.7943
-22.6314
21.2971
19.5668
17.7597
15.9616
14.1286
12.2761
10.3982
8.5017
6.59313
4.6607
2.72483
0.763366
-1.18732
-3.15606
-5.11812
-7.08269
-9.03328
-10.9956
-12.9415
-14.871
-16.7848
-18.6682
-20.541
-22.3878
21.224
19.4785
17.6682
15.866
14.0346
12.1865
10.3174
8.43469
6.54284
4.63282
2.72013
0.789001
-1.1351
-3.07218
-5.00833
-6.94907
-8.87838
-10.8178
-12.7458
-14.6603
-16.5613
-18.4391
-20.3056
-22.1574
21.163
19.404
17.591
15.7851
13.9545
12.1101
10.2499
8.37997
6.50357
4.6141
2.72339
0.820528
-1.07666
-2.98318
-4.89328
-6.81279
-8.72577
-10.6481
-12.5624
-14.4647
-16.3541
-18.2251
-20.0845
-21.9369
21.1122
19.3408
17.5252
15.7156
13.8851
12.0445
10.1928
8.33452
6.47224
4.6014
2.73126
0.854448
-1.01639
-2.8936
-4.77837
-6.67911
-8.57954
-10.4885
-12.3912
-14.282
-16.1595
-18.0221
-19.8735
-21.7228
21.071
19.2875
17.469
15.6546
13.8235
11.9864
10.1423
8.29448
6.44511
4.59169
2.74223
0.893573
-0.943265
-2.77951
-4.62913
-6.51106
-8.41047
-10.3228
-12.2273
-14.1138
-15.9813
-17.833
-19.6738
-21.5151
21.0353
19.2394
17.4184
15.5997
13.7689
11.9355
10.0986
8.26034
6.42189
4.58214
2.74687
0.914902
-0.905462
-2.72351
-4.55721
-6.42457
-8.30971
-10.2011
-12.0828
-13.9485
-15.7987
-17.6384
-19.471
-21.3051
21.0159
19.2042
17.3776
15.55
13.715
11.8807
10.0477
8.21666
6.38802
4.56405
2.75464
0.974614
-0.738302
-2.38636
-4.07849
-5.92837
-7.92396
-9.96473
-11.9547
-13.8606
-15.699
-17.5044
-19.303
-21.1101
58.0945
-120.295
-98.9477
34.9589
-101.054
-119.256
20.5427
-71.5546
-97.6926
15.2629
-45.2834
-67.8328
11.4147
-27.7591
-42.5912
5.99963
-6.34487
-12.1487
-15.5214
-26.1542
62.7571
6.2698
-90.3557
-40.4598
44.5235
55.9958
61.1363
-174.122
-143.482
-111.824
-75.2479
-65.7264
35.5293
35.4156
53.4131
46.1268
45.6972
61.5496
-132.327
-152.089
-96.4275
-72.6884
-75.991
26.1129
21.6231
33.1524
26.2051
20.4236
29.3565
-94.8089
-112.97
-69.8495
-59.7629
-70.0421
19.69
15.8961
20.6261
17.2577
13.6959
15.2191
-56.9828
-73.4336
-45.0446
-44.2794
-55.8472
-33.5732
-42.7402
-28.3249
-31.0192
-40.6302
-20.502
-25.4379
3.67476
-1.75587
-6.05974
1.42643
-7.59946
-14.157
64.0081
81.4333
65.0967
84.35
64.7035
87.7955
87.0019
-153.547
-169.247
-118.942
-162.995
-150.026
30.9588
43.6825
43.1679
43.9848
29.8276
62.1764
44.9319
-113.795
-131.065
-110.266
-129.896
-113.11
-149.312
-131.15
-112.98
15.5577
19.5683
24.5225
19.0075
14.7092
29.2001
19.1945
-74.5567
-93.4894
-83.0589
-93.0212
-74.3389
-112.126
-94.3176
-86.87
13.0133
12.8719
14.7149
13.0908
-43.4089
-55.9789
-54.0103
-56.052
-43.8622
-73.2002
-56.9844
-57.2654
12.2692
10.1212
12.8703
12.434
-26.1997
-32.5147
-42.4594
-33.7163
-35.4039
5.5718
1.19914
9.74746
6.06856
-12.6572
-19.7035
66.4934
83.7147
83.2182
-237.315
-199.688
15.122
11.849
15.4509
13.5783
12.4951
13.133
-22.9293
-25.2405
-17.4576
-20.5876
-28.1661
108.982
117.594
-133.774
-163.771
-116.342
13.1614
13.5854
16.6898
11.1928
11.7908
11.522
9.88624
11.8935
12.409
-25.6397
-28.6231
-33.3053
-32.6347
-26.3751
9.63925
7.94817
-25.5946
-21.5673
-21.5102
3.18445
48.9064
84.0955
-132.058
-58.1338
-3.4179
-235.333
-170.06
-223.427
-187.241
-226.042
-167.249
-142.425
-142.638
-103.565
-104.766
-64.1963
-64.9415
-36.991
-33.027
-36.9262
-20.654
-22.6316
-25.3029
-23.0161
-23.2879
95.3012
75.9353
78.9161
94.1286
77.1454
73.0654
96.5282
112.006
92.537
116.255
97.7257
-162.535
-165.047
36.9466
36.1775
53.8109
52.6756
-121.575
-122.836
-122.102
-115.455
-121.066
-107.646
-113.457
-120.889
-141.221
-130.139
-134.757
-122.947
-128.403
-140.442
16.4378
16.3742
23.643
23.2229
-83.5223
-84.6374
-84.2406
-81.8447
-88.5902
-72.99
-79.5716
-83.0748
-104.141
-99.5466
-105.633
-90.8575
-97.4012
-102.954
11.228
12.8681
11.3397
10.9657
11.9493
11.3856
12.869
13.6202
11.0674
13.4541
-48.9486
-49.7025
-65.0177
-64.7198
-70.9136
-57.1408
-62.7642
-64.1299
12.5335
11.7502
12.7992
12.4243
12.0296
12.528
12.4613
12.7445
12.4589
12.5667
-28.637
-28.5353
-25.6859
-32.5315
-28.8337
-29.5667
-28.6691
4.08958
0.358925
-5.37203
7.69646
5.26078
-26.626
-17.9507
-20.3055
-283.855
11.3516
7.62545
11.2671
8.71935
6.85501
9.63329
-4.07215
-8.09754
-12.6155
117.906
10.1355
12.3219
13.1068
10.5834
9.54046
-7.14028
-0.79576
-2.67487
9.50486
8.64835
-12.7531
-16.7791
-8.98335
6.9834
59.9845
106.434
-184.729
-88.617
-26.916
52.0926
51.4674
45.9921
-136.35
-157.378
-148.125
23.6552
26.5834
23.2155
31.6487
27.4839
24.9393
-98.6349
-109.333
-60.2235
-70.0047
-20.8296
-21.3252
-22.585
-22.7647
-20.725
0.649247
0.476657
-2.94282
93.0783
113.646
107.838
-157.712
-163.852
-159.488
-159.934
-141.343
-138.521
-136.25
-140.402
-157.911
36.108
37.5933
32.8482
44.2381
39.0695
37.92
40.8465
39.9987
43.2482
28.5072
31.068
32.5791
44.3846
47.741
48.2086
-117.285
-128.791
-127.32
-123.753
-126.483
-110.728
-113.548
-116.5
22.6153
20.0776
17.4702
17.6725
16.0554
16.7471
26.5683
24.8931
27.5994
17.175
18.4898
20.866
-77.4444
-89.6909
-89.2478
-87.7928
-91.2463
-74.2237
-76.5044
-77.3386
-108.683
-106.472
-109.353
-92.6637
-96.0252
-98.0886
-45.731
-45.6734
-43.3231
-55.7288
-53.5761
-53.4804
-50.247
-50.2724
-55.3353
-44.1086
-48.641
-48.6041
11.5528
11.492
12.4718
10.0087
11.3057
11.2424
4.23314
1.18666
8.34083
8.05324
9.53188
6.9908
5.14393
-20.0233
-20.6104
-236.13
-254.968
-229.242
-22.6543
-23.9314
-23.8455
-22.7203
-24.1308
-24.2704
118.959
137.493
121.48
139.895
119.801
11.22
11.7571
12.1557
10.9674
10.8681
10.9563
11.812
9.87766
10.6476
10.6106
12.2257
12.3659
-26.6749
-27.1512
8.87232
8.76955
9.70287
8.4917
8.14615
-218.445
-196.701
-197.635
-191.732
-195.529
-214.613
-137.779
-146.515
-99.9319
-108.359
-61.2399
-68.8593
-34.8373
-35.1967
-37.1697
-33.059
-34.7202
-34.4852
-40.4313
-42.7362
-37.8185
-39.5995
-21.464
-21.3992
-20.8069
-22.6957
-21.722
-21.7525
-21.8011
-22.5327
85.1482
82.9128
77.5779
90.6176
84.8056
87.2907
69.3272
64.7251
75.8492
70.9264
103.585
96.1308
92.6231
108.237
105.268
-171.396
-166.011
-160.139
-174.136
-184.269
-189.94
-176.08
-181.281
-166.809
-178.668
-173.599
35.8851
38.917
39.9736
38.6749
35.5528
42.9528
39.7828
30.5461
28.1637
34.7105
31.6744
33.2863
32.0727
34.9808
57.5048
53.575
63.2285
58.9983
47.5547
44.1622
52.3185
48.6374
49.2349
48.8526
52.4487
-118.576
-126.156
-119.208
-122.22
-125.848
-117.673
-114.934
-117.77
14.909
15.7403
17.5615
15.0626
14.2989
15.893
15.3102
13.0679
12.9354
14.1046
13.3112
21.6591
24.1238
26.0356
23.6393
20.9262
27.2022
24.3576
17.7466
16.5109
20.3822
18.3017
21.1678
19.0537
21.0096
-79.8704
-88.2865
-82.9323
-86.4241
-87.9202
-78.8448
-77.821
-81.6259
-102.071
-105.078
-107.623
-99.3597
-97.4633
-100.649
11.3064
11.3795
12.0448
12.0611
11.9464
11.9965
10.8841
11.8713
12.3068
12.262
12.1351
12.2188
11.6653
12.4125
12.1953
12.9657
12.4871
11.1763
12.0121
11.9494
12.1302
12.0511
11.2182
-49.1396
-46.605
-46.5298
-46.6129
-48.7415
-43.4763
-45.819
-49.3167
-52.5364
-52.7387
-49.3132
12.3327
12.5252
13.0843
12.0776
12.398
12.2384
12.4552
12.6334
12.9791
12.6853
-30.9958
-31.0365
-32.4941
-28.9408
-30.5397
-30.4641
-30.3971
-30.8177
0.198345
-2.4503
8.1101
7.37289
-19.7575
-19.8362
-84.4401
-60.6648
-44.8649
-20.0256
-19.3645
-14.8046
-1.78401
66.6471
108.683
-249.895
-126.635
-43.9423
-64.2659
-63.3596
-124.088
59.1167
53.5233
54.3537
-133.586
-134.525
-133.323
-96.2377
-111.696
17.6491
16.3269
14.3786
-73.5853
-72.441
-72.2973
-42.6812
-40.4376
-40.5356
71.6443
66.6389
61.4794
64.5884
69.0446
67.4381
-185.261
-180.525
-169.277
58.4942
58.9305
63.1273
-114.89
-132.286
-131.331
-129.917
-112.297
-113.356
-114.199
-128.464
-130.82
-134.927
16.9125
19.7088
17.858
13.3981
13.7296
15.4294
-75.8139
-75.6007
-74.5565
-92.1837
-91.7408
-91.2184
-92.4636
-110.972
-110.151
-111.241
-93.7386
-95.0033
-95.649
14.0536
12.9028
13.3176
-69.7871
-69.842
-72.1988
-38.4313
-38.8508
-42.8083
4.37094
3.03001
5.34411
7.51294
7.8902
6.88211
5.71382
-20.097
-17.7037
-17.3611
-237.501
-255.579
11.1586
11.7735
11.7023
11.6608
11.9864
11.8785
11.8322
12.2999
12.2465
12.4238
-28.3911
-28.0265
-28.1575
8.09349
8.57693
8.64649
-93.4788
-92.8185
-175.467
-235.573
-223.196
-216.232
-215.226
-200.957
-203.837
-197.333
-184.509
-220.779
-144.123
-141.323
-140.817
-143.705
-145.08
-143.4
-102.683
-105.974
-64.5307
-63.4811
-63.2895
-66.2533
-66.9813
-64.8918
-36.5319
-37.1048
-32.9898
-33.6021
-33.5338
-37.6354
-38.174
-39.8548
-39.6715
-37.8889
92.8859
81.0619
80.5414
78.5032
92.9933
90.84
91.6334
66.5352
64.8549
76.5591
74.4596
75.8692
103.495
98.537
105.927
113.762
116.352
117.516
100.441
-199.136
-198.886
53.6808
57.5565
57.3421
63.269
61.943
-120.482
-124.109
-137.528
-139.602
-144.71
-136.344
-133.276
-135.629
15.4551
13.9428
14.6838
-82.337
-85.7744
-103.422
-104.561
-105.319
-101.913
-101.144
-102.24
11.2255
11.2594
11.5706
11.6092
11.2685
11.2348
10.8096
12.5871
12.8346
13.8249
11.5196
11.4096
12.4155
12.043
11.1426
11.3094
11.2978
11.251
11.0996
-65.2792
-67.5166
-68.6127
-61.1656
-61.38
-63.3029
12.3752
12.5319
12.5491
12.352
12.4499
12.2843
-27.1995
-27.5415
-28.5113
-25.9966
-26.7378
-26.78
-31.598
-31.7678
-32.3629
-29.5122
-28.626
-31.5765
-3.98433
-3.98804
-4.58514
8.54702
6.80659
7.07871
7.95538
5.01706
6.70256
6.11196
-23.5385
-20.1116
-20.5728
-19.8995
-18.8598
137.239
135.201
145.864
10.1928
9.84107
-3.39598
-4.85905
-7.136
9.03313
9.11959
9.65756
8.68596
8.87474
8.80089
-13.8232
-14.9755
-16.7178
-138.883
-130.893
-224.033
-137.325
-135.851
-134.951
-157.571
-155.559
-155.005
-151
-152.363
-97.5346
-110.462
-59.5824
-60.4136
-57.5482
-58.5756
-71.1314
-71.2532
-70.1355
-21.0664
-20.9796
-20.7943
-21.2105
-21.1746
-21.3293
-162.277
-160.78
-162.645
-157.234
-158.95
-160.765
-116.004
-128.342
-129.856
-129.952
-115.319
-114.466
-115.569
-77.5746
-76.6031
-76.9941
-91.1181
-88.7358
-89.9944
-90.5642
-107.924
-109.01
-109.8
-96.9125
-96.2558
-97.4441
-55.0837
-55.4974
-55.7178
-53.6516
-54.5846
-54.2962
1.62885
0.128633
7.89505
7.36059
6.50467
6.87994
7.3531
-20.2231
-20.0776
-20.1309
-20.3539
-20.3107
-20.6399
-20.5431
-20.3858
-248.624
-250.929
-235.861
-271.048
-270.184
-246.809
-233.49
-263.281
-257.033
-285.114
-23.5416
-23.537
-23.894
-22.8169
-23.1739
-23.2711
-24.5862
-24.6463
-25.2809
-24.2475
-24.6223
-24.4373
130.085
129.415
130.855
128.048
125.186
128.831
130.603
11.0948
11.5615
11.6372
11.6943
11.7504
11.3513
11.7411
11.4813
11.5577
11.9704
11.9073
12.0861
12.402
12.4298
12.5432
12.52
12.5222
12.0593
-26.5156
-26.4799
-26.3966
-26.2755
-26.4751
-25.5976
-25.9423
-27.6541
-27.6292
-27.2564
8.34035
8.2985
8.49094
7.99759
8.12636
8.21766
-210.852
-213.601
-221.306
-216.333
-207.472
-207.202
-146.036
-139.153
-139.711
-138.7
-148.052
-149.692
-145.268
-146.69
-101.306
-107.294
-63.1952
-64.1104
-61.3478
-62.2815
-62.2595
-62.3765
-61.3572
-69.1196
-68.025
-67.5714
-64.9905
-34.8558
-35.9689
-34.0005
-34.1998
-34.7848
-41.244
-41.2332
-40.5429
-42.4792
-41.8866
-41.9917
-38.3788
-38.5153
-37.8651
-39.8697
-38.6071
-38.8093
-38.5788
-22.3661
-22.3499
-22.6136
-22.0158
-22.2756
91.2166
84.5447
82.5537
83.1341
88.9932
88.9633
86.6767
69.6996
68.1493
64.8076
66.3953
66.2448
73.1043
71.2286
110.435
113.269
110.952
123.53
102.078
105.445
107.374
-168.906
-167.283
-168.793
-164.837
-167.048
-169.549
-173.262
-171.938
-186.592
-189.646
-187.99
-193.405
-193.454
-189.545
-178.337
-185.333
-185.421
-181.389
37.539
36.389
41.888
41.7692
42.6631
40.8765
40.4715
29.7934
29.0394
33.7656
32.7483
56.0632
55.8802
57.3839
53.5147
54.7019
54.8026
61.8063
61.8139
63.2612
58.5283
60.3099
60.3846
60.5745
59.3949
46.4475
46.3346
47.4311
43.9735
45.1669
45.3116
51.0695
50.9418
52.2253
48.4343
49.4768
49.7677
-119.364
-124.894
14.7465
14.2284
14.689
13.852
13.9515
14.4857
15.5675
15.0292
15.4596
15.5461
12.9547
12.3454
12.4272
12.2956
12.3477
12.941
13.8661
13.4438
13.6967
12.7438
13.1395
13.6043
22.7942
21.8607
26.1781
25.07
17.4189
17.0002
19.8037
19.1394
-81.0734
-87.0039
-106.538
-105.741
-106.823
-98.6947
-99.9174
-100.648
11.2139
11.6156
11.5628
11.194
10.7545
11.2806
11.424
11.5457
11.5722
12.3392
11.8823
11.9056
12.7814
12.1942
12.4463
11.9432
12.0775
12.6292
11.8007
11.5328
11.236
11.2738
11.1721
10.9643
11.3504
-48.3153
-48.2201
-48.9478
-46.5434
-47.3989
-47.4636
-47.363
-48.0471
-43.6047
-43.5893
-43.1057
-45.0372
-51.8315
-51.6228
-52.684
-49.5167
-50.5427
-50.9369
12.7082
12.6442
12.5528
12.7936
12.7459
12.9218
12.5947
12.3863
12.0512
12.5009
12.4432
12.3238
12.7314
12.5069
12.5248
12.469
12.5226
12.9604
12.7074
12.7107
12.5893
13.0498
13.0974
-30.9706
-31.4183
-31.5246
-29.9414
-31.2589
-1.34338
-2.84392
8.08065
8.4334
7.99726
7.68473
7.91843
7.73198
8.43232
8.3447
-20.4029
-20.2383
20.4586
17.5723
13.268
15.1861
2.94811
2.58521
-1.67415
-16.0571
-10.5757
-19.3013
-24.495
-20.9552
29.9549
32.8255
26.3114
32.8893
31.6803
20.0608
29.0104
5.62718
3.62085
-0.213392
-31.4423
-18.2662
-35.8706
-40.2164
-29.9109
-40.6211
-38.1995
-33.7894
35.5655
41.1902
34.8881
43.8609
59.3711
37.1954
46.978
44.5524
29.1615
-8.14878
-46.0386
-23.5581
-56.8968
-52.8591
-45.1586
-56.8138
-48.1018
-43.0796
36.8281
41.9404
42.2172
45.9456
49.846
49.1241
66.7342
71.6998
69.8025
-106.715
-86.2965
-75.4457
-68.491
-55.877
-52.6139
33.1733
34.8342
40.5312
40.5731
42.4852
45.3383
52.1741
53.479
56.958
-106.542
-90.9211
-91.1254
-67.2366
-56.8375
-57.3196
27.5439
26.6465
32.6447
30.4992
30.2785
33.14
30.2067
29.1692
31.6408
-83.7452
-75.6339
-81.742
-56.7997
-51.2034
-54.662
22.3747
20.52
24.9046
22.5514
21.6444
23.3855
18.6721
17.5213
18.327
-56.5915
-54.5503
-62.015
-43.4495
-42.2044
-46.9075
18.2048
16.0055
19.3024
14.4466
13.9533
14.2898
-35.7875
-35.5471
-42.4508
-31.3635
-32.8342
-37.4321
14.8489
12.3942
15.0418
-21.9509
-23.8996
-26.997
-21.6209
-24.6222
-28.5404
12.3362
10.5939
11.7142
8.68632
5.11141
6.62002
4.34587
1.62967
2.04525
-3.27644
-12.7451
-12.0326
-8.5654
-12.9324
-18.4488
-16.0452
-18.0792
-21.0954
10.552
8.85597
9.60917
7.05603
4.56684
4.93824
3.6398
0.479791
-0.153755
-0.184758
-3.91592
-5.88529
-6.72016
-8.75627
-11.5578
-11.1842
-13.5707
-15.54
6.29743
4.63295
4.90048
2.99186
1.24227
0.552502
-0.484218
-3.29837
-4.16595
-3.25637
-6.62343
-7.87337
60.4148
63.6933
60.7622
-120.033
-134.924
-131.65
-106.791
-115.989
-106.448
34.3115
37.1651
37.5719
-104.276
-111.088
-105.643
-130.263
-126.434
-117.554
19.2663
20.3809
21.7068
-75.3593
-78.6761
-72.425
-103.64
-97.8495
-94.2098
14.5968
14.9662
15.7067
-48.0051
-48.9393
-45.1037
-70.3657
-64.3938
-64.1894
-29.4446
-29.3154
-27.6151
-42.5954
-39.9003
-40.01
2.69729
5.78413
8.16414
-8.28639
-5.48487
-6.13855
-11.1904
-11.5608
-12.5088
-25.9088
-24.2683
-24.5837
80.5958
51.7992
51.0915
6.59731
60.7345
107.133
25.1114
40.519
8.6032
-147.06
-80.4059
-81.4363
-86.4859
-97.2481
-27.53
-50.8592
-56.6842
47.7178
49.2949
45.5944
61.5812
53.7476
51.4427
53.8803
54.6812
62.7835
-174.209
-189.123
-186.801
-155.587
-166.987
-153.508
-92.2502
-87.1678
-109.394
-73.2262
-81.0556
-83.4672
-71.1832
-77.0252
-70.1671
36.2105
39.3679
38.089
42.8795
40.5064
36.6186
48.1998
44.4496
45.5628
46.6243
50.0067
49.1164
47.7685
47.8734
45.8883
60.8724
58.582
59.1449
-153.704
-153.392
-151.228
-84.7236
-88.5569
-104.317
-74.5774
-82.1066
-79.524
-84.3007
-83.7953
-75.8083
25.3884
27.6831
28.2014
25.6123
26.7045
24.218
32.9486
29.6214
27.219
24.9337
26.9317
28.1152
21.3944
22.4954
21.5106
30.1771
28.6812
27.801
-65.123
-72.4241
-80.2994
-63.4653
-67.9976
-63.4645
-76.179
-72.3045
-66.9926
18.7774
20.1262
21.0516
17.5371
18.9118
17.6363
22.1308
20.3849
18.1473
16.2662
16.8474
17.9293
14.1755
16.2182
15.2846
16.0454
15.6743
14.8626
-58.0898
-58.2296
-57.0089
-44.8268
-51.7677
-53.5067
-48.0443
-49.6609
-45.3383
-58.8055
-54.1808
-51.951
-34.6659
-34.7761
-33.1275
-42.7224
-42.0003
-41.9961
-30.4244
-33.5894
-33.7528
-33.9806
-33.9201
-30.6279
-41.2592
-37.4129
-37.162
-21.1782
-21.2544
-20.6019
-25.3531
-24.6332
-24.7149
2.2768
1.69149
3.86195
-2.60306
0.661641
1.3549
-2.70041
-2.17047
-6.18471
-7.58236
-6.97285
-3.71049
-9.24195
-7.79401
-5.5677
-12.9316
-9.09172
-8.62487
66.5254
65.4905
63.1998
72.7735
69.2337
74.2111
63.2296
66.733
69.2571
81.6911
83.7358
89.0305
90.863
96.2315
92.6153
90.6616
93.3253
89.1933
-155.439
-156.744
-155.122
-175.203
-174.299
-170.343
-130.302
-131.443
-120.338
-162.734
-154.603
-154.601
-145.693
-147.898
-153.276
32.6244
33.3122
31.703
43.9521
42.0567
41.7192
40.3195
40.181
43.3365
42.8652
42.6773
43.7318
29.449
30.3313
30.8628
44.7835
45.8692
46.0745
-118.174
-113.038
-107.364
-128.938
-128.317
-128.712
-146.201
-141.823
-143.757
-130.263
-131.001
-132.31
-115.43
-124.754
-120.016
15.9571
16.8618
16.4138
20.6531
19.8409
18.7967
23.0103
21.6762
23.1926
18.3845
17.8558
18.2587
14.3371
14.5139
15.0495
28.1671
27.7464
28.626
18.6336
19.109
19.8778
-87.3026
-80.879
-79.2105
-74.0828
-75.1282
-75.5018
-90.5928
-95.732
-89.5148
12.9542
12.2584
12.2797
12.5455
12.5299
12.8878
14.3623
14.0568
14.2282
12.2803
12.3881
13.1944
-44.1526
-44.082
-43.3935
-55.8622
-55.2499
-55.2085
-55.211
-50.3902
-50.9344
-54.3216
-53.7984
-55.5188
-43.9595
-45.4653
-45.3968
-72.0727
-71.8554
-72.9418
-57.3769
-59.3697
-60.1319
-60.6615
-62.4568
-56.9753
12.0663
12.076
12.2662
10.0671
10.4857
10.5287
12.8581
12.6425
12.5979
12.4174
12.5316
12.5695
-26.9773
-26.8991
-26.1164
-32.6058
-31.8136
-31.5158
-41.0577
-41.1488
-42.547
-34.2534
-37.663
-37.2353
-37.6367
-37.4482
-35.1845
3.47391
1.33815
4.38011
-1.40913
0.40684
3.06196
9.28337
9.19796
9.65448
-16.417
-16.6032
-13.1255
71.1535
71.7089
66.8682
87.9511
73.795
75.2337
75.4695
77.9715
88.3552
-214.257
-228.107
-211.956
13.54
14.3348
13.2458
16.4898
15.4052
14.0169
13.1921
13.5949
14.0325
12.8785
13.1891
12.8438
13.7381
13.4781
12.9545
-23.2464
-23.2143
-22.9004
-25.196
-24.7845
-24.8729
-18.3145
-21.0452
-20.5037
113.529
118.454
112.783
121.062
123.472
118.793
-155.185
-128.813
-112.52
-139.419
-130.49
-158.841
-112.179
-122.892
-127.612
13.2929
14.5179
13.9601
15.2303
14.5577
13.3426
16.1629
15.3426
15.7756
11.3329
11.3723
11.5953
9.90073
10.1437
10.1295
-26.0431
-26.0586
-25.6228
-33.0711
-31.1325
-31.336
-29.7397
-30.0508
-33.22
-27.1756
-29.078
-28.8617
9.37136
9.36749
9.64826
7.98819
8.20824
8.18694
-23.392
-24.0882
-25.6834
-21.1044
-22.578
-22.697
-23.0318
-22.6757
-21.1075
33.3281
50.4677
6.0295
64.3645
56.2906
36.7172
96.9117
64.8186
68.1094
-119.41
-125.729
-141.643
-42.1434
-75.5957
-84.1604
-18.0747
-69.4602
-40.2857
-189.332
-189.953
-173.252
-214.784
-182.556
-168.195
-215.316
-214.386
-227.536
-161.169
-174.389
-181.578
-37.2452
-35.2997
-35.8166
-38.3966
-38.6889
-38.734
-20.9117
-20.9825
-20.7207
-22.6461
-22.3811
-22.3787
-24.2915
-24.5458
-25.2445
-23.2036
-23.8637
-23.9586
-23.9862
-23.9194
-23.2262
77.012
81.9355
78.8187
70.2422
70.626
75.3268
99.0632
97.327
95.1798
107.743
108.169
110.507
91.0687
95.6214
97.6585
-165.876
-164.703
-162.579
-164.948
-168.92
-167.564
36.6629
37.6338
38.0391
35.1005
34.8036
35.7515
53.7888
54.9794
54.9933
51.4916
51.4368
52.6073
-121.118
-122.321
-123.328
-117.335
-119.783
-117.788
-123.84
-121.846
-119.262
-109.57
-111.666
-109.629
-115.727
-113.707
-111.558
-119.767
-118.828
-119.926
-140.017
-140.345
-142.155
-131.692
-135.564
-133.726
-139.229
-137.48
-133.355
-124.758
-127.774
-125.738
-131.877
-129.869
-126.677
-139.264
-137.937
-138.472
15.9941
16.305
16.9283
15.9224
15.4905
15.7733
23.1072
23.8624
24.5773
22.3514
21.7987
22.4722
-83.7973
-84.9912
-85.4231
-84.0823
-85.1112
-82.7629
-89.8175
-87.4776
-86.362
-75.0555
-75.8414
-73.8139
-80.4014
-78.0683
-77.3184
-81.7973
-81.297
-82.5838
-101.591
-103.368
-101.222
-107.565
-105.489
-103.661
-93.0542
-94.4842
-92.1722
-99.0153
-96.7829
-95.2748
12.4074
12.281
12.9197
11.87
12.0184
12.0627
11.65
11.6926
11.4352
12.8729
12.4776
12.4333
13.3134
12.4086
12.543
-48.9801
-48.236
-48.1559
-50.6401
-50.5981
-49.6771
-64.939
-66.0551
-66.1655
-66.7299
-67.1538
-65.0437
-71.6075
-69.3521
-68.8183
-58.9792
-59.1603
-57.2411
-63.0574
-61.1206
-60.8766
-63.2115
-63.0158
-63.9541
12.4863
12.6115
12.6649
11.8448
12.1041
11.9726
12.6648
12.6717
12.8421
12.4219
12.4808
12.4934
12.1423
12.2061
12.106
12.6298
12.5298
12.4372
12.5509
12.556
12.6053
12.6671
12.5997
12.6403
12.5185
12.5007
12.4055
12.6731
12.7485
12.6298
-28.5836
-27.7599
-27.8037
-28.1453
-28.1767
-28.5448
-25.7026
-26.1115
-26.084
-28.9323
-29.4127
-29.3681
-30.56
-30.3681
-29.4565
2.82958
1.65019
4.25212
-1.55848
0.826404
1.57997
7.41324
7.46127
7.74894
-18.8354
-19.6265
-18.6914
-20.4452
-20.1823
-20.0018
8.68801
9.94613
8.97752
12.1391
11.0273
9.32297
7.88232
8.36819
7.47965
9.98021
9.21151
8.85062
-5.80963
-8.50509
-7.17741
-9.82445
-8.26626
-6.95176
-12.2734
-10.4401
-11.74
11.2928
11.3513
10.6889
12.4285
11.9302
11.5924
12.5794
12.2316
12.7437
-4.98887
-6.58699
-8.31467
-1.79027
-3.41217
-2.45222
-3.97235
-3.89812
-2.3948
-13.6728
-12.4631
-11.9581
-17.0384
-14.6817
-15.2653
-14.972
-12.2221
-13.2571
32.2747
60.5784
-2.6352
72.27
64.1194
50.0601
109.313
72.2079
87.0542
-167.097
-174.535
-195.515
-76.279
-109.56
-111.212
-31.158
-103.954
-58.4068
51.9917
49.9136
49.9008
49.6861
49.8369
51.7998
45.9854
47.8784
47.7884
-149.695
-151.52
-149.888
24.7105
23.5371
22.4643
25.2023
24.4785
25.6536
22.4695
23.4808
24.4543
30.045
29.4594
30.918
26.8161
28.1447
28.9894
26.334
27.2879
25.9381
-60.3848
-59.3982
-59.1912
-22.5441
-21.9068
-21.9029
-21.903
-21.9542
-22.5743
-20.6344
-21.2859
-21.3124
0.372744
-1.0387
-1.50704
-0.686273
-1.01382
0.359515
-3.73717
-2.724
-2.13461
98.5047
98.0803
92.3859
114.889
104.814
104.783
98.4372
102.898
114.561
-160.215
-158.556
-157.131
-152.876
-153.833
-161.572
-139.614
-146.989
-146.702
-146.797
-147.438
-141.194
-137.505
-142.706
-140.957
-145.693
-144.302
-138.878
-155.846
-149.816
-151.487
36.6609
34.9505
34.3394
35.864
35.4825
37.1392
32.361
33.9262
34.5245
42.4491
42.3066
44.1267
38.8
40.5425
40.8367
39.7977
40.2112
38.4016
40.6227
41.6589
41.955
41.0793
41.3838
40.3359
43.4957
42.431
42.1772
29.3805
29.8715
28.9952
31.6077
30.7181
30.2079
31.5254
31.1643
32.0698
45.508
45.6876
44.586
47.8953
46.7843
46.6273
47.0547
46.9413
48.0445
-126.263
-127.249
-127.777
-124.676
-124.159
-123.735
-111.449
-112.473
-111.463
-114.624
-113.595
-112.824
21.5186
20.7777
21.6356
19.3586
20.0846
21.0408
18.1076
19.1348
18.4577
17.1979
17.5669
18.249
16.3594
16.9152
16.5831
17.5422
17.1863
16.4701
26.1054
26.9395
27.5723
25.7004
26.3621
25.5387
28.1272
27.2317
26.6596
17.6121
18.4
17.9469
19.3478
18.849
18.0453
20.1203
19.5436
20.0798
-88.8449
-89.4484
-88.2344
-91.8957
-90.6936
-90.2277
-77.2408
-76.9905
-74.4433
-76.529
-76.2724
-77.2322
-107.228
-108.184
-107.151
-110.357
-109.331
-108.616
-93.6576
-94.3698
-93.1666
-96.7851
-95.6287
-95.0846
-45.6973
-44.8487
-44.8852
-44.7196
-44.7751
-45.6567
-43.3641
-43.9814
-43.8208
-54.3752
-54.4602
-53.5631
-50.3012
-52.118
-51.9955
-51.929
-51.9196
-50.263
-55.38
-53.5892
-53.6075
-45.5085
-45.6054
-44.1224
-48.6812
-47.154
-47.0802
-47.0347
-47.0577
-48.6414
11.5667
11.8446
11.8304
12.1254
11.8892
11.5967
12.2986
12.1197
12.2415
10.4733
10.4673
10.0306
11.2655
10.8863
10.9359
10.8948
10.8762
11.2404
3.24435
3.19042
4.34135
0.763741
1.99469
2.22904
8.23179
8.742
8.88339
8.55082
8.63351
8.12515
9.58363
9.10974
9.03447
5.42428
6.32432
5.92329
-222.257
-240.603
-244.66
-23.9046
-23.5581
-23.5838
-24.5816
-24.5467
-24.2393
124.721
122.176
116.624
116.453
123.645
129.71
119.892
125.628
126.685
10.8889
11.1335
11.0942
11.2643
11.2081
10.9255
10.1082
10.1088
9.86087
10.6398
10.3639
10.3544
10.376
10.3873
10.6341
8.85755
9.09927
9.12188
8.98942
8.99986