/*--------------------------------*- C++ -*----------------------------------*\
| =========                 |                                                 |
| \\      /  F ield         | OpenFOAM: The Open Source CFD Toolbox           |
|  \\    /   O peration     | Version:  5.x                                   |
|   \\  /    A nd           | Web:      www.OpenFOAM.org                      |
|    \\/     M anipulation  |                                                 |
\*---------------------------------------------------------------------------*/
FoamFile
{
    version     2.0;
    format      ascii;
    class       volScalarField;
    location    "2287";
    object      p_rgh;
}
// * * * * * * * * * * * * * * * * * * * * * * * * * * * * * * * * * * * * * //

dimensions      [0 2 -2 0 0 0 0];

internalField   nonuniform List<scalar> 
6584
(
11.7705
12.0306
12.25
12.4478
12.5443
12.4562
12.0702
11.2248
9.75883
7.38206
4.15618
0.124087
-4.35846
-8.72134
-12.4765
-15.3977
-17.4411
-18.7597
-19.5439
-19.9459
-20.1078
-20.1225
-20.0792
-20.0017
11.7146
12.0301
12.273
12.5131
12.6621
12.6437
12.3477
11.6009
10.2366
7.76728
4.47154
0.261981
-4.46721
-9.02641
-12.8497
-15.879
-17.8414
-19.0627
-19.7593
-20.0839
-20.189
-20.1582
-20.0878
-19.9783
11.5971
12.012
12.3339
12.6921
12.995
13.1867
13.1707
12.7891
11.8804
10.0164
6.81319
2.34753
-3.15863
-8.67999
-13.2274
-17.4041
-19.1936
-20.0497
-20.4537
-20.5311
-20.4533
-20.2824
-20.1209
-19.929
11.4301
11.971
12.4008
12.919
13.4347
13.9218
14.2978
14.4449
14.0056
12.3536
9.43842
4.12878
-3.1735
-10.4099
-15.6674
-18.6835
-20.9937
-21.4915
-21.4366
-21.1379
-20.7983
-20.4281
-20.138
-19.8262
11.197
11.8833
12.4368
13.14
13.9073
14.7586
15.6763
16.5203
16.368
16.0926
13.8589
7.1425
-3.60868
-13.9241
-20.2344
-22.7006
-23.2688
-23.2422
-22.6781
-21.8388
-21.1636
-20.5446
-20.0992
-19.6345
10.8813
11.7201
12.3974
13.2888
14.3095
15.5489
16.9817
17.7849
20.0263
21.7851
21.0566
15.8087
-1.79402
-19.851
-27.9737
-28.4587
-26.9957
-25.2007
-23.9204
-22.4925
-21.4585
-20.5695
-19.9585
-19.3186
10.4724
11.4541
12.2367
13.2911
14.5323
16.1128
18.1357
19.6685
23.2469
28.0722
32.3551
32.9617
-1.16119
-40.8732
-40.2876
-35.8044
-30.9323
-27.0426
-24.9418
-22.9581
-21.581
-20.4337
-19.6687
-18.8476
9.96625
11.0646
11.9149
13.0718
14.4367
16.1889
18.4634
20.6186
25.0639
31.8047
41.8123
63.3513
-89.4025
-56.645
-42.4339
-34.2898
-28.3166
-25.4807
-23.0764
-21.4279
-20.074
-19.1891
-18.201
9.36814
10.5441
11.4143
12.5978
13.9653
15.698
17.8866
20.2838
24.4232
30.3812
39.2487
53.3558
-109.158
-65.2501
-45.3796
-35.7538
-28.5674
-25.2816
-22.7039
-20.9173
-19.446
-18.4955
-17.3744
8.69364
9.90283
10.746
11.8845
13.1463
14.6947
16.5377
18.7636
21.7713
25.3209
29.4607
30.713
-91.4241
-61.1466
-43.246
-34.6064
-27.5306
-24.2378
-21.776
-20.017
-18.5377
-17.5859
-16.3807
7.96543
9.16533
9.94451
10.9846
12.0703
13.3403
14.72
16.5389
18.3067
19.7523
20.7449
17.7677
-64.4024
-49.494
-37.4015
-31.2291
-25.329
-22.4511
-20.3467
-18.7595
-17.3778
-16.4852
-15.2509
7.20949
8.36456
9.05641
9.96807
10.8499
11.8173
12.7445
14.0931
14.8985
15.0995
14.967
13.0819
-40.5738
-36.2455
-30.0258
-26.5827
-22.3603
-20.157
-18.5511
-17.2355
-16.0226
-15.2396
-14.0284
6.45168
7.53579
8.13057
8.90417
9.58585
10.2684
10.816
11.7156
11.8817
11.359
10.6287
9.00937
-24.6594
-24.7669
-22.7737
-21.6026
-19.079
-17.6345
-16.5537
-15.5596
-14.5555
-13.9054
-12.7606
5.71409
6.71095
7.20985
7.85124
8.35907
8.80709
9.09521
9.05614
9.42783
8.39512
7.24574
3.85135
-8.66569
-12.7983
-15.741
-16.4829
-16.9289
-15.843
-15.1146
-14.5069
-13.8352
-13.0514
-12.5401
-11.4945
5.01383
5.9154
6.32625
6.85007
7.21665
7.49281
7.58891
7.45666
7.46712
6.31153
4.93997
2.02633
-1.75648
-5.16041
-9.39666
-11.7184
-12.4635
-12.9368
-12.7991
-12.5531
-12.1595
-11.5744
-11.1976
-10.2643
4.36259
5.16714
5.50061
5.92364
6.17714
6.32495
6.2735
5.98205
5.86629
4.88483
3.41805
2.10188
0.457591
-2.50352
-5.68065
-8.34409
-9.88701
-10.4595
-10.7329
-10.7495
-10.5909
-10.1857
-9.92702
-9.11535
3.7674
4.47777
4.74575
5.08569
5.25441
5.31527
5.18849
4.83684
4.22446
3.95582
2.81347
1.61009
1.02879
-0.813223
-3.90359
-6.01385
-7.5426
-8.3876
-8.95074
-9.14809
-9.15974
-8.89724
-8.73942
-8.05038
3.23125
3.85334
4.06765
4.3412
4.45028
4.45959
4.30611
3.98071
3.45421
2.74558
2.38499
1.4489
0.553591
-1.56114
-3.01389
-4.76058
-5.97473
-6.87883
-7.49671
-7.78053
-7.89986
-7.74255
-7.66046
-7.08306
2.75403
3.2952
3.46611
3.68672
3.75379
3.73158
3.56768
3.26616
2.80631
2.19462
1.42413
0.636327
-0.704601
-1.75805
-2.00354
-3.98966
-4.86404
-5.71948
-6.30476
-6.6254
-6.8056
-6.72377
-6.69626
-6.22069
2.33339
2.80155
2.9376
3.11588
3.15381
3.11336
2.95094
2.67685
2.28059
1.77544
1.19783
0.579514
0.253456
-0.951074
-1.50993
-3.14484
-3.9367
-4.75982
-5.31039
-5.64737
-5.85946
-5.83201
-5.84331
-5.45877
1.96569
2.36878
2.47702
2.62139
2.63947
2.58957
2.43521
2.18838
1.84465
1.40416
0.918891
0.291648
-0.074829
-1.05067
-1.40986
-2.61404
-3.27346
-4.00014
-4.49532
-4.82552
-5.04753
-5.0576
-5.09488
-4.78985
1.64651
1.99215
2.0782
2.19528
2.19999
2.14602
2.00257
1.78041
1.48021
1.08835
0.669821
0.0932656
-0.291095
-1.05656
-1.33585
-2.23885
-2.78072
-3.39583
-3.82817
-4.13605
-4.35337
-4.38817
-4.44161
-4.20501
1.37112
1.66642
1.73481
1.82984
1.82573
1.77115
1.64017
1.44134
1.18062
0.836522
0.480175
-0.0147249
-0.354998
-0.971928
-1.24797
-1.93361
-2.38665
-2.90176
-3.27539
-3.55452
-3.75921
-3.80979
-3.87224
-3.69386
1.13476
1.38627
1.44063
1.51782
1.50822
1.4553
1.33746
1.16102
0.93538
0.635798
0.33084
-0.0911281
-0.394786
-0.894131
-1.16447
-1.68439
-2.06436
-2.49212
-2.81256
-3.0608
-3.24892
-3.30913
-3.37565
-3.24625
0.93287
1.14644
1.18969
1.25249
1.23979
1.19
1.08523
0.929941
0.735052
0.475984
0.213898
-0.143677
-0.41462
-0.818951
-1.0764
-1.47567
-1.79417
-2.14758
-2.4208
-2.63849
-2.80827
-2.8736
-2.94077
-2.85208
0.761128
0.942038
0.976482
1.02767
1.0136
0.96792
0.875793
0.740334
0.572707
0.350414
0.125418
-0.175902
-0.415145
-0.742336
-0.98057
-1.29358
-1.56028
-1.85222
-2.08454
-2.27369
-2.42488
-2.49209
-2.55748
-2.50206
0.615552
0.768453
0.795962
0.837817
0.823606
0.782615
0.702553
0.585635
0.44241
0.253299
0.0611888
-0.191014
-0.401906
-0.669171
-0.88286
-1.13126
-1.35219
-1.59341
-1.79103
-1.95498
-2.08886
-2.15599
-2.21816
-2.18906
0.49256
0.621515
0.643571
0.677941
0.664438
0.628443
0.559788
0.460139
0.33895
0.180006
0.0176961
-0.190327
-0.371626
-0.591046
-0.77999
-0.982091
-1.1647
-1.36388
-1.53134
-1.6725
-1.78995
-1.85526
-1.91323
-1.90485
0.38895
0.497439
0.515159
0.543539
0.531327
0.500461
0.442498
0.358833
0.257678
0.12601
-0.0092973
-0.179011
-0.331632
-0.510184
-0.673027
-0.840241
-0.991349
-1.15621
-1.29803
-1.41916
-1.52133
-1.58342
-1.63637
-1.64318
0.301889
0.392861
0.407106
0.430639
0.420031
0.394225
0.346226
0.277359
0.194465
0.0874496
-0.0229944
-0.159004
-0.284205
-0.427368
-0.563791
-0.702784
-0.827819
-0.964559
-1.08492
-1.18878
-1.27704
-1.33471
-1.38194
-1.39896
0.228918
0.304746
0.316084
0.335601
0.326769
0.305815
0.2671
0.211818
0.145642
0.0610444
-0.0262146
-0.131889
-0.230505
-0.342023
-0.452559
-0.567698
-0.671466
-0.78534
-0.887822
-0.976814
-1.05223
-1.10438
-1.14528
-1.16793
0.168016
0.230488
0.23924
0.255242
0.248065
0.231702
0.201423
0.158587
0.10782
0.0437785
-0.0214719
-0.0988788
-0.170581
-0.251556
-0.336048
-0.429986
-0.517407
-0.614195
-0.703036
-0.779837
-0.843597
-0.889046
-0.922823
-0.946803
0.117206
0.167522
0.173793
0.186627
0.180881
0.168725
0.146137
0.114622
0.0779431
0.0325678
-0.0121422
-0.0634776
-0.10883
-0.160491
-0.219694
-0.294837
-0.369744
-0.453227
-0.530442
-0.595738
-0.647683
-0.684765
-0.710606
-0.732113
0.0761008
0.114424
0.117873
0.127021
0.122166
0.113346
0.097473
0.0760829
0.0522652
0.0243227
0.000312341
-0.0228724
-0.0342259
-0.0449424
-0.0689876
-0.125332
-0.19922
-0.286035
-0.365091
-0.426163
-0.468063
-0.494309
-0.509575
-0.523698
0.0404333
0.0665036
0.0676268
0.0734838
0.0701556
0.064981
0.055622
0.0434188
0.0305288
0.0162317
0.00643306
-5.94126e-05
0.00506044
0.0125286
0.00441092
-0.0374022
-0.0970012
-0.162952
-0.219222
-0.259381
-0.284102
-0.298322
-0.305496
-0.313062
0.0210962
0.0314761
0.0270182
0.0246792
0.0180947
0.0124143
0.00660223
0.00126012
-0.00189234
-0.00038258
0.0156883
0.0611365
0.1737
0.351154
0.484585
0.460265
0.290199
0.0749079
-0.089635
-0.170085
-0.183053
-0.163008
-0.136084
-0.117393
56.304
-118.505
-97.1618
33.1684
-99.2628
-117.466
18.7546
-69.7659
-95.9013
13.4791
-43.5011
-66.0447
9.63595
-25.9875
-40.81
4.23975
-6.43428
-12.1225
-13.7708
-24.3844
60.9712
6.14856
-88.5716
-38.7082
41.0306
53.9786
59.122
-173.184
-142.55
-109.807
-71.7569
-62.2365
32.0372
33.3986
51.3958
44.3361
44.6422
60.4955
-131.355
-151.121
-94.41
-69.1986
-72.5
22.6236
19.6086
31.1355
24.4155
19.3715
28.3029
-93.8303
-111.991
-67.835
-56.2775
-66.553
16.2045
13.8859
18.6121
15.4716
12.6447
14.1665
-56.0219
-72.4619
-43.0369
-40.8017
-52.3634
-32.6384
-41.7742
-26.3284
-27.5529
-37.155
-19.5784
-24.5086
2.05534
-1.88962
-6.14775
1.52181
-6.00858
-12.4124
62.9543
80.3806
63.3069
83.4107
63.7632
86.8612
86.0629
-152.578
-168.28
-117.152
-161.943
-149.001
29.9053
42.6279
41.3772
43.0148
28.8603
61.2356
43.9614
-112.818
-130.089
-108.475
-128.866
-112.08
-148.287
-130.122
-111.189
14.5051
18.5158
22.7332
18.0421
13.7419
28.2327
18.2296
-73.5818
-92.5126
-81.2687
-91.9912
-73.3097
-111.094
-93.2861
-85.0794
12.0754
11.9356
13.7474
12.1526
-42.4429
-55.0155
-52.2251
-55.03
-42.8116
-72.1728
-55.9636
-55.4794
11.3355
9.18976
11.9345
11.5
-25.2697
-31.5803
-41.4091
-32.6692
-33.6264
4.64335
0.313906
8.81633
5.1398
-11.7591
-18.7807
64.7039
82.6623
82.1699
-236.823
-199.189
11.6404
9.8437
13.4413
11.7971
11.4484
12.0842
-22.4244
-24.7335
-15.4819
-17.137
-24.7033
108.478
117.088
-132.728
-162.72
-114.553
12.1123
12.5344
14.9042
10.6815
11.2763
11.0119
9.37907
11.3837
11.8982
-25.1324
-28.116
-31.5291
-31.5881
-25.3331
9.1314
7.44055
-24.5534
-20.5322
-19.7469
3.1198
48.058
83.1628
-131.128
-57.2886
-3.35514
-234.831
-169.123
-222.871
-186.683
-225.488
-166.314
-141.463
-141.671
-102.579
-103.781
-63.2281
-63.9784
-36.0553
-32.4677
-35.9617
-20.1489
-22.1262
-24.7384
-22.4535
-22.3609
94.7864
74.9955
78.3397
93.5608
76.5649
72.1258
95.9629
111.441
91.5993
115.75
97.2174
-161.569
-164.081
35.9812
35.2118
52.8425
51.7069
-120.616
-121.88
-121.089
-114.06
-119.67
-106.251
-112.062
-119.874
-140.197
-128.744
-133.363
-121.552
-127.008
-139.421
15.4686
15.4053
22.6759
22.256
-82.5673
-83.6792
-83.2264
-80.4505
-87.195
-71.5963
-78.1777
-82.0631
-103.104
-98.1504
-104.237
-89.462
-96.0051
-101.916
10.7109
11.9308
10.7698
10.4017
11.3795
10.8199
11.932
12.6818
10.4978
12.5164
-47.9818
-48.7367
-63.9965
-63.3274
-69.5202
-55.7495
-61.3719
-63.1058
12.0231
11.2409
11.8642
11.8572
11.4627
11.9606
11.8946
11.8096
11.9494
12.0559
-27.7051
-27.9729
-25.1213
-31.9761
-28.2741
-28.6343
-28.1709
3.61145
-0.116456
-5.49275
7.18885
4.78171
-26.521
-17.4778
-19.8006
-283.597
7.8741
5.51766
9.26236
6.94304
5.75698
8.53328
-3.98179
-7.3122
-11.7801
117.641
9.09136
11.2755
11.3262
10.3087
9.27455
-7.23653
-1.25724
-3.10558
9.23191
8.36332
-12.32
-16.3168
-8.93511
6.91154
59.5339
105.932
-184.231
-88.1702
-26.8509
51.0383
50.0732
44.5979
-135.39
-156.566
-147.161
22.6021
25.1896
21.8222
30.2546
26.0901
23.886
-97.6516
-108.35
-59.2597
-69.0449
-20.556
-21.0549
-21.659
-22.2021
-20.1358
-0.177666
-0.347055
-3.08151
92.1411
113.082
107.276
-156.748
-163.068
-158.682
-158.882
-139.95
-137.129
-134.856
-139.009
-156.859
35.0553
36.1991
31.454
42.8438
37.6753
36.8675
39.8797
39.2129
42.443
27.7174
30.2802
31.6123
43.5783
46.939
47.2385
-116.314
-127.83
-126.299
-122.557
-125.314
-109.53
-112.351
-115.475
21.222
18.6848
16.4163
16.704
15.2558
15.9663
25.6008
24.1021
26.809
16.3952
17.7061
19.9004
-76.4852
-88.7212
-88.2239
-86.5964
-90.0483
-73.0555
-75.3096
-76.3188
-107.647
-105.272
-108.154
-91.4652
-94.8257
-97.0531
-44.7653
-44.8834
-42.5259
-54.9216
-52.7761
-52.5138
-49.196
-48.8825
-53.9443
-42.7205
-47.2516
-47.5526
10.62
10.9257
11.9046
9.41587
10.711
10.3099
3.95567
0.914413
7.41081
7.46081
8.93875
6.70477
4.8642
-19.7458
-20.3399
-235.63
-254.656
-228.742
-22.3664
-23.4248
-23.5088
-22.3938
-23.7852
-23.7623
118.454
137.163
121.151
139.56
119.297
10.7204
11.2515
11.861
10.6875
10.3595
10.6218
11.4673
9.54974
10.3173
10.1029
11.7274
11.8661
-26.1693
-26.6482
8.36339
8.42937
9.36944
8.2105
7.87415
-217.884
-195.965
-196.901
-190.995
-194.792
-214.042
-136.823
-145.549
-98.9477
-107.375
-60.2732
-67.9026
-34.2581
-34.4615
-36.4343
-32.3236
-33.9835
-33.9059
-39.7013
-41.9929
-37.0815
-38.8695
-20.9588
-21.0678
-20.4748
-22.3611
-21.3931
-21.2475
-21.5339
-22.2461
84.5911
82.1756
76.8383
89.878
84.0682
86.7366
68.5937
63.9831
75.1107
70.1939
103.017
95.3911
91.8835
107.726
104.754
-170.604
-165.231
-159.174
-173.398
-183.533
-189.202
-175.35
-180.544
-165.843
-177.875
-172.81
35.1034
38.1357
39.0078
37.9537
34.8282
42.1993
39.0594
29.8141
27.4294
33.9843
30.9435
32.3198
31.2858
34.1979
56.7739
52.8441
62.4843
58.2615
46.8083
43.4087
51.5845
47.8938
48.2652
48.0527
51.6555
-117.608
-125.204
-118.014
-121.025
-124.833
-116.65
-113.737
-116.575
14.1075
14.9366
16.5922
14.3112
13.5528
15.1721
14.5629
12.3378
12.2057
13.3615
12.5779
20.8696
23.333
25.0681
22.9037
20.1921
26.4672
23.6219
17.0194
15.7895
19.6492
17.5725
20.2019
18.2684
20.221
-78.9194
-87.3196
-81.7385
-85.2284
-86.8987
-77.8315
-76.6272
-80.4326
-100.87
-103.878
-106.587
-98.3234
-96.2635
-99.449
10.7835
10.8198
11.3075
11.3219
11.2091
11.2605
10.3308
11.3056
11.5685
11.5515
11.3965
11.481
11.1041
11.6705
11.4616
12.2299
11.743
10.5937
11.2736
11.2107
11.3985
11.3156
10.6388
-48.3376
-45.8118
-45.5637
-45.875
-47.9853
-42.7323
-45.0869
-48.5621
-51.5709
-51.9451
-48.5219
11.8264
12.1964
12.7388
11.7346
12.0732
11.7326
12.1579
12.1298
12.6283
12.1808
-30.4299
-30.3004
-31.759
-28.206
-29.8042
-29.9029
-29.891
-30.3035
-0.0739271
-2.72439
7.83615
7.08639
-19.4876
-19.5579
-82.4281
-57.1759
-41.3839
-18.2647
-18.275
-13.7319
-1.82603
66.3997
108.418
-249.645
-126.395
-43.9093
-62.4895
-62.2793
-123.044
57.7227
52.1292
53.2997
-132.618
-133.611
-132.404
-95.2573
-110.715
16.2573
14.9358
13.3267
-72.6664
-71.527
-71.3295
-41.8837
-39.6474
-39.5706
70.591
65.2453
60.0856
63.7898
68.2507
66.4986
-184.466
-179.732
-168.31
57.5255
58.1356
62.3275
-113.915
-131.362
-130.403
-128.939
-111.211
-112.271
-113.171
-127.295
-129.653
-133.907
15.8589
18.3162
16.4659
12.6076
12.9394
14.4621
-74.8377
-74.674
-73.6332
-91.2089
-90.7126
-90.1339
-91.3778
-109.939
-109.063
-110.153
-92.6516
-93.9153
-94.6159
13.1139
12.1035
12.5237
-68.7678
-68.6763
-71.0313
-37.3823
-37.4647
-41.4206
4.20594
2.86863
4.75269
6.92075
6.96051
6.7098
5.54518
-19.5083
-17.1191
-16.442
-237.011
-255.133
10.653
11.3114
11.2346
11.143
11.4816
11.429
11.3763
11.8437
11.7911
11.9146
-27.9316
-27.5733
-27.6514
7.7611
8.23898
8.13786
-92.5581
-92.2512
-174.91
-235.065
-222.646
-215.618
-214.611
-200.333
-203.22
-196.598
-183.775
-220.221
-143.222
-140.429
-139.86
-142.737
-144.167
-142.487
-101.697
-104.988
-63.6156
-62.5646
-62.3194
-65.2955
-66.0854
-63.9891
-35.9152
-36.4819
-32.3727
-32.9815
-32.9679
-37.0054
-37.5386
-38.8901
-38.8814
-37.095
92.3653
80.4919
79.9175
77.8757
92.369
90.2164
91.065
65.9086
64.2226
75.9319
73.844
75.2909
102.785
97.7974
105.359
113.257
115.91
117.073
99.9373
-198.5
-198.253
52.8897
56.7649
56.3737
62.6315
61.3012
-119.519
-123.155
-136.361
-138.435
-143.686
-135.326
-132.11
-134.463
14.4874
13.1503
13.8844
-81.3851
-84.8132
-102.331
-103.469
-104.282
-100.875
-100.053
-101.149
10.7032
10.6866
10.9437
10.9834
10.6491
10.6192
10.2509
11.7937
12.0364
12.8857
10.8968
10.7919
11.7761
11.3992
10.5676
10.6817
10.6741
10.6379
10.4899
-64.1141
-66.352
-67.5953
-60.1416
-60.2137
-62.1367
11.8146
11.8241
11.8403
11.6429
11.7423
11.7246
-26.6375
-26.8355
-27.7763
-25.2907
-26.0318
-26.2168
-31.039
-31.1483
-31.7461
-29.0176
-28.1661
-31.0554
-4.10736
-4.14608
-4.74823
8.36362
6.29865
6.73797
7.62181
4.6799
6.36178
5.63216
-23.391
-19.9536
-20.2423
-19.5653
-18.3554
136.966
134.989
145.58
9.92297
9.57462
-3.65554
-5.09301
-7.20134
8.74743
8.8794
9.42078
8.45302
8.63717
8.51351
-13.826
-14.7329
-16.4562
-138.393
-130.589
-223.719
-136.421
-134.941
-133.987
-156.761
-154.711
-154.147
-150.155
-151.52
-96.5525
-109.479
-58.7381
-59.5635
-56.71
-57.7359
-70.1676
-70.3442
-69.2314
-20.7886
-20.7538
-20.576
-20.9782
-20.9425
-21.05
-161.486
-159.932
-161.802
-156.377
-158.097
-159.966
-115.031
-127.367
-128.927
-129.028
-114.292
-113.382
-114.487
-76.6513
-75.6751
-76.0208
-90.1457
-87.6544
-88.9113
-89.538
-106.834
-107.921
-108.765
-95.8781
-95.1668
-96.3543
-54.2741
-54.6416
-54.8736
-52.7984
-53.7281
-53.4903
1.47098
-0.0260836
7.71436
7.18426
6.22044
6.65101
7.12104
-20.0468
-19.9018
-19.8569
-20.1407
-20.0876
-20.4277
-20.3342
-20.1152
-248.186
-250.488
-235.363
-270.654
-269.864
-246.428
-233.112
-262.896
-256.653
-284.78
-23.2128
-23.1502
-23.5027
-22.4291
-22.7882
-22.9473
-24.2323
-24.2548
-24.8922
-23.8507
-24.2229
-24.0844
129.757
129.026
130.468
127.659
124.788
128.452
130.224
10.5936
11.0443
11.1657
11.2253
11.4601
11.0661
11.3427
11.0836
11.2153
11.5314
11.4638
11.5856
11.9929
12.0243
12.1366
12.0154
12.0786
11.6219
-26.0704
-26.0262
-25.8885
-25.8691
-26.0679
-25.2044
-25.5422
-27.1507
-27.1828
-26.8144
8.06325
8.07617
8.26325
7.78396
7.90904
7.94408
-210.235
-212.987
-220.754
-215.757
-206.855
-206.581
-145.172
-138.198
-138.816
-137.801
-147.195
-148.841
-144.401
-145.828
-100.321
-106.309
-62.3288
-63.2411
-60.492
-61.4201
-61.2904
-61.4627
-60.4475
-68.22
-67.1286
-66.6158
-64.1243
-34.239
-35.356
-33.4271
-33.575
-34.1587
-40.5104
-40.5553
-39.8713
-41.7864
-41.2011
-41.2529
-37.6422
-37.8329
-37.1835
-39.2015
-37.9346
-38.0759
-37.944
-22.0333
-21.96
-22.2236
-21.7436
-21.996
90.6961
83.9285
81.9344
82.5711
88.4346
88.3431
86.0601
69.0844
67.5285
64.1219
65.7141
65.5058
72.4946
70.6175
109.977
112.82
110.445
123.127
101.572
104.978
106.908
-168.113
-166.434
-167.943
-163.994
-166.202
-168.766
-172.517
-171.194
-185.856
-188.972
-187.309
-192.723
-192.778
-188.808
-177.611
-184.645
-184.731
-180.66
36.8174
35.6659
41.139
41.0649
41.9584
40.1786
39.7384
29.0605
28.3058
33.0378
32.0188
55.3352
55.2117
56.7151
52.8402
54.0311
54.0741
61.0614
61.1222
62.5716
57.852
59.6203
59.6422
59.9305
58.7547
45.6983
45.638
46.7378
43.2707
44.467
44.5599
50.3321
50.2591
51.5467
47.7443
48.7902
49.0271
-118.399
-123.943
13.9954
13.5282
13.9865
13.1587
13.2546
13.7367
14.8449
14.3267
14.763
14.8141
12.2272
11.6755
11.7533
11.6281
11.6804
12.2142
13.1263
12.7581
13.0072
12.0658
12.4575
12.8677
22.0589
21.1258
25.4425
24.3342
16.6938
16.2771
19.0718
18.4088
-80.1231
-86.0399
-105.501
-104.65
-105.732
-97.6042
-98.8264
-99.611
10.6882
10.9951
10.9376
10.6223
10.2
10.6668
10.8085
10.9127
10.9443
11.6
11.2003
11.2195
12.0397
11.5052
11.771
11.2535
11.386
11.8848
11.1587
10.8948
10.6074
10.6437
10.5923
10.3552
10.7345
-47.5134
-47.3644
-48.0928
-45.6922
-46.5451
-46.6656
-46.6181
-47.2954
-42.8708
-42.8924
-42.4078
-44.308
-51.0431
-50.7763
-51.8349
-48.6655
-49.6954
-50.1508
12.3741
12.2547
12.1671
12.3954
12.3519
12.5819
12.2642
11.9952
11.6549
12.1169
12.0573
12
12.4374
12.1188
12.1412
12.0691
12.1288
12.6062
12.3073
12.3096
12.2071
12.6615
12.7458
-30.3489
-30.7962
-30.9569
-29.4424
-30.7382
-1.49619
-2.99716
7.80156
8.214
7.78454
7.45084
7.68648
7.44773
8.24551
8.16008
-20.2387
-20.0675
17.2538
15.5125
10.9813
13.583
2.71418
2.12383
-1.45166
-14.4524
-9.21001
-17.2305
-21.2738
-17.7453
24.8832
28.892
22.1707
29.4145
29.59
17.9979
27.3849
5.5061
3.38664
-0.10589
-29.8099
-16.6513
-33.7768
-36.7382
-26.4514
-36.687
-33.1276
-28.724
30.4845
37.2454
30.9502
40.3707
57.3578
35.0939
45.2048
43.4768
28.1084
-8.02902
-45.1992
-22.7302
-54.8942
-50.2873
-42.5938
-52.8697
-43.0213
-38.0031
31.7436
37.9928
38.2709
42.4528
46.8077
46.0867
64.946
70.1385
68.2423
-104.699
-83.6002
-72.7509
-64.546
-50.7958
-47.5325
28.0896
30.8877
36.5838
37.0804
39.4467
42.2997
50.3834
51.915
55.3941
-104.524
-88.224
-88.4282
-63.2932
-51.7585
-52.2393
22.4625
22.7026
28.6987
27.0082
27.2417
30.1025
28.4166
27.6055
30.077
-81.7287
-72.9388
-79.0458
-52.8609
-46.1288
-49.5848
17.2964
16.5799
20.9617
19.0639
18.6111
20.3512
16.8851
15.9605
16.7657
-54.5799
-51.8609
-59.3232
-39.5185
-37.137
-41.8362
13.1295
12.069
15.3632
12.6641
12.397
12.7329
-33.7848
-32.8674
-39.767
-27.4437
-27.7761
-32.369
9.7759
8.46081
11.1059
-19.9627
-21.3462
-24.4396
-17.7159
-19.5766
-23.488
7.27538
6.45332
7.56055
5.24101
3.03566
4.52833
2.6105
0.577982
0.990365
-3.24667
-12.3694
-11.6151
-6.51315
-9.5056
-15.0034
-11.9309
-13.0531
-16.0581
5.51025
4.72826
5.47787
3.84163
2.49418
2.86341
2.02393
0.235466
-0.400687
0.028598
-2.32916
-4.29506
-4.67615
-5.5688
-8.13535
-7.08119
-8.55242
-10.5199
3.08445
2.33327
2.60019
1.60575
0.769993
0.308467
-0.042346
-1.94238
-2.5801
-0.985935
-3.43749
-4.68778
58.851
62.1297
58.9719
-118.243
-133.418
-130.143
-105.232
-114.429
-104.661
32.7475
35.601
35.7814
-102.484
-109.579
-104.134
-128.756
-124.926
-115.763
17.7046
18.8187
19.9183
-73.57
-77.169
-70.9184
-102.131
-96.3407
-92.4187
13.0392
13.4081
13.9224
-46.2218
-47.4373
-43.5466
-68.8594
-62.8885
-62.4019
-27.6714
-27.7669
-26.0681
-41.0393
-38.3453
-38.23
1.63597
4.68666
6.38839
-8.35015
-5.68956
-6.34176
-11.0372
-11.3878
-12.514
-24.3636
-22.7252
-22.816
79.5488
50.7153
49.3148
6.55099
60.6125
106.994
24.294
39.68
8.4767
-146.95
-80.3717
-79.6544
-84.9323
-95.6919
-26.4682
-49.7869
-54.9118
44.6792
46.2564
42.1015
59.5645
51.1633
48.8582
51.2975
52.0974
60.7672
-173.271
-188.329
-186.006
-154.769
-166.168
-152.574
-89.5531
-84.4712
-107.378
-69.7353
-78.0185
-80.4299
-68.1477
-73.9888
-66.6766
33.1726
36.3297
34.5965
40.8622
37.9221
34.0346
45.6153
41.8651
43.5454
45.0601
48.4426
47.3257
46.7137
46.7055
44.7204
59.705
57.4146
58.0909
-152.792
-152.484
-150.262
-82.027
-85.8599
-102.299
-71.0871
-79.0698
-76.4875
-81.2634
-80.7581
-72.3175
22.3532
24.647
24.7112
23.5965
24.1222
21.6366
30.365
27.0384
25.2029
23.3705
25.3682
26.3254
20.3421
21.3287
20.3441
29.0097
27.5138
26.7475
-62.4304
-69.7295
-78.2833
-59.9784
-64.9638
-60.4321
-73.1432
-69.2696
-63.5045
15.7461
17.0939
17.5651
15.5252
16.3334
15.059
19.5504
17.8055
16.1348
14.7063
15.2871
16.1427
13.1239
14.8274
13.8945
14.8796
14.5088
13.81
-57.1297
-57.3307
-56.1086
-42.1418
-49.0793
-51.496
-44.5643
-46.6337
-42.3134
-55.7746
-51.1516
-48.469
-33.7307
-33.9823
-32.3343
-41.8129
-41.0912
-41.0304
-27.8632
-31.0249
-31.7514
-30.5111
-30.9033
-27.6145
-38.2368
-34.3932
-33.6894
-20.2538
-20.4416
-19.7898
-24.5356
-23.8164
-23.7863
1.11389
0.640682
2.24139
-2.74026
-0.161019
0.535
-3.12992
-2.59747
-6.26937
-6.79826
-6.19099
-3.61859
-7.64602
-6.77983
-4.43871
-11.8678
-8.06846
-6.90026
65.4719
64.3234
62.0326
71.3807
67.8403
73.1577
61.4395
65.1697
67.6941
80.7517
82.9397
88.2335
89.9276
95.4099
91.7951
89.8363
92.5002
88.2547
-154.472
-155.834
-154.21
-174.293
-173.389
-169.376
-128.739
-129.88
-118.548
-161.682
-153.437
-153.436
-144.525
-146.732
-152.224
31.5711
32.1448
30.5356
42.7843
40.8892
40.6656
38.5289
38.6169
41.7723
41.8959
41.7649
42.8178
28.5404
29.4229
29.8956
43.8687
44.9545
45.104
-116.666
-111.53
-105.573
-127.907
-127.232
-127.626
-145.178
-140.656
-142.59
-129.178
-129.918
-131.284
-113.639
-123.246
-118.507
14.9044
15.6957
15.2479
19.4865
18.6741
17.7434
21.2214
20.1137
21.6297
17.4183
16.9488
17.3534
13.4276
13.6049
14.0824
27.1995
26.8373
27.7171
17.729
18.2044
18.9129
-85.7945
-79.3716
-77.4207
-72.9985
-74.0442
-74.4726
-88.8019
-94.2233
-88.0065
12.0166
11.4637
11.4842
11.7222
11.7064
11.9513
13.3945
13.1458
13.318
11.4841
11.5923
12.2561
-43.1868
-43.1733
-42.4842
-54.9572
-54.3403
-54.2426
-53.7073
-48.8878
-49.1501
-53.2979
-52.6331
-54.3536
-42.7963
-44.3018
-44.3461
-71.048
-70.7736
-71.8584
-56.2118
-58.2041
-59.1095
-58.8747
-60.9517
-55.4712
11.1329
11.2553
11.4452
9.24833
9.66654
9.59691
11.9226
11.8203
11.7751
11.5962
11.7103
11.6353
-26.0466
-26.0806
-25.2984
-31.8128
-31.0206
-30.582
-40.0079
-39.9865
-41.3843
-32.8697
-36.2775
-36.1868
-35.8579
-35.8943
-33.6318
2.54713
0.749355
3.78919
-1.95366
-0.175233
2.14016
8.3526
8.37976
8.83595
-15.5003
-16.0245
-12.5691
69.5909
70.147
65.0793
86.8998
72.4033
73.841
74.1365
76.6373
87.3045
-213.818
-227.667
-211.456
11.5329
11.761
10.6731
13.9137
12.8303
12.0092
11.6371
12.0392
12.2506
11.8309
11.8595
11.5148
12.4072
12.1478
11.9066
-22.7416
-22.7687
-22.454
-24.747
-24.3334
-24.3651
-15.7717
-18.4964
-18.518
113.024
118.007
112.337
120.614
123.026
118.289
-154.136
-127.423
-111.132
-138.027
-129.099
-157.791
-110.391
-121.331
-126.051
12.243
13.1292
12.6286
13.8404
13.1687
12.2923
14.378
13.7839
14.2163
10.8228
10.9186
11.1414
9.45213
9.69588
9.62261
-25.5349
-25.6062
-25.1732
-31.5198
-29.5826
-29.5613
-28.695
-28.6697
-31.8368
-25.8532
-27.6975
-27.8177
8.86284
8.91585
9.19814
7.53785
7.75762
7.6791
-22.3533
-22.7693
-24.3626
-19.7895
-21.2611
-21.6593
-21.2662
-21.1347
-19.5686
32.8965
50.0253
5.96011
63.4446
55.727
36.1694
96.3236
64.2476
67.1859
-118.482
-124.916
-140.827
-41.5911
-75.035
-83.2448
-18.0113
-69.019
-39.8499
-188.539
-189.159
-172.315
-214.225
-181.851
-167.492
-214.701
-213.77
-226.981
-160.234
-173.568
-180.757
-36.4519
-34.5066
-34.8812
-37.4319
-37.7809
-37.826
-20.4064
-20.5339
-20.2724
-22.1985
-21.9333
-21.8732
-23.7269
-23.8408
-24.5389
-22.5001
-23.1594
-23.3948
-23.0585
-23.1034
-22.411
76.2148
81.1394
77.8791
69.303
69.8327
74.5304
98.4984
96.7034
94.5561
107.12
107.546
109.943
90.1305
94.7967
96.8345
-164.969
-163.795
-161.613
-163.982
-168.012
-166.656
35.7578
36.7289
37.0739
34.1345
33.8974
34.8458
52.8784
54.0693
54.0251
50.5226
50.5251
51.6963
-120.044
-121.248
-122.317
-115.94
-118.502
-116.507
-122.557
-120.564
-117.867
-108.175
-110.383
-108.346
-114.446
-112.426
-110.162
-118.749
-117.751
-118.851
-138.935
-139.262
-141.13
-130.297
-134.283
-132.445
-137.948
-136.199
-131.961
-123.363
-126.493
-124.456
-130.596
-128.588
-125.282
-138.246
-136.859
-137.392
15.081
15.3914
15.9588
14.9538
14.5788
14.8609
22.1987
22.9537
23.61
21.3848
20.8911
21.5642
-82.7229
-83.9151
-84.4064
-82.6878
-83.8301
-81.4825
-88.5351
-86.1959
-84.9671
-73.6618
-74.5609
-72.533
-79.1216
-76.7884
-75.9247
-80.7874
-80.2252
-81.511
-100.195
-102.084
-99.9382
-106.282
-104.205
-102.265
-91.6585
-93.2009
-90.8893
-97.7315
-95.4993
-93.8789
11.5831
11.4858
11.9822
11.2987
11.3919
11.437
11.0266
11.0714
10.8734
11.9362
11.6543
11.6096
12.3756
11.6143
11.7508
-48.0697
-47.3249
-47.1888
-49.6752
-49.6916
-48.7686
-63.8597
-64.9773
-65.1473
-65.3372
-65.8745
-63.7645
-70.327
-68.0722
-67.4253
-57.5876
-57.8815
-55.9627
-61.7781
-59.8414
-59.4847
-62.186
-61.934
-62.8731
11.9772
12.1601
12.211
11.3925
11.6547
11.4648
11.8428
11.8497
11.9068
11.856
11.8576
11.8695
11.5182
11.5839
11.5424
12.0657
11.8216
11.7287
11.8421
11.8478
12.0416
11.7325
11.7781
11.8183
12.0114
12.0519
11.9525
12.218
12.295
12.1202
-27.764
-26.9408
-26.8724
-27.5825
-27.5563
-27.9249
-25.0811
-25.49
-25.5192
-28.3139
-28.7956
-28.8114
-29.6268
-29.5477
-28.6366
2.35219
1.3176
3.91639
-1.89047
0.493785
1.10283
6.90551
7.01024
7.29842
-18.3596
-19.2915
-18.361
-19.9972
-19.7345
-19.4971
6.57245
7.37661
6.41182
9.56747
8.45661
7.31998
6.78369
7.0438
6.15591
8.6545
7.88647
7.75133
-5.4896
-8.18633
-7.08881
-9.02714
-7.71159
-6.40088
-11.726
-9.86985
-10.9226
10.2476
10.0241
9.36248
11.1001
10.6024
10.547
10.7993
10.6778
11.1893
-5.13789
-6.71893
-8.38703
-2.23609
-3.73441
-2.76994
-4.28917
-4.2166
-2.82954
-13.2293
-12.147
-11.6622
-16.7161
-14.347
-14.8125
-14.9642
-12.1119
-13.1262
32.0727
60.3367
-2.67338
71.8111
63.7848
49.7331
108.987
71.8951
86.5885
-166.601
-174.1
-195.078
-75.9541
-109.259
-110.758
-31.1239
-103.717
-58.2082
50.8241
48.7458
48.8463
48.2919
48.5559
50.5189
44.7043
46.5974
46.3941
-148.73
-150.615
-148.984
23.5434
22.3703
21.4116
23.8086
23.1981
24.373
21.1894
22.2006
23.0608
28.651
28.1786
29.6371
25.5355
26.8639
27.5955
25.2805
26.1205
24.7708
-59.4796
-58.4971
-58.2299
-21.7297
-21.0932
-20.9776
-21.3131
-21.2522
-21.8715
-19.9336
-20.5846
-20.7228
-0.453129
-1.63694
-2.05016
-1.28188
-1.61072
-0.465295
-3.87756
-3.0928
-2.50192
97.6814
97.2578
91.4495
114.326
104.106
104.074
97.7312
102.19
113.998
-159.311
-157.649
-156.165
-151.71
-152.667
-160.52
-138.221
-145.709
-145.422
-145.518
-146.159
-139.801
-136.111
-141.425
-139.676
-144.413
-143.022
-137.485
-154.794
-148.65
-150.32
35.4937
33.7833
33.2864
34.4698
34.2016
35.8584
31.0801
32.6453
33.1304
41.0548
41.0257
42.8457
37.5191
39.2616
39.4424
38.7449
39.0439
37.2344
39.7151
40.7488
40.9869
40.2859
40.5323
39.4889
42.6369
41.5751
41.3762
28.5913
29.0228
28.1461
30.7601
29.8698
29.4194
30.5584
30.2562
31.1621
44.7025
44.8278
43.7261
47.0376
45.9255
45.8234
46.0844
46.0269
47.1307
-125.184
-126.166
-126.749
-123.479
-123.02
-122.597
-110.251
-111.332
-110.32
-113.485
-112.454
-111.627
20.1255
19.4977
20.3556
18.0788
18.8047
19.6479
17.0536
17.968
17.291
16.2863
16.6575
17.2816
15.5669
16.0644
15.7281
16.6987
16.3399
15.685
25.1963
26.0303
26.6047
24.9094
25.5121
24.6888
27.2777
26.3819
25.8688
16.8315
17.5573
17.1045
18.5031
18.0055
17.2633
19.1551
18.6385
19.174
-87.6479
-88.3084
-87.0953
-90.7539
-89.5526
-89.0302
-76.104
-75.8518
-73.2477
-75.5029
-75.1906
-76.154
-106.029
-107.04
-106.006
-109.214
-108.188
-107.417
-92.4587
-93.2265
-92.024
-95.6407
-94.4848
-93.8854
-44.7892
-43.9408
-43.9197
-43.9292
-43.9256
-44.8072
-42.5113
-43.1302
-43.0269
-53.4081
-53.5492
-52.6535
-49.1368
-50.9532
-50.9443
-50.5387
-50.642
-48.9858
-54.1018
-52.3112
-52.2169
-44.12
-44.3293
-42.8468
-47.4043
-45.8775
-45.6912
-45.9835
-45.8937
-47.4771
10.7466
11.0241
10.8973
11.5605
11.1815
10.8892
11.5902
11.4117
11.6763
9.8802
9.76094
9.32455
10.5582
10.1794
10.3419
9.96264
10.0567
10.4205
2.96903
2.97406
4.12196
0.552223
1.7811
1.95558
7.41434
7.92418
7.953
7.95791
7.92815
7.42018
8.87771