/*--------------------------------*- C++ -*----------------------------------*\
| =========                 |                                                 |
| \\      /  F ield         | OpenFOAM: The Open Source CFD Toolbox           |
|  \\    /   O peration     | Version:  5.x                                   |
|   \\  /    A nd           | Web:      www.OpenFOAM.org                      |
|    \\/     M anipulation  |                                                 |
\*---------------------------------------------------------------------------*/
FoamFile
{
    version     2.0;
    format      ascii;
    class       surfaceScalarField;
    location    "2287";
    object      phi;
}
// * * * * * * * * * * * * * * * * * * * * * * * * * * * * * * * * * * * * * //

dimensions      [0 3 -1 0 0 0 0];

internalField   nonuniform List<scalar> 
13181
(
0.0333569
0.132801
0.0333488
0.13293
0.0333614
0.132902
0.0334064
0.132869
0.0334886
0.132839
0.0335472
0.132856
0.0337287
0.132735
0.03405
0.132596
0.034487
0.132479
0.0349492
0.132454
0.0353744
0.132492
0.0356426
0.132648
0.0356574
0.132902
0.0354222
0.133152
0.0350257
0.133313
0.0345726
0.13337
0.0341466
0.133343
0.033794
0.133269
0.0334653
0.133243
0.0332326
0.133154
0.0330266
0.13312
0.032957
0.132984
0.0329631
0.132915
0.132485
0.0334935
0.132672
0.0337833
0.13264
0.0338496
0.132835
0.0339708
0.132748
0.0340756
0.132734
0.0340681
0.132863
0.0341594
0.132644
0.0347057
0.13205
0.03558
0.131605
0.0365022
0.0657696
0.0657623
0.0373761
0.0658075
0.0658107
0.0379632
0.0660027
0.0660584
0.0380391
0.0663702
0.0664555
0.0376054
0.066761
0.066825
0.036854
0.0670229
0.0670414
0.0358164
0.134407
0.0347993
0.13436
0.0339786
0.13409
0.0333344
0.133887
0.0330312
0.133457
0.0329241
0.133227
0.0328806
0.133027
0.0332638
0.132532
0.132385
0.0331334
0.132683
0.0331954
0.132578
0.0335306
0.1325
0.0336765
0.132602
0.0339976
0.132413
0.0344366
0.132424
0.0345328
0.132547
0.0351477
0.131435
0.0180654
0.130512
0.0181749
0.0655001
0.018335
0.0654781
0.0189731
-0.0186438
-0.0192683
0.0657248
0.0195462
-0.0197108
0.0662621
0.0198189
-0.0197741
0.0668605
0.0196745
-0.0194562
0.0672729
0.0192063
0.036454
0.0680319
-0.0190656
-0.018992
0.0679789
0.0349895
0.135825
0.0340816
0.134998
0.033581
0.134388
0.0332216
0.133817
0.0330156
0.133433
0.0332383
0.132805
0.0332638
0.132507
0.132338
0.0328682
0.132807
0.0327996
0.132646
0.0328428
0.132457
0.0331897
0.132255
0.0334605
0.132142
0.0340288
0.131856
0.0347345
0.131842
0.0356549
0.130514
0.0182457
0.0650006
0.0183348
0.0645862
0.0646138
0.0187415
-0.0651097
0.0644143
0.019918
-0.0650244
-0.0193079
-0.0205107
0.064797
0.0210508
-0.065337
-0.0214317
0.0659302
0.0216229
-0.0661214
-0.0215503
0.0674348
0.0211573
-0.0670418
-0.0204374
0.0685689
0.0196482
-0.0677796
-0.0189383
0.0684683
0.018502
0.0357405
0.0685212
-0.018557
-0.0182196
0.0683396
0.0346986
0.13604
0.0338852
0.135201
0.0333091
0.134393
0.0332741
0.133468
0.0331947
0.132884
0.033149
0.132552
0.132271
0.0326264
0.13298
0.0324871
0.132786
0.0324143
0.13253
0.0325034
0.132166
0.0328709
0.131775
0.033437
0.13129
0.0349601
0.130319
0.0183799
0.0642971
0.0181981
0.0645994
0.0650876
0.0182929
0.0634241
0.0191806
-0.0640618
-0.018543
0.0627679
0.0208456
-0.0636381
-0.0199754
-0.0219107
0.0229508
-0.0640429
0.0315352
0.0314676
-0.0237406
0.0241074
-0.0656708
0.0327472
0.0325568
-0.0237789
0.0226051
-0.0682101
0.0346505
0.0347333
-0.0219663
0.0699796
0.021184
-0.0691973
-0.0203372
0.0697758
0.0196544
-0.069093
-0.0190064
0.0690108
0.0185167
0.0348237
0.137453
-0.0181344
-0.0181029
0.0338262
0.136199
0.0334397
0.134779
0.0331419
0.133766
0.0329694
0.133057
0.0329561
0.132566
0.132164
0.0323307
0.133211
0.0321309
0.132986
0.0319766
0.132684
0.0318823
0.13226
0.0319685
0.131689
0.0323254
0.130933
0.0166178
0.129823
0.0162028
0.0642197
0.0166952
0.0635419
0.0183907
-0.0646684
-0.0172642
0.0617549
0.0203609
-0.0627401
-0.0193757
-0.031015
-0.0104938
0.03083
0.0106789
-0.0307005
-0.0117162
0.0303086
0.0121082
-0.0321659
-0.0134281
0.0319728
0.0136212
-0.0347915
-0.0128358
0.0347725
0.0128549
-0.0116583
0.0224965
-0.0710176
-0.0118522
0.0359849
0.0360467
-0.0213977
0.0717034
0.0203167
-0.0706224
-0.0193982
-0.0696796
0.0704442
0.0186337
0.0344596
0.138976
-0.0179527
-0.0180293
0.0336465
0.137012
0.0331033
0.135323
0.0327604
0.134109
0.0326411
0.133176
0.0326773
0.13253
0.132003
0.0319831
0.13351
0.0316959
0.133273
0.031437
0.132943
0.0312179
0.132479
0.0310428
0.131864
0.031002
0.130974
0.0156628
0.129777
0.0153853
-0.064191
0.0641179
0.0157358
-0.0629717
0.0627501
0.0161118
-0.0158902
-0.0609104
0.0604192
-0.016437
0.00860439
0.00832373
-0.0294589
-0.00937467
0.028958
0.00987554
-0.0141037
-0.00613771
0.0138225
0.00641894
-0.0085576
-0.0152044
0.0151112
0.00865086
-0.00766867
-0.0367285
0.0146236
-0.00764269
0.0186312
0.018785
-0.0126282
-0.0369833
0.0376122
0.0119992
-0.0213142
-0.0729064
0.0741432
0.0200775
-0.0190827
-0.0712352
0.0720346
0.0182834
0.0336981
0.140241
-0.0173497
-0.0176133
0.0329693
0.13774
0.0324586
0.135833
0.0322144
0.134353
0.0321694
0.133221
0.0322825
0.132416
0.131754
0.0316137
0.133863
0.0312441
0.133642
0.0308727
0.133314
0.030482
0.13287
0.0300743
0.132272
0.0296035
0.131445
0.0147607
0.130285
0.0143351
-0.064214
0.0643137
0.014661
-0.0627526
0.0629084
0.0143817
-0.0145375
-0.0603395
0.060625
-0.0141846
0.00711575
0.00678329
-0.0281712
-0.00707369
0.0282274
0.00701755
-0.0116925
-0.00366618
0.011664
0.00369465
-0.00827504
-0.0210523
0.0214823
0.00784507
-0.0120078
-0.0396136
0.0402361
0.0113853
-0.0199484
-0.0753582
0.0763507
0.018956
-0.0181745
-0.0728051
0.0734243
0.0175553
0.0324475
0.141356
-0.0165605
-0.0170027
0.0318247
0.138363
0.0315678
0.13609
0.0315012
0.13442
0.0315923
0.13313
0.0318194
0.132189
0.131434
0.0312186
0.134273
0.0307883
0.134073
0.0303153
0.133787
0.0297982
0.133387
0.0291997
0.13287
0.0284588
0.132186
0.0138592
0.13127
0.0136149
-0.0645148
0.0647855
0.0135885
-0.0633142
0.0638029
0.0126713
-0.01316
-0.0613031
0.0621898
-0.0120306
0.00565891
0.00548499
-0.0291255
-0.00504547
0.0295663
0.00460469
-0.0132606
-0.00121908
0.0135657
0.000914039
-0.00478525
-0.0225603
0.0224882
0.00485736
-0.00923768
-0.0414106
0.0415659
0.00908246
-0.0169455
-0.0770387
0.0773563
0.016628
-0.0163296
-0.0738719
0.0741216
0.0160798
0.030836
0.14162
-0.0153048
-0.0157947
0.0305818
0.138617
0.0305419
0.13613
0.0306978
0.134264
0.0309368
0.132891
0.0312623
0.131864
0.131024
0.0308374
0.134712
0.030347
0.134563
0.0298097
0.134325
0.0291877
0.134009
0.0284642
0.133594
0.0275397
0.13311
0.0132526
0.132483
0.0130738
-0.0652278
0.0656637
0.0128166
-0.0643821
0.0649949
0.011711
-0.0123238
-0.0631855
0.0641679
-0.0109423
0.00500544
0.00495447
-0.0309633
-0.00434006
0.0313864
0.00391696
-0.0153419
-0.00109
0.015528
0.000903894
-0.0021034
-0.021189
0.0209385
0.00235392
-0.00637478
-0.0413143
0.041062
0.00662705
-0.0137696
-0.0773083
0.076945
0.0141329
-0.0143782
-0.0741618
0.0740299
0.0145101
0.0290375
0.14118
-0.0140666
-0.0145311
0.0294418
0.138213
0.029554
0.136018
0.0298324
0.133985
0.0302348
0.132488
0.0306651
0.131433
0.130545
0.0304682
0.13517
0.0299581
0.135073
0.0293816
0.134901
0.0287186
0.134672
0.0279003
0.134412
0.0269064
0.134104
0.0128555
0.1338
0.0127338
-0.0661559
0.0665987
0.0124126
-0.0656132
0.0662008
0.0113268
-0.0119145
-0.0650727
0.0658909
-0.0106349
0.00489645
0.00492035
-0.0324255
-0.00440564
0.032696
0.00413519
-0.0163332
-0.00163301
0.0163945
0.00157173
-0.000745412
-0.0190133
0.018738
0.00102069
-0.00444003
-0.0399437
0.0395127
0.004871
-0.0112928
-0.0763382
0.075573
0.0120581
-0.0126715
-0.0737175
0.0732936
0.0130954
0.0273881
0.140196
-0.0130315
-0.0133724
0.0281647
0.137436
0.0287883
0.135395
0.0289704
0.133803
0.0294986
0.13196
0.0300377
0.130894
0.130005
0.0301228
0.135636
0.0296109
0.135585
0.0290229
0.135489
0.0283401
0.135355
0.0275407
0.135211
0.0265711
0.135074
0.0126494
0.135099
0.0126229
-0.0670167
0.0673986
0.0122675
-0.0667551
0.0672655
0.0113093
-0.0118197
-0.0666071
0.0672426
-0.0107358
0.00503363
0.00506671
-0.0333494
-0.00468147
0.0335324
0.0044985
-0.0166626
-0.00198502
0.0166931
0.00195446
-0.000423883
-0.0169658
0.0167437
0.000645954
-0.00354829
-0.0381429
0.0376997
0.0039915
-0.00982081
-0.0746758
0.0737166
0.01078
-0.0115127
-0.0727702
0.0722039
0.012079
0.0261468
0.138857
-0.0122947
-0.0125132
0.0271316
0.136452
0.0279312
0.134595
0.0285618
0.133173
0.0288145
0.131707
0.029415
0.130294
0.129422
0.0298128
0.136092
0.0293104
0.136087
0.0287364
0.136063
0.0280835
0.136008
0.0273208
0.135974
0.0264325
0.135962
0.0126565
0.136182
0.0126931
-0.0677648
0.0681049
0.0123163
-0.0677265
0.0681403
0.0115059
-0.0119197
-0.0677943
0.068279
-0.0110572
0.00526587
0.00530673
-0.0340222
-0.00499439
0.0341699
0.00484669
-0.0169766
-0.00215398
0.0170356
0.002095
-0.000495082
-0.0152884
0.0150916
0.000691865
-0.00335832
-0.036437
0.0360451
0.00375015
-0.00929867
-0.0727192
0.0718097
0.0102082
-0.0109413
-0.0716163
0.0710354
0.0115222
0.0253448
0.137449
-0.0119174
-0.0120196
0.0263964
0.1354
0.027261
0.13373
0.0278779
0.132556
0.0282503
0.131335
0.0288301
0.129714
0.128826
0.0295465
0.136521
0.0290651
0.136569
0.0285336
0.136595
0.0279234
0.136618
0.0272307
0.136667
0.0264388
0.136754
0.0255277
0.137093
0.012185
0.137969
0.0122673
-0.06843
-0.0684638
-0.0684984
0.0688145
0.011869
-0.0686855
0.0692004
0.0109766
-0.0114915
-0.0345708
-0.00505799
0.0350941
0.00453474
-0.0177598
-0.00156166
0.0175605
0.00176095
-0.00577084
-0.00111658
0.00610804
0.000779385
-0.000890039
-0.0139131
0.0278534
0.00234324
-0.000892735
-0.0145007
-0.0349837
-0.00358488
0.0346943
0.00387436
-0.00950041
-0.0709943
0.0702611
0.0102336
-0.0108501
-0.0705041
0.0700852
0.0112689
0.0249207
0.136194
-0.0118361
-0.0118294
0.0259159
0.134405
0.0267551
0.132891
0.027202
0.132109
0.0280958
0.130441
0.0283299
0.12948
0.128276
0.0293024
0.136927
0.02886
0.137011
0.0283686
0.137086
0.0278096
0.137177
0.0271973
0.137279
0.0265149
0.137436
0.025647
0.137961
0.0121675
0.139503
0.0119452
-0.0692126
0.0698083
0.0115717
-0.0697686
0.0698003
0.0111706
-0.0112023
-0.0349497
-0.00567276
0.0349572
0.00566518
-0.0351205
-0.00554466
0.0351326
0.00553264
-0.014559
-0.00564051
0.0281749
0.00433368
-0.0123091
-0.026041
-0.00167763
0.0253019
0.00241673
-0.0678703
-0.00365322
0.0670617
0.00841958
-0.00395775
-0.00920105
-0.0696355
0.0689922
0.0098443
0.0228498
0.136625
-0.0107594
-0.0103532
-0.0699004
-0.0684622
0.0240615
0.134982
0.0250164
0.13345
0.0257281
0.132179
0.0270114
0.130826
0.0276645
0.129788
0.0282535
0.128891
0.128155
0.0291001
0.137299
0.0286923
0.137419
0.0282433
0.137535
0.0277499
0.13767
0.0272041
0.137825
0.0265951
0.138045
0.0256328
0.138923
0.0120959
0.140318
0.0127227
-0.0700471
0.0698794
0.0122636
-0.0698152
0.0699417
0.0121666
-0.0122931
-0.0701696
0.0702541
0.0119642
-0.0120487
-0.0351435
-0.00592204
0.0351514
0.00591414
-0.0304997
-0.00596758
0.0308825
0.00558475
-0.0243333
-0.00253969
0.0498525
0.00631077
-0.026601
-0.00268933
-0.0659635
-0.00775627
0.0648574
0.00886237
-0.0684185
-0.00961904
0.0678584
0.0101792
0.0231719
0.135029
-0.0108877
-0.010688
0.0243934
0.133761
0.0250772
0.132766
0.0257861
0.13147
0.0263642
0.130248
0.026922
0.12923
0.0273882
0.128425
0.12762
0.0289181
0.137641
0.0285616
0.137775
0.028167
0.13793
0.0277301
0.138107
0.0272643
0.138291
0.0266564
0.138653
0.0258931
0.139687
0.0258202
0.140391
0.012663
0.140381
-0.0700032
-0.06998
0.0127596
-0.0700712
0.0701989
0.0125353
-0.0703198
0.0703781
0.0123826
-0.012441
-0.0702654
-0.0123431
0.0702728
0.0123357
-0.0601036
-0.0122507
0.0617295
0.0106248
-0.0497296
-0.00761089
0.050058
0.00728243
-0.0638156
-0.00842837
0.0629005
0.00934341
-0.0673324
-0.0101506
0.06682
0.010663
0.0234008
0.133973
-0.0112228
-0.0111216
0.0242188
0.132943
0.0249643
0.132021
0.0256832
0.130752
0.0263224
0.129608
0.0267727
0.12878
0.0272612
0.127936
0.127263
0.0287696
0.137948
0.0284485
0.138096
0.0280972
0.138281
0.0277253
0.138479
0.0273122
0.138704
0.026643
0.139322
0.0261898
0.14014
0.0261705
0.14041
0.0259041
0.140647
0.0127707
0.140965
-0.0702936
-0.0703649
0.0128264
-0.0704282
0.0705171
0.0126818
-0.0703112
-0.012622
0.0703063
0.0126269
-0.0629041
-0.0125706
0.0637175
0.0117572
-0.0507639
-0.00925854
0.0517981
0.00822426
0.0205907
0.123692
-0.0623308
-0.0642749
-0.00885939
-0.00881725
0.0226434
0.131076
-0.0663687
-0.0667601
0.0237196
0.132896
0.0243333
0.132329
0.0249712
0.131383
0.0255254
0.130197
0.026023
0.129111
0.0264905
0.128313
0.027017
0.12741
0.127033
0.0286436
0.13822
0.0283538
0.138386
0.0280591
0.138576
0.0277354
0.138803
0.0273876
0.139051
0.0268448
0.139865
0.0266267
0.140358
0.0265278
0.140509
0.0262703
0.140905
0.0260467
0.141189
0.0259141
0.14127
-0.0705682
-0.0705697
0.0257962
0.140041
-0.0702653
-0.0696577
0.022242
0.125177
-0.0636989
-0.057924
0.0191436
0.111781
-0.0532286
-0.0554545
0.0210724
0.121763
0.0228784
0.12927
0.0239503
0.131825
0.0245422
0.131737
0.0250489
0.130876
0.0254751
0.129771
0.0258402
0.128746
0.0262901
0.127863
0.0267002
0.127
0.126789
0.0285371
0.138461
0.0282937
0.13863
0.028031
0.138839
0.0277562
0.139078
0.0274588
0.139349
0.0270768
0.140247
0.0268981
0.140537
0.026783
0.140624
0.0265984
0.141089
0.026434
0.141354
0.0263158
0.141389
0.0261255
0.140231
0.0234029
0.1279
0.0204324
0.114752
0.0215376
0.120657
0.0231284
0.127679
0.0241572
0.130796
0.0247313
0.131163
0.0251461
0.130461
0.0254857
0.129432
0.0257947
0.128437
0.0261431
0.127514
0.0264774
0.126665
0.126575
0.0284473
0.138673
0.0282297
0.138847
0.0280068
0.139062
0.0277734
0.139311
0.0275392
0.139583
0.0272912
0.140495
0.0271186
0.140709
0.0270095
0.140733
0.0268682
0.141231
0.0267441
0.141478
0.0266415
0.141491
0.0264732
0.1404
0.0242727
0.1301
0.0214772
0.117548
0.0219583
0.120176
0.02332
0.126318
0.0243207
0.129795
0.0248877
0.130596
0.025245
0.130104
0.0255133
0.129163
0.025765
0.128185
0.0260396
0.12724
0.0263108
0.126394
0.126397
0.0283716
0.138858
0.0281836
0.139035
0.0280002
0.139245
0.027806
0.139505
0.0276104
0.139779
0.0274377
0.140668
0.0272833
0.140864
0.0271331
0.140883
0.0270966
0.141267
0.0270018
0.141572
0.0269234
0.14157
0.0267785
0.140545
0.0249661
0.131912
0.0223725
0.120141
0.0223615
0.120187
0.023476
0.125203
0.0244377
0.128833
0.0250075
0.130026
0.0253486
0.129763
0.0255529
0.128959
0.0257635
0.127974
0.0259692
0.127034
0.026175
0.126188
0.126248
0.0283004
0.139026
0.0281536
0.139182
0.0279933
0.139405
0.0278374
0.139661
0.0276781
0.139938
0.0275394
0.140807
0.0274176
0.140985
0.0273009
0.141
0.0272915
0.141277
0.0272247
0.141639
0.0271606
0.141634
0.0270309
0.140674
0.0255375
0.133406
0.0231651
0.122513
0.0227654
0.120587
0.0236179
0.124351
0.0245213
0.12793
0.0251057
0.129442
0.0254282
0.12944
0.0256137
0.128774
0.0257755
0.127813
0.0259303
0.126879
0.0260915
0.126027
0.126141
0.0282546
0.139166
0.0281135
0.139323
0.0279858
0.139533
0.0278593
0.139788
0.0277279
0.140069
0.0276303
0.140904
0.0275342
0.141081
0.0274443
0.14109
0.0274016
0.141319
0.0274101
0.141631
0.0273639
0.14168
0.0272456
0.140793
0.0260083
0.134643
0.0238599
0.124662
0.0231671
0.12128
0.0237527
0.123765
0.0245788
0.127104
0.025168
0.128853
0.0255028
0.129105
0.0256743
0.128602
0.0257897
0.127697
0.0259006
0.126768
0.0260153
0.125913
0.126055
0.0282098
0.139289
0.0280973
0.139435
0.0279834
0.139647
0.0278804
0.139891
0.0277817
0.140168
0.0277097
0.140976
0.0276338
0.141157
0.0275667
0.141157
0.0275161
0.14137
0.027565
0.141582
0.027534
0.141711
0.0274347
0.140892
0.0264013
0.135677
0.0244731
0.12659
0.0235675
0.122186
0.0238991
0.123433
0.0246223
0.126381
0.0252022
0.128273
0.025538
0.12877
0.025712
0.128428
0.0258194
0.12759
0.0259004
0.126687
0.0259784
0.125835
0.126
0.0281723
0.139394
0.0280764
0.139531
0.0279864
0.139737
0.0279033
0.139974
0.0278196
0.140252
0.0277708
0.141025
0.0277181
0.14121
0.0276726
0.141202
0.027636
0.141407
0.0275653
0.141653
0.0275771
0.141699
0.0275038
0.140965
0.0266691
0.136511
0.0249518
0.128307
0.0239138
0.123224
0.0240078
0.123339
0.0246097
0.125779
0.0251609
0.127722
0.0254956
0.128435
0.0257199
0.128204
0.0258249
0.127485
0.0258937
0.126618
0.025952
0.125776
0.125968
0.0281426
0.139484
0.028059
0.139615
0.0279933
0.139803
0.0279174
0.14005
0.0278591
0.14031
0.0278207
0.141063
0.0277919
0.141239
0.0277585
0.141236
0.0276806
0.141484
0.0276273
0.141706
0.0276141
0.141712
0.0275341
0.141045
0.0268185
0.137227
0.0252895
0.129836
0.0241704
0.124343
0.0240559
0.123454
0.024532
0.125303
0.0250682
0.127185
0.0254294
0.128074
0.0256186
0.128015
0.0257064
0.127397
0.0257433
0.126582
0.0257795
0.12574
0.125848
0.0281147
0.139564
0.0280445
0.139685
0.0279837
0.139863
0.0279367
0.140097
0.0278946
0.140352
0.0278712
0.141087
0.0278515
0.141259
0.027776
0.141311
0.0277159
0.141545
0.0277173
0.141705
0.0277134
0.141716
0.0276449
0.141114
0.0270436
0.137828
0.0256902
0.13119
0.0245319
0.125501
0.0242364
0.123749
0.0245774
0.124961
0.0250607
0.126702
0.0254366
0.127698
0.0256399
0.127811
0.0257242
0.127313
0.0257626
0.126543
0.0257756
0.125727
0.12574
0.0280928
0.139634
0.0280401
0.139738
0.0279895
0.139914
0.0279552
0.140131
0.027914
0.140393
0.0279044
0.141096
0.0278465
0.141317
0.0277788
0.141379
0.027781
0.141542
0.0277885
0.141697
0.0277923
0.141712
0.0277361
0.14117
0.0272306
0.138334
0.0260366
0.132384
0.0248761
0.126661
0.0244304
0.124195
0.0246334
0.124758
0.0250614
0.126274
0.0254245
0.127335
0.0256491
0.127587
0.0257515
0.12721
0.0257737
0.126521
0.0257856
0.125715
0.125647
0.0280823
0.139689
0.0280224
0.139798
0.027986
0.13995
0.0279528
0.140164
0.0279397
0.140406
0.0278807
0.141155
0.0278155
0.141382
0.0278236
0.141371
0.0278311
0.141535
0.0278446
0.141684
0.0278559
0.141701
0.0278095
0.141216
0.0273847
0.138759
0.0263323
0.133436
0.0251964
0.127797
0.0246303
0.124761
0.0246995
0.124689
0.0250604
0.125913
0.0254136
0.126981
0.0256503
0.12735
0.0257581
0.127102
0.0257965
0.126483
0.0257971
0.125715
0.125562
0.0280596
0.139742
0.0280201
0.139837
0.0279935
0.139977
0.0279671
0.140191
0.0279027
0.140471
0.0277932
0.141265
0.0278412
0.141334
0.0278539
0.141358
0.027869
0.14152
0.0278877
0.141665
0.0279028
0.141686
0.0278663
0.141253
0.0275079
0.139117
0.0265843
0.13436
0.0254921
0.12889
0.024836
0.125417
0.0247815
0.124744
0.0250658
0.125629
0.0254055
0.126642
0.0256349
0.127121
0.0257631
0.126974
0.0258035
0.126442
0.0258039
0.125714
0.125476
0.0280551
0.139782
0.0280151
0.139877
0.0279842
0.140008
0.0279766
0.140198
0.0277542
0.140693
0.0278153
0.141204
0.0278618
0.141287
0.0278792
0.141341
0.0278977
0.141501
0.0279182
0.141644
0.0279361
0.141668
0.0279073
0.141281
0.0276059
0.139418
0.026797
0.135169
0.0257636
0.129923
0.0250429
0.126138
0.0248749
0.124912
0.0250797
0.125424
0.0253812
0.12634
0.0256284
0.126873
0.0257553
0.126847
0.0258109
0.126387
0.0258144
0.125711
0.125394
0.028038
0.139823
0.0280177
0.139898
0.0279906
0.140035
0.0278468
0.140342
0.0277523
0.140788
0.0278172
0.141139
0.0278752
0.141229
0.0278954
0.14132
0.0279142
0.141483
0.027939
0.14162
0.0279571
0.14165
0.0279334
0.141305
0.0276782
0.139673
0.0269748
0.135872
0.0260063
0.130892
0.0252509
0.126893
0.024982
0.125181
0.0251038
0.125302
0.0253669
0.126077
0.025603
0.126637
0.0257526
0.126698
0.0258136
0.126325
0.0258298
0.125695
0.125317
0.028039
0.139854
0.0280069
0.13993
0.0279901
0.140052
0.0278084
0.140524
0.027773
0.140823
0.0278306
0.141081
0.0278805
0.14118
0.0279045
0.141296
0.0279234
0.141464
0.0279456
0.141597
0.0279627
0.141633
0.0279415
0.141326
0.0277236
0.139891
0.0271114
0.136484
0.0262225
0.13178
0.0254571
0.127659
0.0251073
0.125531
0.0251439
0.125266
0.02536
0.125861
0.0255809
0.126416
0.0257303
0.126548
0.0258085
0.126247
0.0258243
0.125679
0.125231
0.0280354
0.139879
0.0280133
0.139952
0.0279981
0.140067
0.0278647
0.140657
0.0277992
0.140889
0.0278236
0.141057
0.0278851
0.141118
0.0279053
0.141276
0.0279267
0.141442
0.0279462
0.141578
0.0279608
0.141618
0.0279403
0.141347
0.0277535
0.140078
0.0272223
0.137016
0.0264136
0.132589
0.0256512
0.128421
0.0252346
0.125947
0.0251847
0.125316
0.025353
0.125693
0.0255565
0.126213
0.0257142
0.126391
0.0257893
0.126172
0.0258216
0.125646
0.12514
0.0280235
0.0279985
0.0279854
0.0279313
0.0278956
0.027826
0.0278824
0.0279051
0.0279206
0.0279337
0.0279329
0.0278892
0.0277046
0.0272517
0.0265659
0.0258824
0.0254415
0.025311
0.0253876
0.0255369
0.0256718
0.0257635
0.0257967
-0.00135964
0.00104986
-0.0129508
0.0226625
0.00521721
-0.0227417
-0.00251849
-0.00261958
-0.0211938
-0.00875039
0.0216691
-0.00103928
0.000835653
-0.0151383
0.0207913
0.00236206
-0.0210848
-0.00100931
-0.0010592
0.0225238
-0.00227986
-0.00236672
-0.00156685
0.00149656
-0.0162629
0.0182797
0.000848058
-0.0185925
-0.000257595
-0.000277612
0.0204909
-0.000878447
-0.000924519
-0.00195715
0.00192686
-0.0166323
0.0160295
0.000425865
-0.0162898
-0.000165543
0.0179738
-0.000210797
-0.000228759
-0.00212525
0.00207665
-0.016928
0.014242
0.000484516
-0.0144467
-0.00027978
-0.00016781
0.0157734
-0.00150212
0.00121452
-0.0174722
0.0010483
0.00840943
-0.00106846
-0.00424955
-0.00413973
0.000580641
-0.00288209
-0.0024211
0.0126075
0.000723453
-0.0127928
-0.000538146
-0.0003046
0.0140515
-0.00407691
0.00423472
-0.0118503
-0.0146609
-0.00827116
0.0143744
0.00850742
-0.0206729
-0.0090283
-0.0179002
-0.0079737
0.0182052
-0.00542703
0.00502695
-0.0287255
0.0134643
-0.0132018
-0.00162211
-0.0122129
-0.00363368
0.0121804
0.00569484
0.00359774
-0.0114787
0.00568053
-0.00171173
-0.00178268
0.00554505
-0.0107975
-0.0058162
0.0110686
0.00524137
-0.0225845
0.042163
0.0100186
-0.041892
-0.0102896
-0.0401487
-0.0127284
0.0408693
-0.0044138
0.00395941
-0.0305089
0.0153234
-0.0151344
-0.00122823
-0.00147942
0.0137246
0.014421
-0.00100192
0.000730575
-0.0141496
0.00726139
-6.92412e-05
-0.00717303
3.4486e-05
-5.36117e-05
-0.00646544
-0.000147561
2.64662e-05
0.00658653
0.00413041
0.000229957
-0.0042704
-8.99624e-05
-0.00495649
0.000979105
-0.000989998
0.00496738
0.00260207
-0.021429
0.0418528
0.00702607
-0.042112
-0.00676691
-0.0093618
0.0422871
-0.00435706
0.0040515
-0.03212
0.0162916
-0.0162171
-0.00164135
-0.00126454
0.0154979
0.0159742
-0.0012849
0.00115325
-0.0158426
0.00831093
0.000247037
-0.00828683
-0.00044502
0.000173883
-0.00791934
5.12202e-05
-0.000183432
0.00797039
8.11595e-05
0.00294402
7.00097e-05
-0.00296331
-5.07123e-05
-0.00332637
7.31026e-05
0.00330661
-5.3337e-05
0.0011275
-0.0192927
0.0401232
0.00483404
-0.0406289
-0.00432839
-0.00603401
0.041512
-0.00461076
0.00441341
-0.033152
0.0166628
-0.0166281
-0.00199187
-0.00169917
0.0163578
0.0165312
-0.00180094
0.00176208
-0.0164923
0.000860926
0.00832009
-0.00831974
-0.000861277
-0.00831597
0.000366362
-0.000728641
0.00830358
0.000374672
0.00278315
-0.000241432
-0.00285485
0.000313134
-0.00282623
8.55473e-06
-5.24179e-05
0.00287009
0.000663794
-0.0172037
0.0379894
0.00371906
-0.0385246
-0.00318385
-0.00391849
0.0396017
0.0043281
-0.000216867
-0.00436946
0.000130462
0.000127764
-0.00243084
-0.000145054
0.000158866
0.00241702
0.000683
-0.0154869
0.036029
0.00336717
-0.0364998
-0.0028964
-0.00303649
0.0374776
0.00370665
-0.000121709
-0.00374882
0.000163876
-0.00400253
-0.000133995
0.00017032
0.00396621
-0.00543151
0.0054087
-0.0350977
0.00276068
0.0170556
-0.0170286
-0.00278762
-0.00112399
0.00841685
0.00280064
-0.0145989
0.00150598
0.0210926
-0.0218528
-0.000745845
-0.000715666
0.0124331
-0.000111673
-0.00635287
-8.95159e-07
0.000282153
-0.00532907
-0.000435131
0.00548205
-0.0120952
-0.00205608
0.0123533
0.00179801
-0.00522463
0.00540609
5.99255e-05
4.07598e-05
0.00647385
-0.00638446
-9.99045e-05
-0.000101161
-0.00208128
-0.0044213
0.00434092
0.00216167
-0.00040705
0.000229249
-0.00504682
0.000915716
-0.0050488
-0.000823406
0.00170831
-0.00169151
0.00567803
-0.022599
0.00661221
-0.00672791
0.0227147
-0.01148
-0.00165877
0.0114077
0.00343938
0.00516185
0.000986615
-0.00523275
6.72241e-05
-0.00786757
-0.000153029
3.4036e-05
-7.87546e-05
4.19046e-05
0.00739167
-9.34268e-05
-0.000981723
0.0146768
0.000725945
-0.00362141
0.00366928
-0.000126625
0.00404787
4.66954e-05
-0.00402734
0.00330666
0.00330588
-0.000126505
-0.000159744
-9.28281e-05
-0.00359782
5.48774e-05
-0.00336831
-1.29386e-05
0.000306817
-0.000141134
0.00396472
-0.0218943
0.00326223
0.0216408
-0.00147205
-0.00153662
-0.00433625
0.00421394
0.000429132
0.00384157
0.000112681
-0.00389937
0.00515112
0.000989829
0.000364785
-0.00447108
0.0036062
-0.0221324
-0.00165005
-0.0017181
0.000367602
-0.00832398
-0.000700363
0.000340768
0.000237426
-0.000505153
0.00827529
0.000303362
-0.00135488
0.0160837
0.0012454
-0.00430374
0.00426225
0.000278922
0.00420258
0.000380484
-0.00421546
0.00404802
5.10751e-05
0.000228345
-0.00428505
-5.19509e-05
-0.00276458
-9.69114e-06
6.30093e-05
0.00292225
-4.12435e-05
-0.0195508
0.0012677
0.0192298
-0.000458358
-0.000488351
-0.00342094
0.00341266
7.12903e-05
0.00303213
-8.79136e-05
-0.00299616
0.00379896
0.000115716
7.60234e-05
-0.00342696
0.00144705
-0.0198691
-0.00054754
-0.000581141
-0.00833208
-0.000872066
0.00834551
0.000417995
0.000440632
0.00830915
-0.00094246
0.000939166
-0.00830586
0.00417754
0.000391399
-0.00832252
0.000426473
0.000424899
-0.00016073
-0.00245109
0.000180986
-0.000269347
0.000369998
0.0026825
-0.0170985
0.000494036
0.0168222
-0.000108178
-0.000109569
-0.00291542
0.00284863
-0.000202555
0.0052487
0.000159021
-0.000246698
-0.00532176
0.00307381
-3.31324e-05
-0.000190756
-0.0029661
0.000535244
-0.0173821
-0.000121535
-0.000130057
-0.00832127
-0.000956136
0.00832933
0.000948084
0.0084228
-0.000954739
0.000939539
-0.0084076
-0.000950212
0.00832344
0.000935929
-0.000957467
0.000954388
-0.00831819
-0.000135962
-0.00404235
0.00017578
-0.000205666
0.00428253
0.000127231
0.000124005
0.000139541
0.00519659
-0.00023248
0.00482936
-0.000167615
-0.00487861
0.0150811
0.000417154
-0.015301
-0.000197247
-0.0085786
-0.00101765
0.00860248
0.000993768
0.00878228
-0.00101703
0.00103085
-0.0087961
-0.000959203
0.00844039
0.000941611
-0.000999313
0.000978052
-0.00855734
0.00321174
-4.26612e-07
-0.00336066
0.000149347
-0.000135944
0.000176135
0.00366646
-0.00241247
0.00219665
-0.0118794
-0.00517751
-0.000558607
-0.00467358
-0.0020198
0.0046121
0.00557474
0.00215803
-0.00760177
-0.000130993
0.00359688
-0.00545217
-0.00375358
0.00560886
-0.00490073
0.00474561
-0.0338671
0.016989
-0.016942
-0.00217217
-0.00202018
0.0166979
0.0167974
-0.00204937
0.00201062
-0.0167586
0.00834027
-0.00833377
-0.000963965
-0.00831437
-0.000955739
0.0083199
0.00111802
-0.000121376
-0.00112909
0.000132448
-0.00112955
-0.000130176
0.000140474
0.00111925
0.000789663
-0.0139793
0.00349685
0.0342859
-0.0346958
-0.00308689
-0.00289836
0.0355691
-0.00143297
-0.00129511
0.0013883
0.00133978
0.00185928
-0.000125946
3.87444e-05
-0.00177208
-0.0107897
0.0110407
0.00529407
0.00366803
-0.0115503
0.00708078
-0.0223801
-0.00729961
-0.00831536
-0.00094147
-0.000875831
0.00832386
-0.00184878
0.0165674
0.00181256
-0.00363272
-8.19879e-05
0.00371771
-3.00259e-06
0.00400519
-0.000241137
8.69982e-05
-0.00385105
-0.0041314
-0.000467346
0.00411249
0.000486253
0.00425572
-0.000495491
0.000511244
-0.00427147
-0.000184355
0.00413692
5.26258e-05
-0.000497283
0.0040414
0.000422471
-0.00396659
-0.000116803
-0.00111383
0.000101084
-0.00018256
-0.0010255
0.000149201
0.00105886
0.000435242
-0.000215277
0.0148611
0.00478138
-0.000157691
0.0044783
-9.30597e-05
-0.0045212
-0.000475845
0.00420484
0.000526721
0.00423963
-0.000450892
0.000443133
-0.00423187
0.0044379
-9.35999e-05
0.0042107
-0.000122395
-0.00421001
0.0134347
0.000560577
-0.0136459
-0.000349347
0.00544888
-0.00709685
-0.00526896
0.00691694
-0.00771606
-0.0123388
0.00578885
0.00559203
0.00424742
0.00442655
-0.00245354
0.00257648
-0.00454425
0.00568276
-0.0104878
-0.00599243
0.0103761
-0.0177586
-0.00549094
-0.00553251
0.00915894
0.00924695
-0.00771229
0.0075573
0.00560387
0.00189608
0.00386146
-0.000182796
-0.0115442
0.00451174
0.0115843
-0.00223228
-0.00231958
-0.00580033
0.00547442
0.00222199
-0.00541932
0.0055666
0.0034496
0.00239083
-0.00603312
0.00479621
-0.0114634
-0.00487701
-0.00457279
0.000990505
-0.00121493
0.00479722
0.000902725
-0.00452708
-0.000948436
-0.00311898
5.40161e-05
0.00308276
-1.77959e-05
5.63373e-05
-0.00314558
-2.97395e-05
-0.00272891
-0.000321437
0.00040167
0.00264867
-0.000395515
-0.00291128
0.000577894
-0.00230455
-0.00023853
0.00447888
-0.00222431
0.000150769
0.000137743
0.0013161
-9.21863e-05
-0.00119191
-3.20061e-05
-0.000128243
-0.00233251
0.000156201
0.00108793
-0.000129451
-0.00108848
0.000129999
-0.000119983
0.000127538
0.00111047
-0.00124414
0.00123661
-0.000122638
0.00122003
-0.000114777
-0.00122663
0.00385637
-0.000116806
-0.00389307
0.000153507
9.52886e-05
-0.00235595
0.00217435
8.6312e-05
0.00592176
-1.63641e-05
-0.0057551
-6.80366e-05
-8.22547e-05
0.00243448
-0.00258273
0.000105889
4.23625e-05
-0.00257252
0.000180613
0.0024872
0.000464306
0.00192298
4.71979e-05
5.07579e-05
0.00611072
-0.000119925
-0.000119794
-0.000143811
-0.0025896
0.000160891
1.08767e-06
-0.0019424
-0.000116459
0.00205777
-0.00455164
-0.000951403
0.00470159
0.000801455
0.002027
-0.000166636
-0.00259077
9.1012e-05
-0.00547122
0.00127789
-0.00121739
0.00541072
0.00129299
-0.0055173
-0.00124691
0.00399122
-1.72157e-05
-9.93251e-06
-0.00396408
1.28123e-05
0.00398022
-1.80697e-06
0.00351681
6.44159e-05
-8.69185e-05
-0.00349431
6.95256e-05
0.0035255
-7.82124e-05
-0.00364812
8.07019e-05
0.00359589
-2.84667e-05
0.000113734
-0.00372339
-3.84647e-05
0.00437761
0.000212993
-0.00447687
0.00997721
0.00111658
-0.0100845
-0.00100931
-0.0103489
0.00137645
-0.00127884
0.0102513
0.00951513
0.00081472
-0.00962758
-0.000702272
0.00102905
-0.000913223
0.00986139
0.00429186
0.000166455
0.0048643
0.000856879
-0.00481845
0.0107888
0.00189396
-0.0108777
-0.00180505
-0.0111501
0.0022611
-0.00217476
0.0110638
0.00146259
-0.0104673
-0.00134428
0.0017783
-0.00168564
0.0106962
0.00497798
0.000876826
0.00412667
-0.00027152
0.000256263
-0.00411141
-0.00028001
0.00414684
0.000259838
0.00416159
-0.000129422
0.000100343
-0.00413251
-0.000111483
0.00416857
0.000104509
-0.00280572
4.31075e-05
0.00281981
-5.72038e-05
5.43045e-05
-0.00281515
-4.4871e-05