/*--------------------------------*- C++ -*----------------------------------*\
| =========                 |                                                 |
| \\      /  F ield         | OpenFOAM: The Open Source CFD Toolbox           |
|  \\    /   O peration     | Version:  5.x                                   |
|   \\  /    A nd           | Web:      www.OpenFOAM.org                      |
|    \\/     M anipulation  |                                                 |
\*---------------------------------------------------------------------------*/
FoamFile
{
    version     2.0;
    format      ascii;
    class       volScalarField;
    location    "2287";
    object      pSat;
}
// * * * * * * * * * * * * * * * * * * * * * * * * * * * * * * * * * * * * * //

dimensions      [0 2 -2 0 0 0 0];

internalField   nonuniform List<scalar> 
6584
(
697.948
697.948
697.948
697.948
697.948
697.948
697.948
697.948
697.948
697.948
697.948
697.948
697.948
697.948
697.948
697.948
697.948
697.948
697.948
697.948
697.948
697.948
697.948
697.948
697.948
697.948
697.948
697.948
697.948
697.948
697.948
697.948
697.948
697.948
697.948
697.948
697.948
697.948
697.948
697.948
697.948
697.948
697.948
697.948
697.948
697.948
697.948
697.948
697.948
697.948
697.948
697.948
697.948
697.948
697.948
697.948
697.948
697.948
697.948
697.948
697.948
697.948
697.948
697.948
697.948
697.948
697.948
697.948
697.948
697.948
697.948
697.948
697.948
697.948
697.948
697.948
697.948
697.948
697.948
697.948
697.948
697.948
697.948
697.948
697.948
697.948
697.948
697.948
697.948
697.948
697.948
697.948
697.948
697.948
697.948
697.948
697.948
697.948
697.948
697.948
697.948
697.948
697.948
697.948
697.948
697.948
697.948
697.948
697.948
697.948
697.948
697.948
697.948
697.948
697.948
697.948
697.948
697.948
697.948
697.948
697.948
697.948
697.948
697.948
697.948
697.948
697.948
697.948
697.948
697.948
697.948
697.948
697.948
697.948
697.948
697.948
697.948
697.948
697.948
697.948
697.948
697.948
697.948
697.948
697.948
697.948
697.948
697.948
697.948
697.948
697.948
697.948
697.948
697.948
697.948
697.948
697.948
697.948
697.948
697.948
697.948
697.948
697.948
697.948
697.948
697.948
697.948
697.948
697.948
697.948
697.948
697.948
697.948
697.948
697.948
697.948
697.948
697.948
697.948
697.948
697.948
697.948
697.948
697.948
697.948
697.948
697.948
697.948
697.948
697.948
697.948
697.948
697.948
697.948
697.948
697.948
697.948
697.948
697.948
697.948
697.948
697.948
697.948
697.948
697.948
697.948
697.948
697.948
697.948
697.948
697.948
697.948
697.948
697.948
697.948
697.948
697.948
697.948
697.948
697.948
697.948
697.948
697.948
697.948
697.948
697.948
697.946
697.948
697.948
697.948
697.948
697.948
697.948
697.948
697.948
697.948
697.948
697.948
697.948
697.948
697.948
697.948
697.948
697.948
697.948
697.948
697.948
697.948
697.948
697.944
697.948
697.948
697.948
697.948
697.948
697.948
697.948
697.948
697.948
697.948
697.948
697.948
697.948
697.948
697.948
697.948
697.948
697.948
697.948
697.948
697.948
697.948
697.942
697.948
697.948
697.948
697.948
697.948
697.948
697.948
697.948
697.948
697.948
697.948
697.948
697.948
697.948
697.948
697.948
697.948
697.948
697.948
697.948
697.948
697.948
697.941
697.948
697.948
697.948
697.948
697.948
697.948
697.948
697.948
697.948
697.948
697.948
697.948
697.948
697.948
697.948
697.948
697.948
697.948
697.948
697.948
697.948
697.948
631.339
697.94
697.948
697.948
697.948
697.948
697.948
697.948
697.948
697.948
697.948
697.948
697.948
697.948
697.948
697.948
697.948
697.948
697.948
697.948
697.948
697.948
697.948
697.948
677.53
697.924
697.948
697.948
697.948
697.948
697.948
697.948
697.948
697.948
697.948
697.948
697.948
697.948
697.948
697.948
697.948
697.948
697.948
697.948
697.948
697.948
697.948
697.948
687.771
697.476
697.943
697.948
697.948
697.948
697.948
697.948
697.948
697.948
697.948
697.948
697.948
697.948
697.948
697.948
697.948
697.948
697.948
697.948
697.948
697.948
697.948
697.948
690.274
695.81
697.881
697.946
697.948
697.948
697.948
697.948
697.948
697.948
697.948
697.948
697.948
697.948
697.948
697.948
697.948
697.948
697.948
697.948
697.948
697.948
697.948
697.948
692.588
694.413
697.721
697.915
697.944
697.948
697.948
697.948
697.948
697.948
697.948
697.948
697.948
697.948
697.948
697.948
697.948
697.948
697.948
697.948
697.948
697.948
697.948
697.923
693.435
694.934
697.346
697.836
697.928
697.945
697.948
697.948
697.948
697.948
697.948
697.948
697.948
697.948
697.948
697.948
697.948
697.948
697.948
697.948
697.948
697.948
697.948
697.927
694.209
694.808
696.981
697.714
697.896
697.937
697.946
697.948
697.948
697.948
697.948
697.948
697.948
697.948
697.948
697.948
697.948
697.948
697.948
697.948
697.948
697.948
697.948
697.93
694.846
694.815
696.653
697.558
697.845
697.923
697.942
697.947
697.948
697.948
697.948
697.948
697.948
697.948
697.948
697.948
697.948
697.948
697.948
697.948
697.948
697.948
697.948
697.933
695.372
694.912
696.38
697.381
697.774
697.899
697.935
697.945
697.948
697.948
697.948
697.948
697.948
697.948
697.948
697.948
697.948
697.948
697.948
697.948
697.948
697.948
697.948
697.936
695.807
695.069
696.168
697.194
697.684
697.865
697.924
697.942
697.947
697.948
697.948
697.948
697.948
697.948
697.948
697.948
697.948
697.948
697.948
697.948
697.948
697.948
697.948
697.938
696.168
695.261
696.018
697.009
697.578
697.819
697.907
697.936
697.945
697.947
697.948
697.948
697.948
697.948
697.948
697.948
697.948
697.948
697.948
697.948
697.948
697.948
697.948
697.939
696.468
695.472
695.926
696.836
697.461
697.762
697.883
697.927
697.942
697.947
697.948
697.948
697.948
697.948
697.948
697.948
697.948
697.948
697.948
697.948
697.948
697.948
697.948
697.941
696.716
695.688
695.886
696.682
697.336
697.693
697.852
697.915
697.937
697.945
697.947
697.948
697.948
697.948
697.948
697.948
697.948
697.948
697.948
697.948
697.948
697.948
697.948
697.942
696.922
695.901
695.889
696.552
697.21
697.615
697.813
697.898
697.931
697.943
697.947
697.948
697.948
697.948
697.948
697.948
697.948
697.948
697.948
697.948
697.948
697.948
697.948
697.943
697.093
696.107
695.926
696.448
697.087
697.53
697.767
697.876
697.922
697.939
697.945
697.947
697.948
697.948
697.948
697.948
697.948
697.948
697.948
697.948
697.948
697.948
697.948
697.944
697.235
696.301
695.99
696.371
696.97
697.438
697.713
697.849
697.909
697.934
697.943
697.947
697.948
697.948
697.948
697.948
697.948
697.948
697.948
697.948
697.948
697.948
697.948
697.945
697.354
696.481
696.075
696.321
696.863
697.344
697.652
697.816
697.894
697.927
697.941
697.946
697.948
697.948
697.948
697.948
697.948
697.948
697.948
697.948
697.948
697.948
697.948
697.945
697.453
696.647
696.173
696.296
696.768
697.25
697.586
697.778
697.874
697.918
697.937
697.944
697.948
697.948
697.948
697.948
697.948
697.948
697.948
697.948
697.948
697.948
697.948
697.946
697.535
696.798
696.281
696.293
696.689
697.157
697.515
697.734
697.851
697.907
697.932
697.942
697.948
697.948
697.948
697.948
697.948
697.948
697.948
697.948
697.948
697.948
697.948
697.946
697.604
696.935
696.393
696.31
696.625
697.069
697.441
697.685
697.823
697.893
697.925
697.939
697.948
697.948
697.948
697.948
697.948
697.948
697.948
697.948
697.948
697.948
697.948
697.947
697.661
697.058
696.507
696.344
696.578
696.987
697.365
697.632
697.791
697.876
697.917
697.935
697.948
697.948
697.948
697.948
697.948
697.948
697.948
697.948
697.948
697.948
697.948
697.947
697.709
697.168
696.62
696.391
696.546
696.913
697.29
697.575
697.755
697.855
697.906
697.93
697.948
697.948
697.948
697.948
697.948
697.948
697.948
697.948
697.948
697.948
697.948
697.947
697.748
697.266
696.73
696.45
696.53
696.848
697.216
697.515
697.714
697.831
697.893
697.924
697.948
697.948
697.948
697.948
697.943
697.948
697.948
697.938
697.942
697.948
697.936
697.938
697.948
697.934
697.936
697.948
687.406
620.756
697.93
697.934
697.948
697.948
697.948
697.948
697.948
697.948
697.948
697.936
697.948
697.948
697.948
697.948
697.948
697.948
697.948
697.948
697.948
697.948
697.61
697.821
697.946
697.948
697.948
697.948
697.948
697.948
697.948
697.948
697.948
695.206
696.777
697.944
697.948
697.948
697.948
697.948
697.948
697.948
697.948
697.948
695.888
694.638
697.942
697.948
697.948
696.838
696.955
697.941
697.948
697.948
697.181
697.068
697.948
696.522
688.573
678.823
697.885
697.929
697.948
697.948
697.948
697.948
697.948
697.948
697.948
697.833
697.935
697.948
697.941
697.886
697.948
697.948
697.948
697.948
697.948
697.948
697.948
696.872
697.6
697.946
697.712
697.46
697.875
697.72
697.946
697.948
697.948
697.948
697.948
697.948
697.948
697.948
694.679
695.068
697.94
697.06
696.983
697.447
697.097
697.94
697.948
697.948
697.948
697.948
696.919
696.009
697.937
697.267
697.551
696.982
697.243
697.937
697.948
697.948
697.948
697.948
697.049
696.873
697.56
697.611
697.935
697.948
697.948
697.948
697.948
697.264
697.201
697.948
697.948
697.948
697.842
697.948
697.948
697.948
697.948
697.948
697.948
697.948
676.841
671.42
697.939
697.948
697.948
697.948
697.948
697.948
697.943
697.948
697.948
697.948
697.948
697.857
697.879
697.937
697.942
697.881
697.909
670.418
661.464
697.935
697.617
697.645
697.943
697.945
697.648
697.667
697.933
697.948
697.948
697.948
697.948
697.948
697.948
697.806
697.946
697.867
697.948
697.887
697.947
697.686
697.726
696.213
696.257
695.379
695.175
696.714
664.012
697.15
682.732
677.547
680.199
683.729
697.118
697.948
697.948
697.948
697.948
697.948
697.948
697.948
697.948
697.948
697.948
697.948
697.894
697.901
697.948
697.948
697.948
697.948
697.169
697.209
697.521
697.915
697.923
697.905
697.912
697.515
697.802
697.935
697.941
697.926
697.933
697.782
697.948
697.948
697.948
697.948
693.453
693.717
696.713
697.888
697.89
697.887
697.887
696.672
697.339
697.897
697.903
697.891
697.895
697.322
697.859
697.948
697.901
697.888
697.924
697.903
697.948
697.948
697.888
697.948
696.598
696.53
697.076
697.887
697.887
697.888
697.887
697.113
697.928
697.936
697.948
697.935
697.925
697.942
697.936
697.948
697.911
697.927
696.985
674.146
679.579
664.743
673.01
696.96
659.224
697.944
697.945
696.268
697.945
697.944
649.427
684.445
683.38
697.94
697.948
697.948
697.948
697.948
697.948
697.948
661.377
695.8
696.781
697.948
697.948
697.948
697.948
697.734
697.754
673.559
697.943
697.944
697.768
697.793
685.46
685.185
573.174
697.948
697.948
697.948
697.948
697.948
697.948
697.948
697.948
697.948
697.627
697.526
697.776
697.948
697.948
697.948
697.948
697.948
697.948
695.718
696.605
695.635
694.484
638.674
631.174
697.134
684.179
688.286
697.948
697.948
695.384
697.948
697.948
697.948
697.857
697.616
697.554
697.928
697.946
697.948
697.942
697.946
697.921
697.948
697.948
697.948
697.948
697.948
697.948
697.948
697.948
697.948
697.948
697.948
697.948
697.948
697.948
697.948
696.984
697.358
697.603
697.856
697.861
697.813
697.823
697.486
697.948
697.948
697.948
697.948
697.948
697.948
697.948
697.948
697.948
697.948
697.948
697.948
694.044
694.47
696.912
697.767
697.771
697.73
697.769
696.871
697.41
697.801
697.81
697.773
697.778
697.212
696.789
687.637
689.256
687.364
685.736
696.252
697.508
697.888
697.888
697.889
697.888
697.52
697.948
697.945
697.942
697.947
697.946
697.948
697.858
697.868
697.948
697.947
697.947
697.846
697.855
650.97
641.062
697.92
697.944
697.936
631.337
674.721
633.655
637.079
636.583
674.061
697.948
697.948
697.948
697.948
697.948
697.85
697.861
697.739
697.735
697.94
697.801
697.789
697.827
697.804
697.94
697.89
697.895
667.027
665.406
697.944
697.857
697.837
697.796
697.81
697.761
697.912
697.935
697.861
697.903
697.743
697.633
697.768
695.805
696.531
695.598
694.539
668.72
688.305
687.069
689.585
688.705
667.903
684.177
683.367
686.727
684.875
680.63
648.826
654.553
640.194
646.249
679.847
627.489
629.814
697.948
697.948
697.948
697.948
697.948
697.948
697.948
697.948
697.948
697.948
697.948
697.948
697.948
697.948
697.948
697.746
697.634
697.866
697.635
697.779
697.844
697.653
697.757
697.92
697.822
697.758
697.948
697.948
697.948
697.948
697.948
697.948
697.948
697.948
697.948
697.948
697.948
697.948
697.948
697.948
697.948
697.948
697.948
697.948
697.948
697.948
697.948
697.948
697.948
697.948
697.948
697.049
697.344
697.841
697.852
697.562
697.495
697.827
697.837
697.948
697.948
697.948
697.945
697.945
697.943
697.944
697.945
697.946
697.945
697.945
697.948
697.948
697.948
697.947
697.946
697.947
697.947
697.944
697.944
697.946
697.946
697.948
697.948
697.948
693.539
694.262
697.765
697.766
696.859
696.793
697.768
697.765
697.79
697.798
697.395
697.239
697.78
697.787
697.87
697.887
697.948
697.948
697.948
697.948
697.878
697.916
697.948
697.948
697.948
697.948
697.912
697.947
697.947
697.946
697.947
697.895
697.948
697.948
697.947
697.948
697.896
686.636
687.296
696.747
680.683
683.767
682.915
680.184
684.075
696.307
684.877
685.784
697.932
697.727
697.727
697.779
697.731
697.933
697.737
697.918
697.727
697.92
669.164
690.665
689.873
691.729
690.933
669.702
656.863
658.979
697.872
697.883
697.818
697.842
664.578
654.09
697.948
697.948
697.948
697.932
697.737
697.731
697.948
697.948
697.948
697.948
697.948
697.948
697.948
697.948
697.948
697.948
697.948
697.948
697.616
697.352
697.341
695.369
696.701
697.948
697.948
697.948
692.411
691.977
694.581
689.566
690.231
697.046
697.948
697.948
697.948
697.948
697.948
697.948
697.884
697.839
697.925
697.948
697.948
697.948
696.896
697.313
697.259
697.575
697.638
697.643
697.469
697.87
697.877
697.736
697.948
697.948
697.948
697.948
697.948
697.948
694.642
693.075
692.824
694.954
697.022
697.511
697.521
697.434
697.627
697.633
697.53
697.539
697.136
697.948
697.948
697.948
696.952
697.733
697.731
697.585
697.889
697.889
697.671
697.672
697.948
697.948
697.948
697.671
697.671
688.732
690.103
697.252
697.859
697.81
697.857
697.816
697.825
697.876
697.883
697.796
697.806
697.84
697.832
697.906
653.555
651.412
662.715
697.872
697.861
697.944
697.948
697.948
697.948
697.747
697.816
697.878
697.902
697.733
697.74
697.939
697.947
697.935
697.534
697.513
697.657
697.748
697.656
697.625
696.055
696.326
692.22
692.438
695.497
694.918
691.052
691.677
670.229
670.947
675.664
674.978
664.742
672.197
673.42
697.074
690.555
691.456
697.948
697.948
697.948
697.948
697.948
697.948
697.948
697.948
697.948
697.948
697.948
697.948
697.948
697.948
697.948
697.948
697.948
697.948
697.948
697.637
697.695
697.948
697.948
697.948
697.948
697.948
697.142
697.261
697.9
697.907
697.834
697.742
697.884
697.892
697.948
697.948
697.948
693.25
693.916
697.593
697.599
697.357
697.295
697.579
697.587
697.864
697.899
697.934
697.935
697.922
697.924
697.884
697.948
697.948
697.948
697.906
697.905
697.927
697.928
697.889
697.921
697.922
697.906
697.908
697.739
697.735
696.967
697.172
697.745
697.742
697.931
697.948
697.948
697.948
697.948
697.929
676.588
690.58
691.956
691.173
690.89
677.454
666.714
677.763
676.672
656.668
654.65
662.273
697.715
697.726
697.732
697.645
697.946
697.891
697.877
697.901
697.894
697.943
649.799
644.79
656.357
662.832
685.202
697.948
697.948
697.948
697.735
697.741
697.694
697.674
675.81
697.782
697.763
697.761
697.76
697.762
697.789
595.829
661.507
667.154
697.948
697.948
697.948
697.41
697.376
697.621
697.474
697.592
697.674
697.56
697.587
695.557
696.643
687.741
688.446
687.822
687.468
694.523
691.568
691.181
636.787
629.574
630.02
629.701
629.854
634.655
697.607
697.722
697.728
697.704
697.716
697.594
696.932
697.513
697.217
697.13
697.477
697.648
697.653
693.376
693.299
694.476
694.698
697.488
697.5
696.967
697.617
697.622
697.422
697.177
697.548
697.557
687.162
689.436
688.686
689.874
689.754
686.666
697.674
697.678
697.672
697.671
697.849
697.777
697.774
637.449
636.307
647.62
636.852
640.483
631.311
633.849
644.172
697.89
697.867
697.902
697.852
697.934
697.942
697.946
697.902
697.92
697.897
632.311
651.878
650.726
655.585
653.627
633.574
641.566
646.613
643.984
649.951
648.883
639.597
697.948
697.948
697.948
697.948
697.948
697.948
697.948
697.849
697.871
697.834
697.838
697.738
697.737
697.868
697.872
697.794
697.789
697.789
697.886
697.793
697.783
697.797
697.901
697.817
697.799
653.163
655.444
668.421
646.588
647.849
643.257
644.487
663.887
650.089
650.634
697.799
697.755
697.758
697.739
697.753
697.803
697.842
697.858
697.789
697.662
697.755
697.823
697.399
697.642
697.496
697.454
697.493
697.522
697.468
697.475
695.918
696.417
689.901
690.341
688.946
689.407
695.559
692.489
692.461
690.854
690.83
694.684
690.535
672.308
670.604
666.339
674.49
673.788
683.737
675.372
674.74
678.23
676.749
683.512
686.294
678.261
678.913
675.285
676.882
685.651
674.019
642.055
658.653
657.312
626.23
627.445
697.948
697.948
697.948
697.948
697.948
697.948
697.948
697.948
697.948
697.948
697.948
697.948
697.948
697.948
697.948
697.948
697.948
697.948
697.948
697.948
697.948
697.726
697.797
697.813
697.741
697.765
697.653
697.548
697.628
697.795
697.718
697.688
697.786
697.724
697.815
697.68
697.664
697.628
697.704
697.948
697.948
697.948
697.948
697.948
697.948
697.948
697.948
697.948
697.948
697.948
697.948
697.948
697.948
697.948
697.948
697.948
697.948
697.948
697.948
697.948
697.948
697.948
697.948
697.948
697.948
697.948
697.948
697.948
697.948
697.948
697.948
697.948
697.948
697.948
697.948
697.948
697.129
697.325
697.945
697.941
697.942
697.935
697.937
697.945
697.942
697.942
697.942
697.943
697.946
697.924
697.929
697.925
697.923
697.946
697.945
697.934
697.934
697.933
697.934
697.945
697.947
697.947
697.947
697.947
697.944
697.944
697.946
697.946
693.291
694.076
697.375
697.605
697.611
697.564
697.572
697.266
697.868
697.93
697.933
697.895
697.877
697.926
697.928
697.913
697.909
697.947
697.935
697.934
697.947
697.932
697.929
697.934
697.933
697.947
697.927
697.919
697.917
697.919
697.892
697.906
697.912
686.996
691.869
691.619
692.191
692.034
687.121
681.773
682.958
681.846
679.632
679.199
680.609
684.48
690.297
690.019
691.223
690.737
684.811
697.726
697.823
697.828
697.816
697.82
697.727
697.761
697.854
697.863
697.835
697.844
697.742
697.729
697.759
697.758
697.77
697.765
697.747
697.803
697.811
697.768
697.786
697.757
679.268
678.662
668.39
655.837
661.073
697.69
697.708
697.828
697.745
697.729
697.769
697.761
697.836
697.667
697.672
641.015
638.742
697.948
697.948
697.948
697.948
697.948
697.948
697.948
697.948
697.948
697.948
697.948
697.948
697.948
697.948
697.948
697.948
697.948
697.948
697.948
697.948
697.948
697.948
697.948
697.948
697.948
697.948
697.948
697.948
697.948
697.948
697.948
697.948
697.948
697.948
697.948
697.948
697.948
697.948
697.948
697.948
697.948
697.948
697.948
697.948
697.948
697.948
697.948
697.948
697.948
697.948
697.948
697.948
697.948
697.948
697.948
697.948
697.948
697.948
697.948
697.948
697.948
697.948
697.948
697.948
697.948
697.948
697.948
697.948
697.948
697.948
697.948
697.948
697.948
697.948
697.948
697.948
697.948
697.948
697.948
697.948
697.948
697.948
697.948
697.948
697.948
697.948
697.948
697.945
697.948
697.948
697.948
697.948
697.948
697.948
697.948
697.948
697.948
697.948
697.948
697.948
697.948
697.948
697.943
697.948
697.948
697.948
697.948
697.948
697.948
697.948
697.948
697.948
697.948
697.948
697.942
697.948
697.948
697.948
697.948
697.948
697.948
697.948
697.948
697.94
697.947
697.947
697.948
697.948
697.948
697.948
697.948
697.948
697.948
697.948
697.948
697.948
697.948
697.948
654.817
670.704
680.833
697.934
697.948
697.948
697.948
697.948
697.948
697.948
697.948
697.948
697.948
697.948
697.948
697.948
697.564
697.336
685.859
696.017
697.755
697.646
697.944
697.948
697.948
697.948
697.948
697.948
697.948
697.948
697.948
697.83
697.62
688.739
690.386
695.05
696.646
697.774
697.9
697.948
697.948
697.948
697.948
697.947
697.945
697.948
697.948
697.948
697.948
697.948
697.948
697.944
697.928
697.924
697.945
697.942
697.947
697.948
697.948
697.948
697.939
697.911
697.91
697.922
697.918
697.942
697.948
697.948
697.948
697.937
697.91
697.916
697.91
697.91
697.938
697.935
697.916
697.916
697.916
697.916
697.936
697.948
697.948
697.948
677.388
697.278
697.346
623.106
623.517
606.421
697.916
697.915
697.933
697.948
697.948
697.948
697.948
697.948
697.948
697.948
697.948
697.948
697.948
697.948
697.948
697.948
697.948
697.948
697.948
697.948
697.948
697.948
697.948
697.948
697.948
697.948
697.948
697.948
697.948
697.941
697.922
697.895
697.948
697.948
697.948
697.948
697.948
697.948
697.948
697.948
697.948
697.948
697.948
697.948
697.948
697.948
697.948
697.948
697.948
697.948
697.948
697.948
697.948
697.948
697.948
697.948
697.948
697.948
697.948
697.948
697.948
697.948
697.761
697.725
697.804
697.948
697.948
697.947
697.948
697.948
697.948
697.948
697.948
697.948
697.948
697.948
697.948
697.948
697.948
697.948
697.948
697.948
697.948
697.948
697.948
697.948
697.948
697.948
697.948
697.948
697.948
697.948
697.948
697.948
697.945
697.948
697.948
697.948
697.948
697.948
697.948
697.948
697.948
697.948
697.948
697.948
697.948
697.948
697.948
697.948
697.948
697.948
697.948
697.948
697.948
697.948
697.948
697.948
697.948
695.774
692.715
693.045
697.948
697.948
697.943
697.948
697.948
697.948
697.948
697.948
697.948
696.8
692.549
693.075
695.652
695.731
696.987
697.947
697.947
697.942
697.948
697.948
697.948
697.948
697.948
697.948
697.166
695.808
695.872
695.404
695.476
697.085
697.948
697.948
697.948
695.724
697.948
697.948
697.944
697.945
691.518
688.274
694.876
666.917
697.908
697.492
697.19
697.731
697.548
697.925
697.948
697.948
697.948
697.948
697.948
697.948
697.948
697.948
697.948
697.948
697.948
697.948
697.948
697.948
697.948
697.948
697.948
697.948
697.842
697.79
697.78
697.93
697.924
697.932
697.948
697.948
697.948
697.938
697.944
697.945
697.923
697.927
697.904
697.948
697.948
697.948
697.948
697.948
697.948
697.948
697.948
697.948
697.948
697.948
697.948
697.948
697.948
697.948
697.948
697.948
697.948
697.935
697.93
697.945
697.698
697.775
697.785
697.843
697.913
697.918
697.792
697.798
697.726
697.947
697.94
697.936
697.948
697.948
697.948
697.948
697.948
697.948
697.948
697.948
697.948
697.948
697.948
697.948
697.948
697.948
697.948
697.948
697.948
697.948
697.948
697.948
697.948
697.913
697.911
697.939
697.514
697.508
696.968
697.941
697.917
697.914
697.948
697.948
697.948
697.948
697.948
697.948
697.948
697.948
697.948
697.948
697.948
697.948
696.878
695.457
695.562
693.413
693.711
696.115
697.91
697.91
697.937
697.327
697.757
697.754
697.773
697.77
697.541
696.961
697.52
697.517
697.75
697.747
697.185
697.937
697.91
697.91
697.948
697.948
697.948
697.948
697.948
697.948
697.948
697.948
697.948
697.948
697.948
697.948
697.029
695.24
695.324
693.239
693.701
696.904
697.569
697.778
697.775
697.89
697.889
697.592
697.936
697.916
697.916
697.948
697.948
697.948
697.948
697.948
697.948
697.948
697.948
697.948
697.265
690.463
691.176
697.948
697.948
697.948
697.948
697.948
697.948
697.948
697.948
697.948
697.948
697.945
697.947
697.948
697.948
697.948
697.948
697.948
697.948
697.948
697.948
697.948
697.948
697.948
697.948
697.948
697.948
697.948
676.107
666.533
667.702
659.633
661.331
672.426
697.946
697.946
697.94
697.948
697.948
697.948
697.948
697.948
697.948
697.948
697.948
697.948
697.948
697.948
697.948
697.948
697.948
697.948
697.948
697.948
697.948
697.948
697.948
697.948
697.948
697.948
697.948
697.938
697.917
697.915
697.927
697.926
697.941
669.467
656.761
658.02
697.916
697.916
697.935
697.631
697.89
697.89
697.875
697.89
697.635
697.943
697.93
697.929
697.937
697.936
697.945
697.655
697.875
697.875
697.875
697.875
697.658
697.933
697.915
697.914
697.948
697.948
697.948
697.948
697.948
697.948
697.948
697.948
697.948
697.948
697.948
697.948
697.948
697.948
697.948
697.948
697.948
697.948
697.943
697.929
697.944
697.943
697.948
697.948
697.915
697.926
697.903
697.948
697.948
697.946
691.669
692.336
696.758
697.127
696.1
696.168
682.077
674.619
675.545
668.798
669.753
678.195
681.873
691.676
691.435
692.119
691.903
682.339
697.102
695.547
695.614
697.948
697.948
697.948
697.948
697.948
697.948
697.948
697.948
697.948
697.948
697.948
697.948
697.948
697.948
697.948
697.861
697.849
697.885
697.907
697.881
697.871
697.948
697.948
697.948
697.948
697.948
697.948
697.948
697.948
697.948
697.948
697.948
697.948
697.679
697.686
697.529
697.917
697.892
697.888
697.901
697.897
697.92
697.907
697.877
697.873
697.884
697.881
697.91
697.509
697.668
697.673
697.852
697.861
697.816
697.937
697.927
697.923
697.933
697.93
697.939
697.928
697.91
697.906
697.919
697.915
697.93
697.764
697.831
697.842
697.948
697.948
697.948
697.948
697.948
697.948
697.948
697.948
697.948
697.948
697.948
697.948
697.448
697.456
696.762
697.888
697.848
697.848
697.85
697.849
697.889
697.887
697.848
697.848
697.847
697.847
697.887
696.684
697.449
697.446
697.899
697.863
697.861
697.87
697.866
697.901
697.892
697.853
697.852
697.858
697.856
697.894
697.948
697.948
697.948
697.922
697.941
697.942
697.936
697.937
697.905
697.948
697.948
697.948
697.948
697.948
697.948
694.803
694.933
696.655
696.451
694.441
694.633
697.561
697.549
697.034
697.887
697.848
697.849
697.848
697.848
697.887
697.887
697.85
697.851
697.849
697.85
697.887
697.14
697.578
697.57
697.93
697.893
697.891
697.913
697.909
697.935
697.948
697.948
697.948
697.934
697.945
697.945
697.942
697.943
697.926
697.94
697.948
697.948
697.948
697.948
697.939
697.948
697.948
697.948
697.913
697.848
697.844
697.887
697.882
697.925
695.052
695.148
697.008
674.982
682.793
682.268
686.141
685.699
678.945
681.634
680.943
671.683
696.933
694.83
694.946
697.944
697.91
697.903
697.918
697.912
697.945
697.945
697.938
697.937
683.435
665.084
672.304
676.487
677.461
683.998
697.948
697.948
697.948
697.948
697.948
697.948
697.948
697.948
697.948
697.948
697.948
697.948
657.142
656.01
654.716
696.186
688.469
684.23
690.821
690.93
696.415
697.948
697.948
697.948
697.948
697.948
697.948
697.948
697.948
697.948
692.987
691.339
673.536
697.943
697.893
697.874
697.903
697.898
697.943
686.344
664.048
657.739
673.938
679.595
685.795
576.212
594.145
604.554
697.948
697.948
697.948
697.948
697.948
697.948
697.948
697.948
697.948
697.948
697.948
697.948
697.948
697.948
697.948
697.948
697.948
697.948
697.948
697.948
697.948
697.948
697.948
697.948
697.948
697.948
697.948
697.788
697.701
697.687
697.948
697.948
697.948
697.948
697.948
697.948
697.948
697.948
697.948
697.948
697.948
697.948
697.948
697.948
697.948
697.948
697.948
697.948
692.436
692.515
695.69
695.679
695.743
697.15
687.413
692.528
692.324
692.939
692.734
687.846
697.948
697.948
697.948
697.948
697.948
697.948
695.001
697.934
697.936
697.948
697.948
697.948
697.948
697.948
697.948
697.948
697.948
697.948
697.806
697.798
697.85
697.939
697.941
697.934
697.947
697.945
697.944
697.947
697.946
697.947
697.943
697.938
697.935
697.942
697.94
697.945
697.912
697.931
697.935
697.948
697.948
697.948
697.948
697.948
697.948
697.948
697.948
697.948
697.948
697.948
697.948
697.948
697.948
697.948
697.948
697.948
697.948
697.948
697.948
697.948
697.948
697.948
697.948
697.948
697.948
697.948
697.948
697.948
697.948
697.948
697.948
697.948
697.948
697.948
697.948
697.948
697.948
697.948
697.948
697.948
697.948
697.948
697.948
697.948
697.735
697.759
697.666
697.859
697.848
697.834
697.816
697.755
697.751
697.765
697.76
697.82
697.948
697.948
697.948
697.948
697.948
697.948
697.948
697.948
697.948
697.948
697.948
697.948
697.948
697.948
697.948
697.948
697.948
697.948
697.948
697.948
697.948
697.948
697.948
697.948
697.948
697.948
697.948
697.948
697.948
697.948
697.948
697.948
697.948
697.948
697.948
697.948
697.769
697.68
697.677
697.686
697.683
697.77
697.679
697.683
697.771
696.933
697.497
697.485
697.804
697.737
697.733
697.746
697.742
697.807
697.775
697.692
697.689
697.699
697.696
697.776
695.23
695.343
696.835
688.175
692.642
692.39
693.141
692.905
688.77
696.194
693.896
694.013
697.762
697.759
697.495
697.888
697.853
697.853
697.851
697.852
697.888
697.889
697.855
697.856
697.854
697.855
697.888
697.53
697.768
697.765
697.948
697.948
697.948
697.944
697.948
697.948
697.948
697.948
697.944
697.947
697.948
697.948
697.948
697.948
697.947
697.948
697.948
697.948
697.861
697.79
697.786
697.798
697.793
697.864
697.948
697.948
697.948
697.947
697.948
697.948
697.948
697.948
697.947
697.783
697.78
697.852
697.943
697.936
697.924
664.535
665.444
675.392
673.323
662.744
663.72
697.948
697.948
697.948
697.948
697.948
697.948
697.948
697.948
697.948
697.921
697.919
697.939
697.798
697.876
697.878
697.817
697.888
697.893
697.881
697.884
697.809
697.941
697.924
697.922
697.933
697.932
697.943
697.853
697.904
697.907
697.897
697.901
697.847
697.921
697.898
697.886
697.923
697.911
697.928
697.874
697.821
697.807
697.872
697.843
697.889
697.678
697.67
697.759
687.861
680.848
681.809
679.359
679.966
687.434
689.308
683.574
684.039
682.603
683.144
689.028
672.673
673.671
681.376
651.113
664.206
662.796
666.676
665.467
652.91
661.323
659.926
643.887
679.015
670.682
671.665
697.948
697.948
697.948
697.948
697.948
697.948
697.948
697.948
697.948
697.948
697.948
697.948
697.948
697.948
697.948
697.948
697.948
697.948
697.948
697.948
697.948
697.948
697.948
697.948
697.948
697.948
697.948
697.948
697.948
697.948
697.876
697.833
697.817
697.9
697.891
697.914
697.795
697.852
697.868
697.825
697.837
697.772
697.948
697.948
697.948
697.948
697.948
697.948
697.948
697.948
697.948
697.948
697.948
697.948
697.948
697.948
697.948
697.948
697.948
697.948
697.948
697.948
697.948
697.948
697.948
697.948
697.948
697.948
697.948
697.844
697.8
697.793
697.82
697.808
697.848
697.541
697.696
697.712
697.658
697.663
697.504
697.83
697.775
697.77
697.786
697.781
697.834
697.948
697.948
697.948
697.948
697.948
697.948
697.948
697.948
697.948
697.948
697.948
697.948
697.948
697.948
697.948
697.948
697.948
697.948
697.948
697.948
697.948
697.948
697.948
697.948
697.948
697.948
697.948
697.765
697.67
697.669
697.674
697.672
697.766
696.809
697.466
697.477
697.47
697.458
696.724
697.766
697.672
697.676
697.669
697.67
697.765
697.792
697.721
697.717
697.729
697.725
697.795
697.782
697.706
697.703
697.714
697.71
697.785
697.948
697.945
697.945
697.946
697.945
697.948
697.948
697.943