/*--------------------------------*- C++ -*----------------------------------*\
| =========                 |                                                 |
| \\      /  F ield         | OpenFOAM: The Open Source CFD Toolbox           |
|  \\    /   O peration     | Version:  5.x                                   |
|   \\  /    A nd           | Web:      www.OpenFOAM.org                      |
|    \\/     M anipulation  |                                                 |
\*---------------------------------------------------------------------------*/
FoamFile
{
    version     2.0;
    format      ascii;
    class       volVectorField;
    location    "2287";
    object      U;
}
// * * * * * * * * * * * * * * * * * * * * * * * * * * * * * * * * * * * * * //

dimensions      [0 1 -1 0 0 0 0];

internalField   nonuniform List<vector> 
6584
(
(14.5021 3.87114 7.80711e-26)
(14.5005 3.86561 5.92123e-24)
(14.4994 3.86606 -1.78725e-29)
(14.4979 3.8694 -3.63443e-24)
(14.496 3.8776 0)
(14.4935 3.89196 0)
(14.4903 3.91478 0)
(14.4866 3.94782 -1.29717e-23)
(14.4828 3.99463 -2.35615e-23)
(14.4842 4.05013 0)
(14.4865 4.1047 -4.32319e-23)
(14.4924 4.14872 -5.17778e-23)
(14.5013 4.16676 9.01433e-26)
(14.5094 4.15208 -9.94794e-25)
(14.5137 4.11187 -1.21604e-24)
(14.5175 4.05896 2.87088e-23)
(14.5159 4.00594 2.05656e-23)
(14.5126 3.96174 1.7949e-24)
(14.5093 3.92837 7.7496e-24)
(14.5062 3.905 3.4745e-24)
(14.5038 3.88991 0)
(14.5019 3.88134 0)
(14.5007 3.87714 -2.99613e-24)
(14.4995 3.87734 -2.57275e-24)
(14.508 3.86049 -3.57469e-24)
(14.5025 3.85023 -2.70519e-23)
(14.4976 3.85035 -2.3432e-23)
(14.491 3.85547 0)
(14.4823 3.86966 5.82311e-24)
(14.4708 3.89539 7.47242e-24)
(14.4555 3.93745 1.24575e-23)
(14.4364 3.99973 -3.30243e-23)
(14.4142 4.093 -2.7205e-23)
(14.4039 4.20454 4.17465e-23)
(14.4105 4.31438 2.36585e-26)
(14.4425 4.40776 0)
(14.4957 4.4504 5.44135e-23)
(14.5482 4.4256 -9.70719e-24)
(14.5832 4.35034 -8.09182e-23)
(14.5869 4.24677 -2.10696e-23)
(14.5792 4.13763 -2.83176e-23)
(14.5624 4.04724 -3.51962e-23)
(14.5457 3.9789 -4.88576e-23)
(14.5307 3.93101 -2.81205e-23)
(14.5191 3.90011 -4.46867e-24)
(14.51 3.88249 -1.03864e-24)
(14.5038 3.8736 0)
(14.4984 3.87366 -1.90411e-24)
(14.5176 3.84642 -9.42087e-24)
(14.5072 3.83046 0)
(14.496 3.82867 1.68318e-24)
(14.4806 3.83291 -3.22695e-23)
(14.4605 3.84932 -1.42827e-23)
(14.4331 3.88129 0)
(14.3967 3.93581 0)
(14.3493 4.01948 7.33845e-23)
(14.2967 4.14427 -4.82518e-23)
(14.3218 4.25029 6.54172e-24)
(14.3289 4.40335 -6.67416e-24)
(14.3766 4.54439 -4.35514e-24)
(14.4708 4.6228 0)
(14.5726 4.60296 0)
(14.6396 4.508 -3.65384e-24)
(14.7165 4.40803 -4.61473e-23)
(14.6939 4.26066 0)
(14.6561 4.12346 -3.08579e-23)
(14.6146 4.02067 0)
(14.5771 3.94913 -1.35788e-23)
(14.5478 3.90355 -1.76143e-24)
(14.5252 3.87809 6.37989e-24)
(14.5095 3.86542 0)
(14.4967 3.86687 -1.99995e-24)
(14.5312 3.82804 -6.64553e-24)
(14.5156 3.8049 0)
(14.497 3.79919 1.35581e-24)
(14.4714 3.79929 0)
(14.4372 3.81313 0)
(14.3901 3.84487 0)
(14.3256 3.90324 2.87642e-22)
(14.2405 4.00177 8.44675e-23)
(14.1328 4.15533 -6.73174e-23)
(14.1459 4.30613 1.33474e-23)
(14.1237 4.57914 -9.52412e-24)
(14.2008 4.86036 -8.77519e-24)
(14.4081 5.03972 -5.87734e-26)
(14.649 5.01405 0)
(14.7998 4.81852 -8.19456e-23)
(14.8255 4.5465 0)
(14.8613 4.33507 0)
(14.7853 4.17761 1.95509e-23)
(14.7104 4.04378 -1.78713e-23)
(14.6403 3.95192 1.56032e-23)
(14.5862 3.89496 1.73289e-23)
(14.5449 3.86436 0)
(14.5161 3.84973 -2.72134e-25)
(14.4928 3.85503 -3.8775e-24)
(14.5497 3.8047 -3.49313e-24)
(14.5293 3.7728 -9.47223e-25)
(14.5034 3.76109 -3.84867e-24)
(14.4674 3.75332 -4.51111e-24)
(14.4186 3.7589 5.12952e-23)
(14.3502 3.78125 1.31249e-22)
(14.255 3.83151 4.41235e-22)
(14.1118 3.91305 -7.07483e-23)
(14.0295 4.07866 -4.50865e-23)
(13.8933 4.31239 -1.44641e-23)
(13.7697 4.72942 -4.13987e-23)
(13.8558 5.24515 -2.37595e-23)
(14.2886 5.61391 -2.98322e-23)
(14.8181 5.55609 2.03401e-22)
(15.0962 5.18658 0)
(15.1208 4.76645 2.40338e-23)
(15.005 4.40857 1.68534e-23)
(14.9359 4.16656 1.05883e-22)
(14.8238 4.0329 6.7693e-23)
(14.7147 3.92947 1.73805e-23)
(14.6304 3.86856 3.9265e-24)
(14.5662 3.83758 3.24177e-24)
(14.5212 3.82387 -2.30937e-24)
(14.485 3.83622 3.34845e-24)
(14.5742 3.77618 2.01375e-24)
(14.5499 3.73423 -5.09701e-24)
(14.518 3.71468 -2.40765e-24)
(14.473 3.69559 0)
(14.4116 3.68701 8.24508e-24)
(14.324 3.69196 8.42524e-23)
(14.1985 3.71251 1.07533e-22)
(14.0636 3.80791 -2.75143e-23)
(13.8663 3.9209 1.70408e-22)
(13.5564 4.18165 6.07819e-23)
(13.3238 4.64359 -2.86937e-25)
(13.2625 5.48146 -7.22393e-27)
(13.9803 6.35589 -9.18405e-24)
(15.044 6.20406 -4.31465e-23)
(15.6075 5.49365 -1.33324e-23)
(15.5546 4.91139 0)
(15.3168 4.46319 1.21914e-26)
(15.1076 4.10728 -8.19617e-23)
(14.942 3.97883 -3.23886e-23)
(14.7909 3.87647 4.39919e-23)
(14.674 3.82056 -2.6973e-24)
(14.5848 3.79522 0)
(14.522 3.78594 3.2643e-24)
(14.4714 3.80877 1.06584e-23)
(14.6051 3.74281 3.22034e-25)
(14.5787 3.69021 1.25445e-24)
(14.543 3.66169 1.56906e-24)
(14.4925 3.62868 -1.06313e-23)
(14.4234 3.60114 -8.75744e-24)
(14.3248 3.57848 -3.64476e-23)
(14.1803 3.55939 -3.95067e-23)
(14.0245 3.6038 -1.82796e-23)
(13.7378 3.65995 -2.36353e-23)
(13.2541 3.79445 -3.53839e-23)
(12.6879 4.22502 0)
(11.9444 5.46628 1.68472e-23)
(13.1042 8.14953 -1.27917e-25)
(16.0913 7.27656 2.4768e-24)
(16.3304 5.77963 2.30367e-23)
(16.0928 4.85182 0)
(15.6746 4.37022 2.10437e-23)
(15.2807 3.97804 6.63726e-23)
(15.0508 3.87484 4.85904e-23)
(14.8581 3.79024 -1.01174e-23)
(14.7094 3.74945 -7.30436e-24)
(14.5958 3.73644 0)
(14.5152 3.73527 4.99789e-24)
(14.45 3.77173 1.1125e-23)
(14.6423 3.7055 -4.25981e-24)
(14.6161 3.6427 3.70153e-24)
(14.5797 3.60525 2.88437e-24)
(14.5283 3.55778 6.98731e-24)
(14.459 3.51024 4.85253e-24)
(14.3614 3.4579 2.73477e-24)
(14.2209 3.39416 -1.28762e-26)
(14.0532 3.386 2.15887e-23)
(13.7344 3.31832 -7.76822e-28)
(13.2118 3.21225 3.29324e-23)
(12.3384 3.20257 2.32612e-23)
(10.2135 3.31491 -5.83418e-24)
(18.6941 7.47577 -6.1513e-24)
(17.5147 5.40191 -1.34754e-23)
(16.6185 4.49018 2.9054e-23)
(16.0027 4.11347 -1.70944e-23)
(15.4215 3.77989 4.39286e-23)
(15.1308 3.72346 4.68292e-23)
(14.9033 3.67361 1.75511e-23)
(14.7284 3.65719 8.84974e-24)
(14.5942 3.66263 0)
(14.4978 3.67272 0)
(14.4195 3.72503 -2.5728e-28)
(14.6853 3.66559 -1.33382e-24)
(14.6613 3.5941 -1.25647e-24)
(14.6275 3.54908 -3.01194e-24)
(14.5799 3.48889 9.59568e-25)
(14.5175 3.42394 -4.83188e-24)
(14.4321 3.34654 9.62269e-24)
(14.314 3.24544 3.38401e-23)
(14.1607 3.1864 0)
(13.889 3.00783 0)
(13.5006 2.70404 0)
(12.8542 2.24639 -1.52257e-24)
(11.7832 0.993003 -1.33959e-25)
(19.8136 4.47762 0)
(18.2161 4.22319 0)
(16.923 3.86508 0)
(16.2039 3.72631 2.29846e-25)
(15.4938 3.53737 0)
(15.1636 3.53981 -3.51427e-23)
(14.9157 3.53642 -3.29672e-23)
(14.7243 3.54989 -2.49738e-24)
(14.5761 3.57764 0)
(14.4679 3.60075 -1.31552e-24)
(14.3793 3.6697 -7.62445e-24)
(14.7326 3.6246 4.90904e-25)
(14.7127 3.54678 -5.60291e-25)
(14.684 3.49643 5.99848e-25)
(14.644 3.42697 2.64858e-24)
(14.5935 3.34979 -6.26413e-24)
(14.5276 3.25608 -4.90779e-25)
(14.442 3.13254 3.34176e-24)
(14.3239 3.03835 -4.02526e-25)
(14.1399 2.80764 0)
(13.9372 2.45048 2.91624e-24)
(13.6696 1.93459 8.44726e-29)
(13.5751 0.935178 -7.22002e-26)
(18.5518 2.05069 -1.34687e-24)
(18.0884 2.97393 -6.37521e-24)
(16.9013 3.19133 -5.65281e-23)
(16.2259 3.30252 0)
(15.4814 3.28982 -3.67103e-23)
(15.1417 3.34851 0)
(14.8909 3.39323 1.91737e-24)
(14.6945 3.43664 0)
(14.5402 3.48717 6.80861e-24)
(14.425 3.52313 -1.65989e-24)
(14.3297 3.6077 -8.95033e-24)
(14.7825 3.58398 0)
(14.768 3.50259 -3.48475e-24)
(14.7461 3.44959 -4.11617e-24)
(14.7159 3.375 9.43609e-24)
(14.6797 3.29169 -7.58492e-24)
(14.6354 3.1912 -1.91493e-23)
(14.5834 3.06014 -3.0133e-23)
(14.506 2.95097 -4.65631e-24)
(14.4056 2.7198 0)
(14.3331 2.39997 -1.24209e-23)
(14.2765 2.01332 7.93428e-25)
(14.4008 1.5172 1.33379e-25)
(16.6465 0.770915 -1.18188e-24)
(17.4465 2.10302 7.22255e-24)
(16.6273 2.65341 4.90148e-24)
(16.0899 2.93495 3.55841e-23)
(15.3937 3.07266 2.1075e-22)
(15.0712 3.17358 1.22105e-22)
(14.8321 3.25874 -9.12318e-23)
(14.6408 3.32684 -7.4021e-23)
(14.4876 3.39743 1.66832e-23)
(14.3701 3.44418 7.80516e-24)
(14.2722 3.54167 -1.59705e-23)
(14.8334 3.54493 -3.82552e-25)
(14.8248 3.46278 -5.29488e-24)
(14.8105 3.4097 -5.29915e-24)
(14.7906 3.334 4.04319e-24)
(14.7686 3.25011 4.96125e-32)
(14.7447 3.15063 -1.73993e-23)
(14.7214 3.02365 -3.58742e-23)
(14.6803 2.91431 -3.06073e-24)
(14.6428 2.70791 0)
(14.6393 2.44588 6.55701e-24)
(14.6526 2.16687 8.2319e-25)
(14.6753 1.87139 3.06021e-25)
(14.8854 0.412946 -1.55606e-24)
(16.6481 1.66702 0)
(16.2316 2.31568 -3.43905e-23)
(15.8559 2.67152 3.70348e-23)
(15.2554 2.90606 2.77537e-22)
(14.9665 3.03102 2.05196e-22)
(14.7479 3.14329 0)
(14.5689 3.22809 -6.34951e-23)
(14.422 3.31338 -3.16035e-23)
(14.306 3.36791 7.85662e-24)
(14.209 3.47437 -9.00207e-24)
(14.8836 3.50833 0)
(14.8809 3.42791 -6.4268e-25)
(14.874 3.3769 5.25725e-25)
(14.864 3.30337 1.12249e-24)
(14.8545 3.22328 0)
(14.8476 3.13012 1.91633e-24)
(14.8454 3.01636 -4.57407e-24)
(14.8358 2.91432 6.39891e-25)
(14.8399 2.74004 -4.17532e-25)
(14.874 2.53471 -2.92055e-24)
(14.9278 2.31501 -3.37234e-25)
(14.9537 2.01803 0)
(13.4433 0.44068 7.97315e-25)
(15.894 1.53021 -2.81433e-26)
(15.8152 2.15789 2.41403e-23)
(15.5835 2.51817 3.68721e-24)
(15.0936 2.79546 1.30572e-22)
(14.8445 2.92751 1.52653e-22)
(14.649 3.05232 0)
(14.4855 3.14495 -1.42695e-24)
(14.3481 3.23885 2.05044e-23)
(14.2361 3.29734 1.2153e-23)
(14.1427 3.40838 4.65069e-25)
(14.9318 3.47475 0)
(14.9345 3.39799 0)
(14.9344 3.3506 0)
(14.9331 3.28153 0)
(14.9338 3.20805 1.47744e-24)
(14.9395 3.12363 1.14373e-24)
(14.952 3.02691 3.74283e-24)
(15.0138 2.91323 -9.51052e-23)
(14.9971 2.79999 0)
(15.0473 2.65045 0)
(15.1328 2.49599 -8.17406e-24)
(15.2645 2.32455 -1.23934e-23)
(10.239 2.12799 -2.30806e-24)
(12.3512 0.614141 -2.6638e-23)
(15.2266 1.56642 -6.58691e-24)
(15.4344 2.13673 -1.36948e-25)
(15.3127 2.45784 -8.60348e-25)
(14.932 2.7356 -5.36053e-23)
(14.721 2.86241 7.86893e-24)
(14.5465 2.98691 1.5013e-25)
(14.398 3.07945 -7.62153e-23)
(14.2707 3.17586 0)
(14.1641 3.2344 4.98498e-24)
(14.0758 3.3458 -1.38942e-23)
(14.9771 3.44442 0)
(14.9844 3.37272 3.99834e-24)
(14.9902 3.32985 -7.1592e-25)
(14.9962 3.26664 0)
(15.0048 3.20105 0)
(15.0193 3.12654 6.7366e-23)
(15.0423 3.04368 -1.39683e-25)
(15.1041 2.95332 -9.81254e-23)
(15.1127 2.86955 -1.05469e-22)
(15.1654 2.76186 -1.27832e-23)
(15.2464 2.67038 0)
(15.3172 2.62198 2.17818e-24)
(12.0181 2.67708 -1.81798e-23)
(11.0967 0.859629 -2.5483e-23)
(14.6889 1.83961 1.65353e-23)
(15.1165 2.20405 -1.29572e-23)
(14.9741 2.53472 1.41074e-23)
(14.7831 2.71516 -2.1067e-24)
(14.6041 2.82989 -1.55174e-25)
(14.4471 2.94424 -2.57716e-25)
(14.3122 3.03112 0)
(14.1949 3.12433 -4.98232e-23)
(14.0937 3.18033 -6.78744e-23)
(14.0112 3.28787 -1.66088e-23)
(15.0188 3.4174 -2.67212e-25)
(15.0298 3.35162 5.95516e-24)
(15.0405 3.3137 -1.65072e-24)
(15.0523 3.25711 -6.65288e-28)
(15.067 3.19989 1.15339e-23)
(15.0876 3.13587 5.68595e-23)
(15.1168 3.0671 1.54562e-23)
(15.1785 2.99589 -6.82535e-23)
(15.1995 2.93361 3.03043e-23)
(15.2427 2.85611 1.76301e-24)
(15.3109 2.80392 0)
(15.3127 2.76853 2.19833e-27)
(13.3487 2.8 1.04991e-23)
(10.9302 1.17193 -1.25515e-24)
(14.2155 1.95083 -1.96257e-24)
(14.856 2.30199 -9.10738e-24)
(14.8139 2.58254 -1.32393e-22)
(14.6566 2.71869 0)
(14.5012 2.82079 -6.98184e-24)
(14.3571 2.92025 4.14687e-24)
(14.2321 2.99762 -3.68115e-24)
(14.1229 3.08402 4.89577e-24)
(14.0269 3.13517 0)
(13.9504 3.23621 0)
(15.0566 3.39357 4.72101e-25)
(15.0705 3.33411 7.45873e-25)
(15.0849 3.30119 -4.63837e-24)
(15.1013 3.25142 0)
(15.1203 3.20239 1.12142e-23)
(15.1445 3.14824 0)
(15.1761 3.09219 2.05166e-22)
(15.2333 3.03574 -1.0412e-22)
(15.2877 2.9896 4.52759e-24)
(15.2992 2.93196 -7.97848e-25)
(15.339 2.89078 4.1495e-24)
(15.3126 2.87214 -1.4158e-24)
(13.2708 2.85933 5.02586e-24)
(10.8209 1.51312 2.23287e-24)
(13.7993 2.03825 9.31864e-24)
(14.6249 2.39287 6.04263e-24)
(14.6768 2.64903 -7.86739e-23)
(14.5555 2.74687 6.6796e-23)
(14.4156 2.83028 0)
(14.2801 2.91138 3.81746e-23)
(14.1615 2.9768 3.35977e-24)
(14.0578 3.05366 8.42721e-24)
(13.9658 3.09852 0)
(13.8945 3.19063 0)
(15.0905 3.37274 -2.44345e-24)
(15.1063 3.31965 6.37054e-25)
(15.1236 3.29149 -1.49002e-24)
(15.1435 3.24831 -1.02293e-23)
(15.1654 3.2068 0)
(15.1916 3.16131 0)
(15.2236 3.11536 3.37088e-22)
(15.2749 3.07022 -2.03813e-23)
(15.3243 3.03402 6.88927e-24)
(15.3603 2.99782 -1.86767e-23)
(15.3653 2.96075 0)
(15.3182 2.94934 -1.94219e-24)
(13.7957 2.95281 2.36197e-23)
(11.1589 1.84601 1.76621e-23)
(13.6178 2.2047 3.62371e-23)
(14.3904 2.5251 7.30807e-23)
(14.5532 2.68868 3.6546e-23)
(14.4764 2.77959 6.45752e-23)
(14.3477 2.8472 -5.77968e-24)
(14.2173 2.91204 -2.57373e-24)
(14.1016 2.96539 -1.62726e-23)
(14.0012 3.03162 -6.03132e-23)
(13.9118 3.06955 8.7074e-24)
(13.8446 3.15141 1.26868e-24)
(15.1205 3.35464 -4.70438e-24)
(15.1375 3.30772 5.41898e-25)
(15.1569 3.28392 -1.19463e-24)
(15.1792 3.24689 -8.80186e-24)
(15.2032 3.21211 0)
(15.2305 3.17419 0)
(15.2621 3.13659 1.34735e-22)
(15.3085 3.10038 -2.60234e-23)
(15.3536 3.07201 -5.44713e-25)
(15.3853 3.04494 -1.45928e-23)
(15.3955 3.02454 0)
(15.257 3.01457 -8.31558e-24)
(13.5098 2.97526 -7.6463e-24)
(12.0374 2.17782 3.86267e-24)
(13.3571 2.27119 8.09337e-24)
(14.1918 2.56936 -3.08623e-23)
(14.4358 2.71844 -1.48154e-23)
(14.4065 2.80945 1.45652e-23)
(14.2927 2.86623 -9.19115e-24)
(14.1669 2.91838 -5.88914e-23)
(14.0524 2.96067 -1.47611e-23)
(13.9534 3.01621 -7.98029e-23)
(13.8654 3.04718 0)
(13.8011 3.11834 -1.15853e-23)
(15.1468 3.33901 -2.53511e-24)
(15.1644 3.29789 -3.44741e-24)
(15.1852 3.27799 0)
(15.2093 3.24655 -6.87607e-24)
(15.2347 3.21772 0)
(15.2625 3.18633 -1.1811e-22)
(15.2933 3.15567 2.59937e-24)
(15.3354 3.12646 1.79286e-23)
(15.3766 3.10375 -6.19464e-24)
(15.405 3.082 -5.08792e-24)
(15.4085 3.06434 -3.26198e-24)
(15.2758 3.04767 -9.13498e-24)
(13.801 3.02477 -9.27458e-24)
(12.3441 2.38644 -6.82258e-24)
(13.1961 2.35734 -1.26029e-23)
(14.0031 2.60713 -9.96469e-24)
(14.3199 2.74623 -5.05969e-24)
(14.3405 2.83696 -8.9112e-24)
(14.2466 2.88604 -3.06836e-23)
(14.1269 2.92821 -3.5519e-24)
(14.013 2.96072 -1.18314e-24)
(13.9141 3.00604 -2.31335e-23)
(13.8264 3.03044 -1.12205e-23)
(13.7639 3.09095 -5.12173e-24)
(15.1698 3.32556 0)
(15.1874 3.28979 -5.2182e-24)
(15.2091 3.27331 -7.69696e-25)
(15.2344 3.24687 -5.43623e-24)
(15.2607 3.22322 -3.21536e-25)
(15.2886 3.19743 -1.01024e-22)
(15.3186 3.17259 0)
(15.3571 3.14904 -1.1522e-23)
(15.3951 3.13103 0)
(15.4216 3.11352 0)
(15.4228 3.10057 -4.21298e-25)
(15.2999 3.08251 -3.83541e-25)
(14.0765 3.06676 3.94599e-24)
(12.6694 2.55033 -5.03252e-24)
(13.117 2.43731 -7.06407e-24)
(13.8425 2.63519 -1.32575e-23)
(14.2092 2.76775 4.07187e-24)
(14.2773 2.85925 -3.98214e-24)
(14.207 2.90445 -1.02447e-23)
(14.0953 2.93949 1.91573e-23)
(13.9822 2.96392 -1.50063e-24)
(13.8828 2.99996 0)
(13.7946 3.01838 -1.92368e-28)
(13.7328 3.06872 0)
(15.1897 3.31405 0)
(15.207 3.28312 -4.52611e-24)
(15.229 3.26959 -2.39097e-24)
(15.2551 3.24756 5.09883e-24)
(15.2819 3.22839 0)
(15.3099 3.20742 -1.15542e-24)
(15.3389 3.1875 -4.30733e-23)
(15.3744 3.16863 -1.76074e-23)
(15.4096 3.1547 2.34338e-24)
(15.4346 3.14085 3.04848e-25)
(15.4345 3.13228 5.26617e-24)
(15.3192 3.11577 -2.37915e-24)
(14.2972 3.10223 3.9928e-24)
(12.9671 2.68095 6.10882e-25)
(13.0957 2.51466 4.31968e-24)
(13.7083 2.65884 -5.02206e-24)
(14.1023 2.78331 -3.86345e-24)
(14.2146 2.87565 1.51718e-24)
(14.1711 2.92011 9.04696e-24)
(14.0699 2.9507 -2.55892e-28)
(13.9587 2.96896 -8.1962e-25)
(13.8585 2.99694 -1.74893e-23)
(13.7694 3.01016 8.60657e-24)
(13.7074 3.05107 7.89009e-24)
(15.2068 3.30422 -1.44444e-24)
(15.2236 3.27763 -3.90303e-24)
(15.2455 3.26662 -2.22578e-32)
(15.2719 3.24844 8.72134e-24)
(15.2991 3.23311 1.78058e-23)
(15.3269 3.21627 -1.09008e-24)
(15.3551 3.20052 -3.61286e-23)
(15.3881 3.18556 -1.58811e-23)
(15.4207 3.17506 6.97316e-24)
(15.4441 3.16426 0)
(15.4434 3.15896 1.08815e-24)
(15.3352 3.14458 3.63505e-26)
(14.4758 3.13169 -5.71558e-26)
(13.2383 2.7877 1.24024e-24)
(13.1211 2.59074 9.62226e-30)
(13.6015 2.68191 -3.91129e-24)
(14.0003 2.79484 -3.25739e-24)
(14.1512 2.88693 -1.58302e-24)
(14.1364 2.93259 5.66197e-24)
(14.0486 2.96093 -1.33768e-23)
(13.941 2.97491 -1.54254e-23)
(13.8404 2.99618 -7.5714e-24)
(13.7501 3.00501 -7.51519e-24)
(13.687 3.03741 6.91579e-24)
(15.2215 3.29587 -2.00147e-32)
(15.2375 3.2731 -1.67426e-24)
(15.2591 3.26423 1.7544e-24)
(15.2855 3.24937 3.71408e-24)
(15.3127 3.23731 -2.46378e-28)
(15.3404 3.224 0)
(15.3678 3.21179 8.77378e-25)
(15.3986 3.20009 -1.18914e-23)
(15.429 3.19244 5.6959e-24)
(15.451 3.18425 0)
(15.4501 3.18138 -1.19193e-28)
(15.3496 3.16942 -1.33923e-25)
(14.6239 3.15657 -1.06682e-24)
(13.4854 2.87523 0)
(13.1836 2.66395 2.08697e-24)
(13.5236 2.70612 5.00256e-24)
(13.9058 2.80395 0)
(14.087 2.89404 1.23841e-24)
(14.1014 2.94184 1.67681e-24)
(14.0295 2.96963 -2.69494e-23)
(13.9275 2.98107 -6.64744e-24)
(13.8273 2.997 6.57615e-24)
(13.7358 3.00229 -6.36458e-24)
(13.6713 3.02719 0)
(15.234 3.28877 1.05492e-24)
(15.2491 3.26936 -1.43002e-24)
(15.2701 3.26228 0)
(15.2962 3.25026 3.08443e-25)
(15.3234 3.24098 -7.2736e-25)
(15.3508 3.23066 -9.12011e-25)
(15.3775 3.22144 0)
(15.4065 3.21251 -1.0496e-24)
(15.435 3.2072 3.26901e-24)
(15.4557 3.20127 0)
(15.455 3.2002 6.57734e-25)
(15.3624 3.19068 1.37762e-25)
(14.747 3.17777 -1.4073e-25)
(13.7083 2.94709 -2.79951e-25)
(13.2731 2.73309 1.0517e-24)
(13.4743 2.73242 1.46491e-24)
(13.821 2.81204 1.14557e-24)
(14.023 2.89803 -1.13378e-24)
(14.0652 2.94805 1.10509e-24)
(14.0112 2.97654 -1.09898e-23)
(13.9168 2.98693 4.99743e-24)
(13.8181 2.99886 5.30869e-24)
(13.7257 3.00144 7.30491e-26)
(13.6594 3.01988 3.02132e-25)
(15.2447 3.28277 -1.20334e-25)
(15.2587 3.26629 -1.70655e-24)
(15.279 3.26069 -1.30045e-25)
(15.3046 3.25108 0)
(15.3316 3.24412 2.13835e-23)
(15.3587 3.23634 0)
(15.3848 3.22961 -9.80297e-24)
(15.4123 3.22304 0)
(15.439 3.21965 2.56485e-24)
(15.4586 3.21566 7.94506e-26)
(15.4582 3.21592 0)
(15.3735 3.20867 7.6536e-26)
(14.8493 3.19583 0)
(13.9077 3.00603 -2.72412e-25)
(13.3813 2.79726 3.6615e-25)
(13.452 2.76101 0)
(13.7484 2.82028 0)
(13.9602 2.89997 -9.87836e-25)
(14.0276 2.95166 1.10739e-24)
(13.9925 2.98159 0)
(13.9077 2.99214 0)
(13.8118 3.00131 2.74346e-24)
(13.7191 3.00197 1.6008e-26)
(13.6509 3.01497 -2.401e-24)
(15.2538 3.2777 1.01712e-25)
(15.2667 3.26374 1.36777e-25)
(15.2861 3.25936 0)
(15.3111 3.25178 -8.52958e-26)
(15.3376 3.24675 8.80494e-24)
(15.3644 3.24109 -7.16682e-25)
(15.39 3.23646 -8.6782e-24)
(15.4161 3.23186 -7.79474e-25)
(15.4414 3.23004 0)
(15.46 3.2277 1.22076e-24)
(15.4601 3.22897 0)
(15.383 3.22379 0)
(14.9345 3.21131 0)
(14.0846 3.0544 3.23676e-24)
(13.5008 2.85579 3.06031e-24)
(13.4542 2.79137 0)
(13.6895 2.82942 -7.26186e-25)
(13.9005 2.90082 0)
(13.9886 2.95321 0)
(13.9728 2.98488 0)
(13.8992 2.99649 0)
(13.8074 3.00399 -8.5577e-25)
(13.7151 3.00345 -2.21519e-25)
(13.6451 3.01202 -5.30372e-30)
(15.2614 3.27343 0)
(15.2733 3.26164 4.36057e-25)
(15.2917 3.25826 -6.22937e-25)
(15.3158 3.25236 9.45591e-25)
(15.3419 3.2489 7.35877e-24)
(15.3683 3.24501 1.44663e-23)
(15.3935 3.2421 0)
(15.4185 3.23917 0)
(15.4425 3.23861 2.94808e-25)
(15.4603 3.23765 -1.82107e-24)
(15.4608 3.23966 -2.257e-32)
(15.391 3.23624 4.71443e-24)
(15.0057 3.22448 5.02924e-24)
(14.2415 3.09432 2.71486e-24)
(13.6263 2.90885 -1.94923e-25)
(13.4777 2.82315 0)
(13.6452 2.84001 -3.30316e-24)
(13.8449 2.90133 -4.05444e-24)
(13.9487 2.95316 0)
(13.9516 2.98654 -3.59536e-24)
(13.8904 2.99984 -5.15671e-39)
(13.8041 3.00662 3.65227e-24)
(13.7131 3.00553 6.61845e-25)
(13.6415 3.01058 1.9239e-24)
(15.2679 3.26984 -6.10795e-25)
(15.2787 3.25991 2.72238e-25)
(15.2961 3.25732 -3.8021e-25)
(15.3193 3.2528 1.58908e-24)
(15.3448 3.25062 6.27466e-24)
(15.3707 3.24817 2.40122e-23)
(15.3955 3.24667 0)
(15.4196 3.2451 0)
(15.4426 3.24555 2.30527e-25)
(15.4596 3.24572 0)
(15.4606 3.24827 0)
(15.3977 3.24633 0)
(15.0656 3.23552 0)
(14.3802 3.12717 -2.24525e-24)
(13.7538 2.95644 -2.27427e-24)
(13.5193 2.85572 -1.9686e-24)
(13.6158 2.85238 -4.37725e-24)
(13.795 2.90217 -3.52862e-24)
(13.9088 2.95203 0)
(13.9288 2.98678 -1.70798e-24)
(13.8808 3.00212 0)
(13.8012 3.00895 0)
(13.7123 3.00788 3.98339e-25)
(13.6397 3.01027 4.81821e-26)
(15.2733 3.26683 -4.21861e-25)
(15.2832 3.25849 -4.29673e-25)
(15.2994 3.25652 -5.73377e-26)
(15.3217 3.25312 3.9946e-26)
(15.3465 3.25194 -1.55031e-32)
(15.372 3.25066 1.01966e-23)
(15.3963 3.25026 0)
(15.4197 3.24981 4.38852e-25)
(15.4417 3.25104 1.13735e-24)
(15.4581 3.2521 1.27543e-24)
(15.4596 3.25505 2.95192e-24)
(15.4033 3.25429 3.155e-24)
(15.116 3.24457 1.66657e-24)
(14.5025 3.1541 0)
(13.8798 2.99868 0)
(13.5756 2.88838 2.53463e-25)
(13.6014 2.86658 1.81553e-24)
(13.752 2.90388 3.14946e-29)
(13.8695 2.95035 -1.50465e-24)
(13.9045 2.98586 0)
(13.87 3.00332 0)
(13.7981 3.01081 8.45971e-25)
(13.7123 3.01022 0)
(13.6391 3.01075 0)
(15.2779 3.26432 0)
(15.2868 3.25733 -5.2251e-25)
(15.302 3.25585 -3.16748e-25)
(15.3232 3.25333 -5.80034e-25)
(15.3473 3.25291 0)
(15.3723 3.25253 0)
(15.3963 3.253 0)
(15.4191 3.25342 -3.79717e-25)
(15.4402 3.25523 0)
(15.4561 3.25697 -1.73687e-26)
(15.4581 3.26017 1.15544e-24)
(15.4077 3.26033 1.23262e-24)
(15.1584 3.25174 1.29965e-24)
(14.6099 3.17599 2.86876e-24)
(14.0019 3.03576 1.6282e-24)
(13.6432 2.92046 0)
(13.601 2.88254 -1.50995e-24)
(13.7169 2.90684 -1.48007e-24)
(13.832 2.94858 0)
(13.879 2.98407 0)
(13.8576 3.00351 0)
(13.7943 3.01205 7.87833e-25)
(13.7125 3.01231 0)
(13.6393 3.01168 0)
(15.2817 3.26226 2.07769e-26)
(15.2898 3.25641 -3.06657e-25)
(15.3039 3.2553 3.75624e-26)
(15.3241 3.25346 0)
(15.3474 3.25359 -2.76552e-25)
(15.3719 3.25389 -5.53171e-25)
(15.3955 3.25498 0)
(15.4178 3.25605 -1.55411e-25)
(15.4383 3.25825 6.87694e-25)
(15.4537 3.26045 7.73911e-25)
(15.4562 3.26376 5.66774e-27)
(15.4112 3.26455 8.99067e-25)
(15.1942 3.25706 1.88222e-24)
(14.7042 3.19348 -7.75688e-26)
(14.1185 3.06795 1.0396e-25)
(13.7193 2.95144 1.25099e-24)
(13.6139 2.90008 1.39435e-25)
(13.6905 2.9114 -3.03667e-25)
(13.7973 2.94718 0)
(13.8529 2.98173 -6.00694e-25)
(13.8438 3.00275 -7.26921e-25)
(13.7895 3.01256 0)
(13.7125 3.01394 7.71173e-25)
(13.64 3.01277 -6.25323e-25)
(15.2848 3.26059 0)
(15.2922 3.25573 -2.29638e-25)
(15.3054 3.25488 -4.35037e-26)
(15.3245 3.25354 -1.08994e-26)
(15.3471 3.25404 0)
(15.371 3.2548 3.03948e-24)
(15.3943 3.25631 -3.42649e-25)
(15.4161 3.25783 2.10631e-25)
(15.436 3.26025 -4.91538e-25)
(15.4511 3.26269 -5.39344e-25)
(15.454 3.26596 5.84136e-25)
(15.4139 3.2671 1.16558e-24)
(15.2242 3.26057 5.96521e-25)
(14.7862 3.20711 -8.7667e-26)
(14.2275 3.09553 -1.01147e-24)
(13.8 2.98087 -1.02899e-24)
(13.638 2.9189 2.93567e-25)
(13.6728 2.91767 -3.00618e-25)
(13.7662 2.94646 0)
(13.8269 2.97905 -3.12793e-25)
(13.8288 3.00112 -5.94244e-25)
(13.7837 3.01225 0)
(13.7121 3.01491 5.50119e-25)
(13.6408 3.01377 -7.6724e-25)
(15.2875 3.25932 -1.08486e-25)
(15.2943 3.25532 1.62553e-25)
(15.3065 3.25463 -3.60648e-25)
(15.3247 3.25364 -6.61657e-27)
(15.3464 3.25432 -1.61e-25)
(15.3698 3.25535 2.37154e-24)
(15.3927 3.25709 -2.90046e-25)
(15.4141 3.25885 -5.69613e-26)
(15.4336 3.26131 -3.10069e-25)
(15.4485 3.26377 -6.28677e-25)
(15.4519 3.26674 -2.82831e-25)
(15.4165 3.2678 -2.08285e-25)
(15.2503 3.2618 -1.35929e-25)
(14.859 3.21664 0)
(14.3308 3.11838 -6.29246e-25)
(13.8859 3.00851 -8.87367e-25)
(13.6739 2.93926 1.25501e-25)
(13.6654 2.92645 0)
(13.74 2.94728 1.41074e-25)
(13.8016 2.9766 1.50753e-25)
(13.8125 2.99878 -4.56244e-25)
(13.7764 3.011 -2.78076e-25)
(13.7107 3.01499 3.59811e-25)
(13.6414 3.01439 0)
(15.2894 3.25844 -6.90583e-26)
(15.2958 3.2552 1.43791e-25)
(15.3073 3.25455 -1.46148e-25)
(15.3246 3.25376 0)
(15.3457 3.25445 0)
(15.3686 3.25558 -6.48379e-25)
(15.3911 3.25738 1.6256e-25)
(15.4123 3.25925 -3.00346e-25)
(15.4315 3.26165 -3.25495e-25)
(15.4462 3.26402 -9.86063e-27)
(15.4499 3.26664 9.7732e-26)
(15.418 3.26749 0)
(15.2701 3.26187 0)
(14.9166 3.22361 0)
(14.4167 3.13751 0)
(13.9623 3.0338 -2.63915e-25)
(13.7108 2.95952 0)
(13.6636 2.93605 0)
(13.7192 2.94846 1.25183e-25)
(13.7795 2.97377 0)
(13.7975 2.99557 0)
(13.7692 3.00884 0)
(13.7091 3.01424 3.32041e-25)
(13.6419 3.01455 0)
(15.2915 3.25807 0)
(15.2978 3.25555 -9.17301e-27)
(15.3084 3.25488 2.08688e-26)
(15.3247 3.25419 1.36767e-26)
(15.3447 3.25472 -7.47134e-26)
(15.3668 3.25574 -5.76336e-25)
(15.3888 3.2574 -6.78618e-26)
(15.4097 3.25916 1.35733e-29)
(15.4287 3.26128 9.28844e-33)
(15.4436 3.26313 -6.00024e-31)
(15.449 3.26449 -3.75803e-25)
(15.423 3.26295 0)
(15.2974 3.2544 -1.79974e-24)
(14.9882 3.22029 -1.97859e-24)
(14.5271 3.14842 7.2024e-25)
(14.072 3.05878 -1.12774e-24)
(13.7793 2.98745 0)
(13.6816 2.95568 0)
(13.7043 2.95675 0)
(13.7541 2.97363 0)
(13.7759 2.9917 0)
(13.7561 3.00461 0)
(13.7037 3.01129 2.00467e-25)
(13.6406 3.01344 0)
(11.5091 1.12334 -2.43668e-25)
(19.9831 4.8327 -6.20499e-25)
(18.85 7.9047 -1.27626e-23)
(13.402 0.88001 -4.42785e-26)
(18.445 2.06318 4.76693e-25)
(19.8852 4.40348 8.56447e-25)
(14.3422 1.44926 1.53547e-25)
(16.266 0.607755 -1.27573e-24)
(18.1873 1.81306 -5.72389e-25)
(14.6492 1.84455 -1.08445e-25)
(14.2835 0.23095 2.61971e-24)
(15.9963 0.511653 0)
(14.911 1.99714 -3.24831e-29)
(12.7084 0.250274 -1.60963e-24)
(14.0593 0.212346 3.92905e-24)
(15.2374 2.27618 0)
(14.6609 2.34152 2.25929e-24)
(9.5717 1.94265 3.613e-24)
(11.2475 0.365156 1.06831e-23)
(12.5336 0.260936 -1.80811e-24)
(10.2798 3.75551 4.04423e-24)
(12.6665 7.88075 8.21892e-26)
(18.3973 8.15048 -1.0674e-23)
(15.6325 7.56005 6.39357e-24)
(12.6649 2.42927 -9.09501e-25)
(11.7026 1.38792 -7.2188e-26)
(10.6673 3.2865 -3.48172e-24)
(20.0063 6.6396 0)
(19.249 10.5362 7.52809e-24)
(19.8558 4.86613 0)
(18.4632 4.69833 5.10869e-25)
(17.7809 5.72553 -2.02586e-23)
(13.4752 1.9608 -7.86926e-25)
(13.3851 1.06198 -1.37018e-25)
(11.9368 1.25317 -6.7675e-26)
(12.556 0.809023 1.92571e-26)
(12.7339 -0.137551 3.36635e-27)
(11.4714 -0.17125 -1.55793e-25)
(15.0869 1.69561 6.25966e-25)
(17.3478 3.22755 5.27608e-25)
(18.7645 2.29078 -2.13653e-25)
(18.4485 3.16891 -7.09423e-24)
(18.551 4.29836 1.57499e-25)
(14.151 1.97811 -1.17039e-24)
(14.294 1.51597 -1.51779e-25)
(13.5464 1.10184 -1.90838e-26)
(13.994 1.14769 8.24802e-30)
(14.3872 0.798569 -1.96209e-25)
(13.8687 0.28358 -6.11486e-26)
(11.6298 -0.17686 7.88588e-26)
(13.0941 0.584692 -3.38547e-25)
(16.8882 0.870395 -2.4202e-24)
(17.7453 2.06441 2.48524e-24)
(18.3177 2.83962 -6.49486e-24)
(14.5723 2.12935 -1.80073e-25)
(14.6362 1.87317 -3.1815e-25)
(14.3562 1.57627 0)
(14.5319 1.68878 0)
(14.6703 1.62888 -2.1829e-26)
(14.6266 1.35269 -1.15599e-26)
(9.27563 -0.679953 -1.13149e-25)
(10.2473 -0.583636 4.07166e-25)
(15.0843 0.427051 3.99463e-29)
(16.8142 1.50642 7.58658e-24)
(17.5188 1.87649 7.9579e-24)
(7.7084 -0.478501 -2.88228e-25)
(8.55836 -0.591256 -1.91945e-26)
(13.6135 0.432718 1.36943e-24)
(15.9339 1.33248 0)
(16.5829 1.43513 0)
(6.66379 -0.308072 2.32354e-25)
(7.09511 -0.328284 0)
(15.3204 2.56972 0)
(14.7699 2.65212 -2.48671e-24)
(14.6675 2.39207 -6.50527e-30)
(12.8317 2.8011 7.27612e-25)
(9.2162 0.510335 0)
(11.0219 0.370842 0)
(11.2545 -0.135174 -2.09411e-25)
(9.49424 0.644146 2.53412e-25)
(10.7192 1.78019 -1.73243e-25)
(9.32839 0.351563 2.21433e-25)
(11.276 -0.372952 -1.77239e-25)
(7.55065 3.73142 2.19987e-24)
(9.01515 0.567381 -2.61606e-25)
(17.517 3.37076 4.70993e-26)
(19.9371 6.34313 -1.09293e-25)
(19.9363 6.20496 -4.79912e-24)
(20.1181 6.33526 -2.20697e-25)
(18.1162 3.5985 2.82257e-26)
(13.7655 0.219942 -3.4572e-26)
(12.8843 -0.10901 0)
(12.7895 0.798949 -1.54744e-26)
(12.8959 -0.234164 6.69145e-27)
(13.8443 0.150981 1.46858e-27)
(11.5059 -0.395801 8.54141e-26)
(12.8199 -0.250844 6.73406e-27)
(13.1779 0.652107 -5.2722e-25)
(14.9895 1.61219 1.45052e-24)
(19.1651 2.92948 -1.01213e-24)
(15.5735 1.75201 -1.65137e-25)
(13.8658 0.756386 2.62011e-25)
(17.931 3.43145 3.80473e-25)
(15.6806 1.83456 5.52826e-25)
(19.3794 3.26162 -2.16796e-25)
(14.6127 1.30257 0)
(14.4311 0.871231 -1.47107e-25)
(14.1012 1.22582 -1.14417e-25)
(14.4658 0.821649 -2.04872e-26)
(14.6368 1.30511 -5.66919e-28)
(13.8967 0.185395 -1.46915e-27)
(14.4454 0.78203 -6.42686e-26)
(10.3449 -0.564545 1.09524e-25)
(11.5179 -0.21214 0)
(17.0975 1.00374 0)
(12.2111 -0.124871 1.57759e-26)
(10.9703 -0.511708 -1.29746e-25)
(13.7809 0.694161 -3.04142e-25)
(12.3205 -0.085551 -4.65578e-25)
(17.3762 1.17617 -2.61741e-25)
(14.6754 1.65822 0)
(14.6619 1.79623 5.43424e-31)
(14.6432 1.33117 -4.80786e-27)
(14.676 1.62802 -5.57957e-26)
(8.60142 -0.597954 -3.50871e-26)
(9.25343 -0.6698 9.27657e-26)
(14.9782 0.275009 0)
(9.84333 -0.618157 7.22663e-26)
(9.34012 -0.534224 -2.48716e-27)
(10.8816 -0.526502 3.00307e-25)
(9.8832 -0.62047 9.55297e-26)
(15.2221 0.314529 -1.72311e-24)
(14.7161 1.8139 -6.09759e-27)
(14.8789 1.80495 2.52359e-26)
(14.6615 1.80595 -2.04535e-26)
(14.7018 1.81686 9.41446e-27)
(7.15681 -0.338842 0)
(7.6357 -0.453772 -2.57863e-25)
(9.24638 -0.520446 -1.63013e-25)
(8.61406 -0.39917 -2.51655e-25)
(13.4406 0.210288 -3.5576e-24)
(15.1934 1.91656 5.47531e-26)
(15.3991 2.19821 0)
(14.9099 1.81066 3.28813e-26)
(15.1534 1.89096 4.10159e-26)
(5.78547 -0.356358 6.945e-24)
(6.59371 -0.329878 5.0576e-26)
(10.5036 2.10563 -2.3066e-24)
(9.22423 0.873699 -2.34928e-25)
(8.06679 3.6554 1.01546e-24)
(19.0972 8.29307 3.46128e-24)
(18.787 13.3232 -1.90574e-24)
(14.8645 2.27592 1.45736e-24)
(14.9083 2.03902 -2.65383e-25)
(14.6665 1.90113 3.14088e-25)
(14.7619 1.93032 0)
(14.7273 1.83048 -2.67866e-26)
(14.6778 1.80707 -1.75766e-26)
(3.84471 -0.435535 -1.3663e-28)
(3.86736 -0.464916 -1.43722e-28)
(12.2696 0.463225 1.85584e-24)
(15.1299 1.36782 3.49585e-24)
(15.7255 1.32507 -1.36666e-24)
(4.67686 4.43591 0)
(6.18383 0.262047 0)
(19.2091 10.0615 9.51944e-24)
(20.2384 6.78702 2.20147e-27)
(19.7884 6.68884 0)
(14.676 1.79605 2.13292e-26)
(14.6721 1.65832 0)
(14.5652 1.73588 -1.42204e-29)
(14.2155 1.73554 0)
(14.2732 1.79315 0)
(14.5406 1.68304 1.26891e-26)
(14.6892 1.67381 -4.26069e-27)
(14.2709 1.79594 7.07909e-26)