/*--------------------------------*- C++ -*----------------------------------*\
| =========                 |                                                 |
| \\      /  F ield         | OpenFOAM: The Open Source CFD Toolbox           |
|  \\    /   O peration     | Version:  5.x                                   |
|   \\  /    A nd           | Web:      www.OpenFOAM.org                      |
|    \\/     M anipulation  |                                                 |
\*---------------------------------------------------------------------------*/
FoamFile
{
    version     2.0;
    format      ascii;
    class       volScalarField;
    location    "2287";
    object      Y;
}
// * * * * * * * * * * * * * * * * * * * * * * * * * * * * * * * * * * * * * //

dimensions      [0 0 0 0 0 0 0];

internalField   nonuniform List<scalar> 
6584
(
0.00632985
0.00632985
0.00632985
0.00632985
0.00632985
0.00632985
0.00632985
0.00632985
0.00632985
0.00632985
0.00632985
0.00632985
0.00632985
0.00632985
0.00632985
0.00632985
0.00632985
0.00632985
0.00632985
0.00632985
0.00632985
0.00632985
0.00632985
0.00632985
0.0063297
0.0063297
0.0063297
0.0063297
0.0063297
0.0063297
0.0063297
0.0063297
0.0063297
0.0063297
0.0063297
0.0063297
0.0063297
0.0063297
0.0063297
0.0063297
0.0063297
0.0063297
0.0063297
0.0063297
0.0063297
0.0063297
0.0063297
0.0063297
0.00632955
0.00632955
0.00632955
0.00632955
0.00632955
0.00632955
0.00632955
0.00632955
0.00632955
0.00632961
0.00632962
0.00632962
0.00632962
0.00632962
0.00632962
0.00632956
0.00632955
0.00632955
0.00632955
0.00632955
0.00632955
0.00632955
0.00632955
0.00632955
0.00632939
0.00632939
0.00632939
0.00632939
0.00632939
0.00632939
0.00632939
0.00632939
0.00632939
0.00632944
0.00632947
0.00632947
0.00632947
0.00632947
0.00632948
0.00632948
0.00632941
0.0063294
0.0063294
0.0063294
0.0063294
0.0063294
0.00632939
0.00632939
0.00632924
0.00632924
0.00632924
0.00632924
0.00632924
0.00632924
0.00632924
0.00632924
0.0063293
0.0063293
0.0063293
0.00632931
0.00632932
0.00632932
0.00632933
0.00632933
0.00632934
0.00632926
0.00632925
0.00632925
0.00632925
0.00632924
0.00632924
0.00632924
0.00632909
0.00632909
0.00632909
0.00632909
0.00632909
0.00632909
0.00632909
0.00632914
0.00632915
0.00632914
0.00632917
0.00632919
0.0063292
0.00632921
0.00632919
0.00632919
0.00632919
0.00632912
0.00632911
0.0063291
0.0063291
0.00632909
0.00632909
0.00632909
0.00632894
0.00632894
0.00632894
0.00632894
0.00632894
0.00632893
0.00632893
0.00632898
0.00632899
0.00632898
0.006329
0.00632902
0.00632905
0.00632906
0.00632908
0.00632905
0.00632905
0.00632899
0.00632897
0.00632896
0.00632895
0.00632894
0.00632894
0.00632894
0.00632879
0.00632879
0.00632879
0.00632879
0.00632879
0.00632878
0.00632878
0.00632882
0.00632883
0.00632882
0.00632883
0.00632882
0.00632893
0.00632894
0.00632892
0.00632891
0.00632885
0.00632883
0.00632881
0.0063288
0.0063288
0.00632879
0.00632879
0.00632864
0.00632864
0.00632864
0.00632864
0.00632863
0.00632863
0.00632862
0.00632866
0.00632867
0.00632866
0.00632866
0.00632863
0.0063288
0.00632882
0.00632879
0.00632878
0.00632871
0.00632869
0.00632867
0.00632866
0.00632865
0.00632864
0.00632864
0.00632849
0.00632849
0.00632849
0.00632849
0.00632848
0.00632848
0.00632847
0.00632851
0.00632851
0.0063285
0.0063285
0.00632846
0.00632866
0.0063287
0.00632866
0.00632864
0.00632858
0.00632855
0.00632852
0.00632851
0.0063285
0.00632849
0.00632848
0.00632834
0.00632834
0.00632834
0.00632834
0.00632833
0.00632833
0.00632832
0.00632835
0.00632836
0.00632835
0.00632834
0.00632831
0.0063285
0.00632857
0.00632854
0.00632851
0.00632844
0.00632841
0.00632838
0.00632836
0.00632835
0.00632834
0.00632833
0.0063282
0.00632819
0.00632819
0.00632819
0.00632819
0.00632818
0.00632817
0.00632821
0.00632821
0.0063282
0.00632819
0.00632816
0.00632835
0.00632844
0.00632841
0.00632838
0.0063283
0.00632827
0.00632824
0.00632822
0.0063282
0.00632819
0.00632818
0.00632805
0.00632805
0.00632804
0.00632804
0.00632804
0.00632803
0.00632803
0.00632806
0.00632806
0.00632805
0.00632805
0.00632802
0.00632817
0.00632831
0.00632827
0.00632824
0.00632816
0.00632813
0.0063281
0.00632807
0.00632805
0.00632804
0.00632803
0.0063279
0.0063279
0.0063279
0.0063279
0.00632789
0.00632789
0.00632788
0.00632785
0.0063279
0.0063279
0.0063279
0.00632788
0.00576951
0.00632797
0.00632816
0.00632813
0.00632811
0.00632802
0.00632798
0.00632795
0.00632792
0.0063279
0.00632789
0.00632787
0.00632775
0.00632775
0.00632775
0.00632775
0.00632775
0.00632774
0.00632773
0.0063277
0.00632775
0.00632776
0.00632776
0.00632772
0.00616162
0.00632762
0.00632798
0.00632799
0.00632789
0.00632787
0.00632784
0.00632781
0.00632778
0.00632775
0.00632774
0.00632772
0.00632761
0.00632761
0.0063276
0.0063276
0.0063276
0.0063276
0.00632759
0.00632756
0.0063276
0.00632761
0.00632758
0.00632758
0.00624529
0.00632376
0.00632777
0.00632784
0.00632775
0.00632773
0.00632769
0.00632766
0.00632763
0.0063276
0.00632758
0.00632757
0.00632746
0.00632746
0.00632746
0.00632746
0.00632745
0.00632745
0.00632744
0.00632742
0.0063274
0.00632746
0.00632745
0.00632741
0.00626538
0.00631009
0.00632709
0.00632768
0.00632761
0.00632758
0.00632755
0.00632751
0.00632748
0.00632745
0.00632743
0.00632741
0.00632731
0.00632731
0.00632731
0.00632731
0.00632731
0.00632731
0.0063273
0.00632728
0.00632726
0.00632725
0.0063273
0.00632727
0.00628398
0.00629861
0.00632555
0.00632718
0.00632742
0.00632743
0.0063274
0.00632736
0.00632733
0.0063273
0.00632728
0.00632726
0.00632717
0.00632717
0.00632717
0.00632717
0.00632717
0.00632716
0.00632716
0.00632714
0.00632712
0.00632711
0.00632709
0.00632685
0.00629055
0.00630262
0.00632234
0.00632638
0.00632713
0.00632725
0.00632725
0.00632722
0.00632718
0.00632715
0.00632712
0.0063271
0.00632702
0.00632702
0.00632702
0.00632702
0.00632702
0.00632702
0.00632701
0.006327
0.00632698
0.00632697
0.00632695
0.00632674
0.00629667
0.00630144
0.00631919
0.00632522
0.00632672
0.00632704
0.00632709
0.00632706
0.00632703
0.006327
0.00632697
0.00632695
0.00632688
0.00632688
0.00632688
0.00632688
0.00632688
0.00632687
0.00632687
0.00632686
0.00632684
0.00632683
0.00632681
0.00632663
0.00630168
0.00630134
0.00631635
0.00632378
0.00632614
0.00632677
0.00632691
0.00632691
0.00632688
0.00632685
0.00632682
0.00632679
0.00632673
0.00632673
0.00632673
0.00632673
0.00632673
0.00632673
0.00632673
0.00632672
0.0063267
0.00632669
0.00632667
0.00632652
0.00630579
0.00630198
0.00631396
0.00632217
0.0063254
0.00632643
0.0063267
0.00632674
0.00632673
0.00632669
0.00632666
0.00632664
0.00632659
0.00632659
0.00632659
0.00632659
0.00632659
0.00632659
0.00632658
0.00632658
0.00632656
0.00632655
0.00632653
0.0063264
0.00630917
0.0063031
0.00631206
0.00632048
0.00632451
0.00632599
0.00632645
0.00632656
0.00632657
0.00632654
0.00632651
0.00632648
0.00632644
0.00632645
0.00632645
0.00632645
0.00632645
0.00632644
0.00632644
0.00632644
0.00632642
0.00632641
0.00632639
0.00632628
0.00631195
0.00630452
0.00631068
0.0063188
0.00632348
0.00632546
0.00632616
0.00632637
0.0063264
0.00632639
0.00632636
0.00632633
0.0063263
0.0063263
0.0063263
0.0063263
0.0063263
0.0063263
0.0063263
0.00632629
0.00632628
0.00632627
0.00632625
0.00632615
0.00631423
0.00630608
0.00630977
0.00631722
0.00632236
0.00632483
0.00632581
0.00632614
0.00632623
0.00632623
0.0063262
0.00632617
0.00632616
0.00632616
0.00632616
0.00632616
0.00632616
0.00632616
0.00632616
0.00632615
0.00632614
0.00632613
0.00632611
0.00632603
0.00631609
0.00630769
0.00630928
0.0063158
0.00632118
0.00632411
0.0063254
0.00632589
0.00632604
0.00632606
0.00632604
0.00632602
0.00632601
0.00632601
0.00632601
0.00632601
0.00632602
0.00632601
0.00632601
0.00632601
0.006326
0.00632599
0.00632597
0.0063259
0.00631762
0.00630928
0.00630914
0.00631457
0.00631998
0.00632331
0.00632493
0.0063256
0.00632584
0.00632589
0.00632589
0.00632586
0.00632587
0.00632587
0.00632587
0.00632587
0.00632587
0.00632587
0.00632587
0.00632587
0.00632586
0.00632585
0.00632583
0.00632577
0.00631886
0.0063108
0.0063093
0.00631356
0.00631881
0.00632245
0.00632439
0.00632527
0.00632561
0.00632571
0.00632572
0.0063257
0.00632572
0.00632572
0.00632573
0.00632573
0.00632573
0.00632573
0.00632573
0.00632573
0.00632572
0.00632571
0.0063257
0.00632564
0.00631987
0.00631224
0.00630967
0.00631277
0.00631769
0.00632154
0.00632379
0.00632489
0.00632536
0.00632552
0.00632556
0.00632555
0.00632558
0.00632558
0.00632558
0.00632558
0.00632558
0.00632559
0.00632559
0.00632558
0.00632558
0.00632557
0.00632556
0.00632551
0.0063207
0.00631356
0.00631021
0.00631221
0.00631665
0.00632061
0.00632314
0.00632447
0.00632508
0.00632531
0.00632538
0.00632538
0.00632544
0.00632544
0.00632544
0.00632544
0.00632544
0.00632544
0.00632544
0.00632544
0.00632544
0.00632543
0.00632542
0.00632537
0.00632136
0.00631477
0.00631086
0.00631185
0.00631572
0.00631967
0.00632244
0.006324
0.00632477
0.00632509
0.0063252
0.00632522
0.00632529
0.00632529
0.00632529
0.0063253
0.0063253
0.0063253
0.0063253
0.0063253
0.0063253
0.00632529
0.00632528
0.00632524
0.00632189
0.00631586
0.00631159
0.00631167
0.00631491
0.00631875
0.00632169
0.00632349
0.00632442
0.00632484
0.00632501
0.00632505
0.00632515
0.00632515
0.00632515
0.00632515
0.00632515
0.00632516
0.00632516
0.00632516
0.00632515
0.00632515
0.00632514
0.0063251
0.0063223
0.00631683
0.00631237
0.00631166
0.00631423
0.00631787
0.00632093
0.00632293
0.00632404
0.00632457
0.0063248
0.00632487
0.006325
0.00632501
0.00632501
0.00632501
0.00632501
0.00632501
0.00632501
0.00632502
0.00632501
0.00632501
0.006325
0.00632497
0.00632263
0.00631769
0.00631315
0.00631178
0.00631368
0.00631703
0.00632015
0.00632233
0.00632362
0.00632428
0.00632458
0.00632469
0.00632486
0.00632486
0.00632486
0.00632486
0.00632487
0.00632487
0.00632487
0.00632487
0.00632487
0.00632487
0.00632486
0.00632483
0.00632287
0.00631844
0.00631393
0.00631202
0.00631327
0.00631627
0.00631937
0.0063217
0.00632316
0.00632396
0.00632434
0.0063245
0.00632472
0.00632472
0.00632472
0.00632472
0.00632472
0.00632473
0.00632473
0.00632473
0.00632473
0.00632473
0.00632472
0.00632469
0.00632306
0.0063191
0.00631469
0.00631235
0.00631298
0.00631558
0.0063186
0.00632105
0.00632268
0.00632361
0.00632408
0.00632429
0.00632865
0.00632881
0.00632892
0.00632848
0.00632864
0.00632879
0.00632833
0.00632846
0.00632861
0.00632818
0.0063283
0.00632844
0.00632804
0.00632811
0.00632828
0.0063279
0.00624265
0.00567606
0.00632788
0.00632808
0.00632885
0.00632904
0.00632894
0.00632907
0.0063287
0.00632866
0.00632883
0.00632872
0.00632889
0.00632881
0.00632885
0.00632894
0.00632853
0.00632849
0.00632864
0.00632856
0.00632851
0.00632859
0.00632593
0.0063277
0.00632867
0.00632873
0.00632882
0.00632838
0.00632834
0.00632847
0.0063284
0.00632835
0.00632842
0.00630642
0.00631915
0.00632852
0.0063286
0.0063287
0.00632823
0.00632819
0.00632832
0.00632825
0.00632821
0.00632827
0.00631172
0.00630175
0.00632837
0.00632848
0.00632857
0.00631914
0.0063202
0.0063282
0.00632834
0.00632844
0.00632162
0.00632084
0.00632776
0.00631623
0.00625212
0.00617235
0.00632722
0.00632784
0.0063286
0.0063287
0.00632872
0.00632869
0.00632859
0.00632881
0.0063287
0.00632781
0.0063287
0.00632886
0.00632875
0.00632824
0.00632843
0.0063285
0.00632854
0.00632849
0.00632842
0.00632858
0.0063285
0.00631992
0.00632585
0.00632871
0.00632675
0.00632465
0.00632815
0.00632682
0.00632873
0.00632828
0.00632834
0.00632838
0.00632834
0.00632828
0.00632841
0.00632834
0.00630209
0.00630531
0.00632852
0.00632134
0.00632064
0.00632454
0.00632165
0.00632855
0.0063282
0.00632814
0.00632827
0.0063282
0.00631992
0.00631269
0.00632836
0.00632282
0.00632502
0.00632062
0.00632264
0.00632838
0.00632806
0.006328
0.00632813
0.00632807
0.0063207
0.0063194
0.00632508
0.0063254
0.00632821
0.00632792
0.00632786
0.00632799
0.00632793
0.00632212
0.00632176
0.00632875
0.00632871
0.00632882
0.00632795
0.00632885
0.00632809
0.00632805
0.00632817
0.00632811
0.00632808
0.00632814
0.006156
0.00611126
0.00632799
0.00632819
0.0063283
0.0063288
0.00632872
0.0063289
0.00632878
0.00632887
0.00632815
0.00632821
0.00632824
0.00632738
0.00632753
0.0063279
0.00632791
0.00632754
0.00632774
0.00610295
0.00602821
0.00632819
0.00632543
0.00632554
0.00632791
0.0063279
0.00632555
0.00632559
0.006328
0.00632895
0.00632893
0.00632883
0.0063289
0.00632897
0.00632896
0.00632765
0.00632883
0.00632815
0.00632886
0.00632831
0.00632885
0.00632657
0.00632691
0.00631457
0.00631492
0.00630767
0.00630604
0.00631819
0.00604973
0.00632172
0.00620426
0.0061618
0.00618372
0.00621253
0.00632119
0.00632863
0.00632865
0.00632859
0.00632864
0.00632859
0.00632863
0.00632865
0.00632872
0.00632875
0.00632871
0.00632864
0.00632832
0.00632839
0.00632846
0.00632845
0.00632854
0.00632854
0.00632234
0.00632267
0.00632518
0.0063284
0.00632849
0.00632828
0.00632837
0.00632513
0.00632752
0.00632863
0.0063287
0.00632852
0.00632861
0.00632736
0.00632831
0.0063283
0.00632838
0.00632837
0.00629224
0.00629437
0.00631852
0.00632803
0.00632808
0.00632799
0.00632802
0.00631818
0.00632364
0.00632818
0.00632826
0.0063281
0.00632816
0.00632349
0.0063274
0.00632817
0.00632774
0.00632767
0.00632789
0.00632775
0.00632816
0.00632824
0.00632767
0.00632823
0.00631738
0.00631684
0.00632134
0.00632795
0.00632798
0.00632791
0.00632794
0.00632163
0.00632786
0.0063279
0.0063281
0.00632796
0.0063279
0.00632798
0.00632796
0.0063281
0.00632775
0.00632785
0.00632024
0.00613396
0.00617864
0.00605584
0.00612458
0.00632005
0.00600936
0.00632785
0.00632784
0.00631431
0.0063279
0.00632786
0.00592554
0.00621814
0.00620954
0.00632876
0.00632794
0.00632791
0.00632803
0.00632797
0.00632794
0.00632799
0.00602732
0.00631007
0.00631814
0.00632878
0.00632801
0.00632807
0.00632809
0.00632622
0.00632637
0.00612909
0.00632781
0.00632779
0.00632648
0.00632667
0.00622626
0.00622413
0.00523767
0.00632889
0.00632888
0.00632882
0.00632886
0.00632891
0.00632889
0.00632854
0.00632857
0.00632854
0.00632608
0.00632532
0.00632733
0.00632838
0.00632841
0.00632838
0.00632845
0.00632842
0.00632839
0.00631056
0.00631775
0.00630971
0.00630049
0.00583315
0.00576783
0.0063213
0.00621619
0.00624957
0.00632784
0.00632779
0.00630713
0.00632876
0.00632873
0.00632881
0.00632801
0.00632606
0.00632555
0.00632862
0.00632879
0.00632883
0.00632872
0.00632878
0.00632855
0.00632846
0.00632849
0.00632846
0.00632853
0.0063285
0.00632847
0.00632848
0.00632845
0.00632847
0.00632839
0.0063284
0.00632843
0.00632848
0.00632849
0.00632852
0.00632083
0.00632389
0.00632586
0.00632792
0.00632797
0.00632752
0.00632761
0.00632487
0.00632837
0.00632834
0.00632832
0.00632833
0.0063283
0.00632831
0.0063284
0.00632837
0.00632838
0.00632831
0.00632833
0.00632836
0.00629699
0.00630047
0.00632014
0.00632705
0.0063271
0.00632668
0.00632702
0.00631976
0.00632423
0.0063274
0.00632749
0.00632711
0.00632717
0.00632259
0.00631889
0.00624488
0.006258
0.00624277
0.00622949
0.00631463
0.00632472
0.00632787
0.0063279
0.00632784
0.00632786
0.00632481
0.00632804
0.00632797
0.00632798
0.00632796
0.00632798
0.00632803
0.00632714
0.0063272
0.00632797
0.00632793
0.00632795
0.00632706
0.00632712
0.00593884
0.00585381
0.00632859
0.00632879
0.00632873
0.00576936
0.00613854
0.0057897
0.00581948
0.00581524
0.00613309
0.00632877
0.00632874
0.00632879
0.00632872
0.00632875
0.00632731
0.0063274
0.00632628
0.00632623
0.00632791
0.00632677
0.00632668
0.00632696
0.00632679
0.00632791
0.0063276
0.00632764
0.00607476
0.00606122
0.00632791
0.00632719
0.00632704
0.00632669
0.00632678
0.00632728
0.00632852
0.00632871
0.00632808
0.00632843
0.00632714
0.00632614
0.00632725
0.00631126
0.00631714
0.00630942
0.00630093
0.00608911
0.00625017
0.00624015
0.00626051
0.00625341
0.00608229
0.00621663
0.00621005
0.00623738
0.00622232
0.00618707
0.00592066
0.00596941
0.00584647
0.0058986
0.00618067
0.00573547
0.00575598
0.00632861
0.00632864
0.00632862
0.00632867
0.00632865
0.00632862
0.00632858
0.00632856
0.00632861
0.00632859
0.00632868
0.0063287
0.00632868
0.00632868
0.00632867
0.00632712
0.0063262
0.00632809
0.00632623
0.0063274
0.00632794
0.00632638
0.00632723
0.00632856
0.00632775
0.00632722
0.00632843
0.00632844
0.00632847
0.00632844
0.00632842
0.00632846
0.00632844
0.00632839
0.00632838
0.00632842
0.0063284
0.00632844
0.00632841
0.00632842
0.00632853
0.00632851
0.00632856
0.00632854
0.00632848
0.00632847
0.00632851
0.00632849
0.00632852
0.0063285
0.00632852
0.00632136
0.00632377
0.00632778
0.00632789
0.00632552
0.00632495
0.00632765
0.00632774
0.00632828
0.0063283
0.00632832
0.00632826
0.00632825
0.00632826
0.00632826
0.00632823
0.00632822
0.00632824
0.00632823
0.00632835
0.00632836
0.00632839
0.00632835
0.00632833
0.00632837
0.00632835
0.00632829
0.00632827
0.00632832
0.0063283
0.00632836
0.00632833
0.00632835
0.00629292
0.00629879
0.00632701
0.00632704
0.0063197
0.00631913
0.00632701
0.006327
0.00632729
0.00632737
0.0063241
0.00632281
0.00632719
0.00632726
0.0063275
0.00632764
0.00632816
0.00632815
0.00632817
0.00632816
0.00632758
0.00632785
0.00632813
0.00632811
0.00632814
0.00632813
0.00632782
0.00632821
0.0063282
0.00632822
0.00632821
0.00632774
0.00632819
0.00632818
0.0063282
0.00632819
0.00632776
0.00623678
0.00624212
0.00631856
0.00618813
0.00621339
0.00620637
0.00618402
0.00621592
0.00631507
0.00622248
0.00622985
0.00632788
0.00632621
0.00632622
0.00632661
0.00632623
0.00632788
0.00632627
0.00632779
0.00632623
0.00632781
0.0060927
0.00626923
0.00626284
0.0062778
0.00627139
0.00609716
0.00598946
0.00600735
0.00632723
0.00632731
0.00632685
0.00632703
0.00605379
0.00596538
0.00632895
0.00632897
0.00632907
0.00632797
0.00632615
0.00632598
0.00632885
0.00632885
0.0063288
0.00632883
0.00632887
0.00632885
0.006329
0.00632898
0.00632891
0.00632862
0.00632858
0.00632856
0.00632598
0.00632386
0.00632376
0.00630774
0.00631853
0.0063283
0.00632827
0.00632825
0.00628378
0.00628026
0.00630128
0.00626051
0.00626587
0.00632091
0.00632864
0.00632866
0.00632863
0.00632857
0.00632859
0.00632861
0.00632827
0.00632789
0.0063286
0.00632857
0.00632855
0.00632857
0.00632012
0.00632353
0.00632309
0.00632564
0.00632609
0.00632613
0.00632473
0.00632805
0.00632812
0.00632697
0.00632831
0.00632833
0.00632831
0.00632825
0.00632826
0.00632829
0.0063018
0.00628915
0.00628712
0.00630438
0.00632103
0.00632497
0.00632506
0.00632443
0.00632599
0.00632604
0.00632513
0.00632521
0.00632197
0.00632826
0.00632823
0.00632825
0.00632037
0.00632668
0.00632668
0.00632524
0.00632779
0.00632783
0.00632562
0.00632563
0.0063279
0.00632793
0.00632796
0.00632563
0.00632563
0.00625317
0.00626421
0.00632212
0.00632809
0.00632769
0.00632738
0.00632702
0.0063271
0.00632751
0.00632755
0.00632685
0.00632693
0.00632718
0.00632712
0.00632772
0.00596135
0.00594309
0.0060387
0.00632729
0.00632721
0.00632791
0.00632894
0.00632892
0.00632887
0.00632718
0.00632773
0.00632824
0.00632843
0.00632704
0.00632711
0.00632876
0.00632884
0.00632872
0.00632535
0.00632517
0.00632634
0.00632708
0.00632634
0.00632608
0.00631329
0.00631548
0.00628219
0.00628394
0.00630862
0.00630397
0.00627275
0.0062778
0.00610169
0.00610766
0.00614662
0.00614098
0.00605585
0.00611804
0.00612819
0.00632113
0.00626849
0.00627576
0.00632863
0.0063286
0.00632861
0.0063286
0.00632866
0.00632865
0.00632864
0.00632855
0.00632855
0.00632859
0.00632858
0.00632858
0.00632873
0.00632871
0.00632869
0.0063287
0.00632868
0.00632869
0.00632865
0.00632627
0.00632674
0.00632852
0.00632854
0.00632856
0.00632854
0.00632854
0.00632212
0.00632309
0.00632833
0.0063284
0.0063278
0.00632702
0.00632818
0.00632826
0.00632829
0.00632827
0.00632828
0.0062906
0.00629599
0.00632569
0.00632574
0.00632378
0.00632327
0.00632557
0.00632563
0.00632744
0.00632773
0.00632802
0.00632802
0.00632795
0.00632796
0.00632763
0.00632822
0.00632823
0.00632825
0.00632786
0.00632785
0.00632806
0.00632806
0.00632768
0.00632794
0.00632795
0.00632785
0.00632786
0.0063267
0.00632669
0.00632048
0.00632209
0.00632673
0.00632672
0.00632793
0.00632809
0.00632808
0.0063281
0.00632809
0.00632792
0.00615409
0.00626845
0.00627963
0.00627321
0.00627094
0.00616121
0.0060723
0.0061639
0.00615492
0.00598779
0.00597066
0.00603511
0.00632595
0.00632604
0.00632608
0.00632544
0.0063279
0.00632743
0.00632733
0.0063275
0.00632745
0.00632786
0.00592873
0.00588582
0.00598469
0.00603923
0.00622439
0.00632876
0.00632877
0.00632874
0.00632622
0.00632627
0.00632578
0.00632561
0.00614768
0.00632659
0.00632643
0.00632642
0.0063264
0.00632642
0.00632664
0.00545027
0.00602797
0.0060753
0.00632889
0.00632887
0.00632884
0.00632434
0.00632406
0.00632603
0.0063249
0.00632585
0.00632651
0.00632558
0.0063258
0.00630926
0.00631806
0.00624585
0.00625158
0.0062465
0.00624362
0.00630081
0.00627695
0.00627381
0.00581679
0.00575372
0.00575762
0.00575489
0.00575621
0.00579824
0.00632598
0.00632691
0.00632696
0.00632675
0.00632686
0.00632587
0.00632041
0.00632514
0.00632276
0.00632205
0.0063248
0.00632618
0.00632622
0.00629159
0.00629097
0.00630046
0.00630231
0.00632478
0.00632488
0.00632059
0.0063259
0.00632595
0.00632433
0.0063223
0.00632529
0.00632537
0.00624112
0.00625958
0.00625351
0.00626312
0.00626215
0.00623707
0.00632563
0.00632567
0.00632565
0.00632563
0.00632708
0.00632649
0.00632647
0.00582241
0.00581249
0.00591022
0.00581725
0.00584873
0.00576892
0.0057911
0.00588062
0.00632834
0.00632816
0.00632844
0.00632804
0.00632871
0.00632878
0.00632882
0.00632844
0.00632859
0.0063284
0.00577794
0.00594685
0.00593705
0.00597832
0.00596172
0.00578896
0.00585847
0.00590193
0.00587934
0.00593046
0.00592135
0.00584142
0.00632875
0.00632876
0.00632875
0.00632871
0.0063287
0.00632873
0.00632872
0.00632731
0.00632748
0.00632717
0.0063272
0.00632627
0.00632625
0.00632733
0.00632736
0.00632672
0.00632678
0.00632679
0.00632757
0.0063268
0.00632672
0.00632683
0.00632768
0.006327
0.00632686
0.00595795
0.0059773
0.00608636
0.00590178
0.0059126
0.0058731
0.00588371
0.00604852
0.0059318
0.00593643
0.00632671
0.00632635
0.00632638
0.00632621
0.00632632
0.00632674
0.00632794
0.00632807
0.00632751
0.00632648
0.00632723
0.00632778
0.00632427
0.00632621
0.00632504
0.00632469
0.00632503
0.00632527
0.00632482
0.00632488
0.00631218
0.00631622
0.00626341
0.00626698
0.00625565
0.00625939
0.00630911
0.00628435
0.00628411
0.00627116
0.00627096
0.00630209
0.00626856
0.00611892
0.00610479
0.00606922
0.00613695
0.00613116
0.00621305
0.00614437
0.00613914
0.00616793
0.00615573
0.00621122
0.00623386
0.00616813
0.00617348
0.00614363
0.00615679
0.00622864
0.00613315
0.00586254
0.00600423
0.00599292
0.00572439
0.00573512
0.00632862
0.00632862
0.00632861
0.0063286
0.00632862
0.00632864
0.00632863
0.00632856
0.00632856
0.00632855
0.00632856
0.00632857
0.00632858
0.00632857
0.00632867
0.00632867
0.00632869
0.00632869
0.00632866
0.00632865
0.00632866
0.00632695
0.00632753
0.00632767
0.00632707
0.00632726
0.00632637
0.00632552
0.00632617
0.00632754
0.00632692
0.00632667
0.00632747
0.00632697
0.00632771
0.00632659
0.00632647
0.00632618
0.00632679
0.00632843
0.00632843
0.00632846
0.00632845
0.00632845
0.00632845
0.00632845
0.00632839
0.00632838
0.00632841
0.0063284
0.00632852
0.00632852
0.00632852
0.0063285
0.00632851
0.00632852
0.00632855
0.00632854
0.00632855
0.00632853
0.00632854
0.00632854
0.00632853
0.00632853
0.00632848
0.00632847
0.00632848
0.00632846
0.00632847
0.00632847
0.0063285
0.00632849
0.0063285
0.00632848
0.00632849
0.00632849
0.00632201
0.00632361
0.00632826
0.00632822
0.00632823
0.00632816
0.00632818
0.00632825
0.00632825
0.00632824
0.00632824
0.00632826
0.00632822
0.00632805
0.00632809
0.00632804
0.00632803
0.00632822
0.00632824
0.00632814
0.00632815
0.00632813
0.00632814
0.00632824
0.00632834
0.00632834
0.00632837
0.00632836
0.00632828
0.00632827
0.00632832
0.00632831
0.00629092
0.00629728
0.00632394
0.00632579
0.00632585
0.00632544
0.0063255
0.00632303
0.00632748
0.006328
0.00632801
0.0063277
0.00632757
0.00632797
0.00632798
0.00632792
0.00632788
0.00632821
0.0063281
0.0063281
0.00632822
0.00632809
0.00632807
0.0063281
0.0063281
0.00632822
0.00632805
0.00632798
0.00632792
0.00632794
0.00632771
0.00632784
0.00632789
0.0062397
0.00627922
0.00627721
0.0062818
0.00628055
0.00624071
0.00619707
0.00620677
0.00619763
0.00617948
0.00617591
0.00618751
0.00621924
0.00626653
0.00626428
0.00627401
0.00627008
0.00622193
0.00632621
0.00632699
0.00632702
0.00632694
0.00632697
0.00632621
0.00632647
0.00632722
0.00632729
0.00632708
0.00632715
0.00632632
0.00632621
0.0063265
0.0063265
0.00632661
0.00632656
0.00632639
0.00632684
0.00632691
0.00632657
0.00632671
0.00632647
0.00617625
0.00617128
0.00608627
0.00598076
0.00602501
0.00632575
0.0063259
0.00632692
0.00632625
0.00632612
0.00632644
0.00632637
0.00632698
0.00632562
0.00632565
0.00585327
0.00583361
0.00632922
0.00632922
0.00632931
0.00632923
0.00632924
0.00632932
0.00632924
0.00632925
0.00632932
0.00632925
0.00632926
0.00632933
0.00632906
0.00632905
0.00632914
0.00632905
0.00632905
0.00632918
0.00632905
0.00632907
0.0063292
0.00632907
0.00632909
0.00632921
0.0063291
0.00632911
0.00632922
0.00632912
0.00632912
0.00632919
0.0063289
0.00632888
0.00632901
0.00632887
0.00632885
0.006329
0.00632895
0.00632896
0.00632903
0.00632897
0.00632899
0.00632906
0.00632902
0.00632903
0.00632906
0.00632898
0.00632899
0.00632905
0.00632874
0.00632871
0.00632883
0.00632879
0.00632878
0.00632883
0.0063288
0.00632879
0.00632882
0.00632888
0.0063289
0.00632895
0.00632885
0.00632886
0.00632892
0.00632858
0.00632854
0.00632866
0.00632862
0.00632861
0.00632865
0.0063286
0.00632859
0.00632862
0.00632875
0.00632877
0.00632882
0.00632873
0.00632874
0.0063288
0.00632842
0.00632839
0.0063285
0.00632846
0.00632845
0.00632849
0.00632844
0.00632843
0.00632845
0.0063286
0.00632865
0.00632869
0.0063286
0.00632861
0.00632867
0.00632827
0.00632824
0.00632835
0.00632831
0.0063283
0.00632833
0.00632829
0.00632828
0.0063283
0.00632845
0.00632852
0.00632857
0.00632848
0.00632848
0.00632855
0.00632812
0.00632809
0.0063282
0.00632815
0.00632814
0.00632816
0.00632829
0.00632837
0.00632843
0.00632834
0.00632835
0.00632842
0.00632798
0.00632795
0.00632806
0.0063281
0.00632821
0.00632825
0.0063282
0.00632821
0.00632828
0.00632783
0.00632781
0.00632788
0.00632779
0.00632777
0.00632787
0.00632783
0.0063278
0.00632785
0.00597197
0.00610477
0.00618841
0.00632777
0.00632803
0.00632815
0.00632805
0.00632807
0.00632814
0.00632768
0.00632767
0.00632774
0.00632765
0.00632763
0.00632774
0.00632762
0.00632448
0.00632275
0.00622976
0.00631187
0.0063261
0.00632519
0.00632781
0.00632799
0.00632789
0.00632792
0.006328
0.00632751
0.0063275
0.00632757
0.00632748
0.0063265
0.0063249
0.00625298
0.00626613
0.006304
0.00631695
0.00632623
0.00632736
0.00632864
0.00632866
0.00632867
0.00632882
0.00632881
0.00632877
0.00632892
0.0063289
0.00632891
0.00632847
0.00632849
0.0063285
0.00632866
0.00632851
0.00632845
0.00632875
0.0063287
0.00632877
0.00632832
0.00632833
0.00632834
0.00632848
0.00632822
0.00632819
0.00632842
0.00632837
0.00632859
0.00632817
0.00632819
0.0063282
0.00632832
0.00632806
0.00632809
0.00632818
0.00632815
0.00632842
0.00632814
0.00632793
0.00632791
0.00632807
0.00632805
0.00632825
0.00632787
0.00632793
0.00632795
0.00616068
0.00632243
0.00632296
0.00569665
0.00570026
0.00554724
0.00632788
0.00632785
0.00632806
0.00632883
0.00632893
0.00632893
0.00632882
0.00632882
0.00632879
0.00632903
0.00632896
0.00632897
0.00632883
0.00632882
0.00632896
0.00632895
0.00632893
0.00632907
0.006329
0.00632902
0.00632869
0.00632874
0.00632874
0.00632873
0.00632873
0.00632868
0.00632882
0.00632877
0.00632875
0.00632877
0.0063286
0.00632836
0.00632888
0.00632886
0.00632888
0.00632884
0.00632888
0.00632886
0.00632888
0.00632888
0.00632885
0.00632894
0.00632891
0.00632891
0.00632853
0.00632857
0.00632858
0.00632855
0.00632856
0.00632851
0.00632864
0.0063286
0.00632857
0.00632855
0.00632857
0.00632858
0.00632852
0.00632853
0.00632852
0.0063286
0.00632859
0.00632858
0.00632721
0.00632692
0.00632756
0.00632871
0.00632876
0.00632873
0.00632876
0.00632876
0.00632873
0.00632882
0.00632879
0.00632879
0.00632837
0.00632841
0.00632842
0.00632839
0.0063284
0.00632836
0.00632848
0.00632844
0.00632841
0.00632839
0.00632841
0.00632842
0.00632836
0.00632837
0.00632836
0.00632843
0.00632842
0.00632841
0.00632858
0.00632863
0.00632858
0.00632864
0.00632863
0.0063286
0.00632869
0.00632866
0.00632867
0.00632822
0.00632826
0.00632827
0.00632824
0.00632825
0.00632821
0.00632832
0.00632829
0.00632826
0.00632824
0.00632826
0.00632827
0.00632824
0.00632826
0.00632823
0.00632828
0.00632828
0.00632827
0.00631081
0.00628614
0.0062888
0.00632845
0.0063285
0.00632843
0.00632851
0.0063285
0.00632847
0.00632857
0.00632854
0.00632854
0.00631885
0.00628455
0.00628877
0.0063097
0.00631033
0.00632045
0.00632829
0.00632833
0.00632826
0.00632837
0.00632836
0.00632833
0.00632844
0.0063284
0.00632841
0.00632152
0.00631053
0.00631103
0.00630739
0.00630796
0.00632096
0.00632774
0.00632779
0.00632779
0.00630986
0.00632778
0.00632773
0.00632778
0.00632777
0.00627597
0.00624906
0.00630258
0.00607374
0.00632748
0.00632383
0.00632135
0.00632594
0.00632433
0.00632772
0.00632862
0.00632863
0.00632862
0.00632872
0.00632868
0.00632866
0.0063287
0.00632869
0.00632871
0.00632867
0.00632866
0.00632868
0.0063288
0.00632879
0.00632881
0.00632869
0.00632871
0.00632872
0.00632788
0.00632746
0.00632737
0.00632866
0.0063286
0.00632868
0.00632885
0.00632883
0.00632884
0.00632872
0.00632877
0.00632879
0.00632855
0.00632859
0.00632839
0.00632844
0.00632845
0.00632844
0.00632851
0.0063285
0.00632849
0.00632852
0.00632851
0.00632853
0.00632849
0.00632848
0.00632849
0.00632841
0.00632841
0.00632842
0.0063285
0.0063285
0.00632851
0.0063286
0.00632853
0.00632868
0.00632663
0.00632726
0.00632735
0.00632787
0.00632845
0.00632851
0.00632741
0.00632746
0.00632687
0.00632875
0.00632868
0.00632862
0.00632829
0.0063283
0.00632829
0.00632836
0.00632835
0.00632834
0.00632836
0.00632835
0.00632837
0.00632833
0.00632833
0.00632833
0.00632827
0.00632827
0.00632828
0.00632841
0.0063284
0.0063284
0.00632833
0.00632834
0.00632835
0.00632828
0.00632824
0.0063285
0.00632492
0.00632488
0.00632053
0.00632857
0.00632835
0.0063283
0.00632819
0.00632817
0.00632818
0.00632813
0.00632814
0.00632815
0.00632827
0.00632826