/*--------------------------------*- C++ -*----------------------------------*\
| =========                 |                                                 |
| \\      /  F ield         | OpenFOAM: The Open Source CFD Toolbox           |
|  \\    /   O peration     | Version:  5.x                                   |
|   \\  /    A nd           | Web:      www.OpenFOAM.org                      |
|    \\/     M anipulation  |                                                 |
\*---------------------------------------------------------------------------*/
FoamFile
{
    version     2.0;
    format      ascii;
    class       volScalarField;
    location    "2287";
    object      YSat;
}
// * * * * * * * * * * * * * * * * * * * * * * * * * * * * * * * * * * * * * //

dimensions      [0 0 0 0 0 0 0];

internalField   nonuniform List<scalar> 
6584
(
0.00431405
0.00431405
0.00431405
0.00431405
0.00431405
0.00431405
0.00431405
0.00431405
0.00431405
0.00431405
0.00431405
0.00431405
0.00431405
0.00431405
0.00431405
0.00431405
0.00431405
0.00431405
0.00431405
0.00431405
0.00431405
0.00431405
0.00431405
0.00431405
0.00431405
0.00431405
0.00431405
0.00431405
0.00431405
0.00431405
0.00431405
0.00431405
0.00431405
0.00431405
0.00431405
0.00431405
0.00431405
0.00431405
0.00431405
0.00431405
0.00431405
0.00431405
0.00431405
0.00431405
0.00431405
0.00431405
0.00431405
0.00431405
0.00431405
0.00431405
0.00431405
0.00431405
0.00431405
0.00431405
0.00431405
0.00431405
0.00431405
0.00431405
0.00431405
0.00431405
0.00431405
0.00431405
0.00431405
0.00431405
0.00431405
0.00431405
0.00431405
0.00431405
0.00431405
0.00431405
0.00431405
0.00431405
0.00431405
0.00431405
0.00431405
0.00431405
0.00431405
0.00431405
0.00431405
0.00431405
0.00431405
0.00431405
0.00431405
0.00431405
0.00431405
0.00431405
0.00431405
0.00431405
0.00431405
0.00431405
0.00431405
0.00431405
0.00431405
0.00431405
0.00431405
0.00431405
0.00431405
0.00431405
0.00431405
0.00431405
0.00431405
0.00431405
0.00431405
0.00431405
0.00431405
0.00431405
0.00431405
0.00431405
0.00431405
0.00431405
0.00431405
0.00431405
0.00431405
0.00431405
0.00431405
0.00431405
0.00431405
0.00431405
0.00431405
0.00431405
0.00431405
0.00431405
0.00431405
0.00431405
0.00431405
0.00431405
0.00431405
0.00431405
0.00431405
0.00431405
0.00431405
0.00431405
0.00431405
0.00431405
0.00431405
0.00431405
0.00431405
0.00431405
0.00431405
0.00431405
0.00431405
0.00431405
0.00431405
0.00431405
0.00431405
0.00431405
0.00431405
0.00431405
0.00431405
0.00431405
0.00431405
0.00431405
0.00431405
0.00431405
0.00431405
0.00431405
0.00431405
0.00431405
0.00431405
0.00431405
0.00431405
0.00431405
0.00431405
0.00431405
0.00431405
0.00431405
0.00431405
0.00431405
0.00431405
0.00431405
0.00431405
0.00431405
0.00431405
0.00431405
0.00431405
0.00431405
0.00431405
0.00431405
0.00431405
0.00431405
0.00431405
0.00431405
0.00431405
0.00431405
0.00431405
0.00431405
0.00431405
0.00431405
0.00431405
0.00431405
0.00431405
0.00431405
0.00431405
0.00431405
0.00431405
0.00431405
0.00431405
0.00431405
0.00431405
0.00431405
0.00431405
0.00431405
0.00431405
0.00431405
0.00431405
0.00431405
0.00431405
0.00431405
0.00431405
0.00431405
0.00431405
0.00431405
0.00431405
0.00431405
0.00431405
0.00431405
0.00431405
0.00431405
0.00431405
0.00431405
0.00431405
0.00431405
0.00431405
0.00431405
0.00431405
0.00431405
0.00431403
0.00431405
0.00431405
0.00431405
0.00431405
0.00431405
0.00431405
0.00431405
0.00431405
0.00431405
0.00431405
0.00431405
0.00431405
0.00431405
0.00431405
0.00431405
0.00431405
0.00431405
0.00431405
0.00431405
0.00431405
0.00431405
0.00431405
0.00431402
0.00431405
0.00431405
0.00431405
0.00431405
0.00431405
0.00431405
0.00431405
0.00431405
0.00431405
0.00431405
0.00431405
0.00431405
0.00431405
0.00431405
0.00431405
0.00431405
0.00431405
0.00431405
0.00431405
0.00431405
0.00431405
0.00431405
0.00431401
0.00431405
0.00431405
0.00431405
0.00431405
0.00431405
0.00431405
0.00431405
0.00431405
0.00431405
0.00431405
0.00431405
0.00431405
0.00431405
0.00431405
0.00431405
0.00431405
0.00431405
0.00431405
0.00431405
0.00431405
0.00431405
0.00431405
0.004314
0.00431405
0.00431405
0.00431405
0.00431405
0.00431405
0.00431405
0.00431405
0.00431405
0.00431405
0.00431405
0.00431405
0.00431405
0.00431405
0.00431405
0.00431405
0.00431405
0.00431405
0.00431405
0.00431405
0.00431405
0.00431405
0.00431405
0.00389975
0.004314
0.00431405
0.00431405
0.00431405
0.00431405
0.00431405
0.00431405
0.00431405
0.00431405
0.00431405
0.00431405
0.00431405
0.00431405
0.00431405
0.00431405
0.00431405
0.00431405
0.00431405
0.00431405
0.00431405
0.00431405
0.00431405
0.00431405
0.00418699
0.00431389
0.00431405
0.00431405
0.00431405
0.00431405
0.00431405
0.00431405
0.00431405
0.00431405
0.00431405
0.00431405
0.00431405
0.00431405
0.00431405
0.00431405
0.00431405
0.00431405
0.00431405
0.00431405
0.00431405
0.00431405
0.00431405
0.00431405
0.00425071
0.00431111
0.00431401
0.00431405
0.00431405
0.00431405
0.00431405
0.00431405
0.00431405
0.00431405
0.00431405
0.00431405
0.00431405
0.00431405
0.00431405
0.00431405
0.00431405
0.00431405
0.00431405
0.00431405
0.00431405
0.00431405
0.00431405
0.00431405
0.00426629
0.00430074
0.00431363
0.00431404
0.00431405
0.00431405
0.00431405
0.00431405
0.00431405
0.00431405
0.00431405
0.00431405
0.00431405
0.00431405
0.00431405
0.00431405
0.00431405
0.00431405
0.00431405
0.00431405
0.00431405
0.00431405
0.00431405
0.00431405
0.00428069
0.00429205
0.00431263
0.00431384
0.00431402
0.00431404
0.00431405
0.00431405
0.00431405
0.00431405
0.00431405
0.00431405
0.00431405
0.00431405
0.00431405
0.00431405
0.00431405
0.00431405
0.00431405
0.00431405
0.00431405
0.00431405
0.00431405
0.00431389
0.00428596
0.00429528
0.0043103
0.00431335
0.00431392
0.00431402
0.00431404
0.00431405
0.00431405
0.00431405
0.00431405
0.00431405
0.00431405
0.00431405
0.00431405
0.00431405
0.00431405
0.00431405
0.00431405
0.00431405
0.00431405
0.00431405
0.00431405
0.00431391
0.00429078
0.0042945
0.00430803
0.00431259
0.00431372
0.00431398
0.00431403
0.00431405
0.00431405
0.00431405
0.00431405
0.00431405
0.00431405
0.00431405
0.00431405
0.00431405
0.00431405
0.00431405
0.00431405
0.00431405
0.00431405
0.00431405
0.00431405
0.00431394
0.00429474
0.00429454
0.00430599
0.00431162
0.0043134
0.00431389
0.00431401
0.00431404
0.00431405
0.00431405
0.00431405
0.00431405
0.00431405
0.00431405
0.00431405
0.00431405
0.00431405
0.00431405
0.00431405
0.00431405
0.00431405
0.00431405
0.00431405
0.00431395
0.00429801
0.00429515
0.00430429
0.00431052
0.00431296
0.00431374
0.00431397
0.00431403
0.00431404
0.00431405
0.00431405
0.00431405
0.00431405
0.00431405
0.00431405
0.00431405
0.00431405
0.00431405
0.00431405
0.00431405
0.00431405
0.00431405
0.00431405
0.00431397
0.00430072
0.00429613
0.00430297
0.00430935
0.0043124
0.00431353
0.0043139
0.00431401
0.00431404
0.00431405
0.00431405
0.00431405
0.00431405
0.00431405
0.00431405
0.00431405
0.00431405
0.00431405
0.00431405
0.00431405
0.00431405
0.00431405
0.00431405
0.00431398
0.00430297
0.00429733
0.00430203
0.0043082
0.00431174
0.00431324
0.00431379
0.00431397
0.00431403
0.00431404
0.00431405
0.00431405
0.00431405
0.00431405
0.00431405
0.00431405
0.00431405
0.00431405
0.00431405
0.00431405
0.00431405
0.00431405
0.00431405
0.00431399
0.00430483
0.00429864
0.00430146
0.00430712
0.00431101
0.00431289
0.00431364
0.00431392
0.00431401
0.00431404
0.00431405
0.00431405
0.00431405
0.00431405
0.00431405
0.00431405
0.00431405
0.00431405
0.00431405
0.00431405
0.00431405
0.00431405
0.00431405
0.004314
0.00430638
0.00429998
0.00430121
0.00430616
0.00431024
0.00431246
0.00431345
0.00431384
0.00431398
0.00431403
0.00431404
0.00431405
0.00431405
0.00431405
0.00431405
0.00431405
0.00431405
0.00431405
0.00431405
0.00431405
0.00431405
0.00431405
0.00431405
0.00431401
0.00430766
0.00430131
0.00430123
0.00430536
0.00430945
0.00431198
0.00431321
0.00431373
0.00431394
0.00431401
0.00431404
0.00431404
0.00431405
0.00431405
0.00431405
0.00431405
0.00431405
0.00431405
0.00431405
0.00431405
0.00431405
0.00431405
0.00431405
0.00431402
0.00430872
0.00430259
0.00430146
0.00430471
0.00430868
0.00431144
0.00431292
0.0043136
0.00431388
0.00431399
0.00431403
0.00431404
0.00431405
0.00431405
0.00431405
0.00431405
0.00431405
0.00431405
0.00431405
0.00431405
0.00431405
0.00431405
0.00431405
0.00431402
0.00430961
0.00430379
0.00430186
0.00430423
0.00430796
0.00431087
0.00431258
0.00431343
0.00431381
0.00431396
0.00431402
0.00431404
0.00431405
0.00431405
0.00431405
0.00431405
0.00431405
0.00431405
0.00431405
0.00431405
0.00431405
0.00431405
0.00431405
0.00431403
0.00431035
0.00430492
0.00430239
0.00430392
0.00430729
0.00431029
0.00431221
0.00431323
0.00431371
0.00431392
0.004314
0.00431403
0.00431405
0.00431405
0.00431405
0.00431405
0.00431405
0.00431405
0.00431405
0.00431405
0.00431405
0.00431405
0.00431405
0.00431403
0.00431096
0.00430595
0.004303
0.00430376
0.0043067
0.0043097
0.00431179
0.00431299
0.00431359
0.00431386
0.00431398
0.00431402
0.00431405
0.00431405
0.00431405
0.00431405
0.00431405
0.00431405
0.00431405
0.00431405
0.00431405
0.00431405
0.00431405
0.00431403
0.00431148
0.00430689
0.00430367
0.00430375
0.00430621
0.00430912
0.00431135
0.00431272
0.00431344
0.00431379
0.00431394
0.00431401
0.00431405
0.00431405
0.00431405
0.00431405
0.00431405
0.00431405
0.00431405
0.00431405
0.00431405
0.00431405
0.00431405
0.00431404
0.0043119
0.00430774
0.00430437
0.00430385
0.00430581
0.00430857
0.00431089
0.00431241
0.00431327
0.0043137
0.0043139
0.00431399
0.00431405
0.00431405
0.00431405
0.00431405
0.00431405
0.00431405
0.00431405
0.00431405
0.00431405
0.00431405
0.00431405
0.00431404
0.00431226
0.00430851
0.00430508
0.00430406
0.00430552
0.00430806
0.00431042
0.00431208
0.00431307
0.00431359
0.00431385
0.00431397
0.00431405
0.00431405
0.00431405
0.00431405
0.00431405
0.00431405
0.00431405
0.00431405
0.00431405
0.00431405
0.00431405
0.00431404
0.00431256
0.00430919
0.00430578
0.00430436
0.00430532
0.0043076
0.00430995
0.00431172
0.00431284
0.00431347
0.00431379
0.00431394
0.00431405
0.00431405
0.00431405
0.00431405
0.00431405
0.00431405
0.00431405
0.00431405
0.00431405
0.00431405
0.00431405
0.00431404
0.0043128
0.0043098
0.00430647
0.00430472
0.00430522
0.0043072
0.00430949
0.00431135
0.00431259
0.00431332
0.00431371
0.0043139
0.00431405
0.00431405
0.00431405
0.00431405
0.00431402
0.00431404
0.00431405
0.00431398
0.00431401
0.00431405
0.00431397
0.00431398
0.00431405
0.00431396
0.00431397
0.00431405
0.00424844
0.00383398
0.00431393
0.00431396
0.00431405
0.00431405
0.00431405
0.00431405
0.00431405
0.00431405
0.00431405
0.00431397
0.00431405
0.00431405
0.00431405
0.00431405
0.00431405
0.00431405
0.00431405
0.00431405
0.00431405
0.00431405
0.00431194
0.00431326
0.00431404
0.00431405
0.00431405
0.00431405
0.00431405
0.00431405
0.00431405
0.00431405
0.00431405
0.00429698
0.00430676
0.00431402
0.00431405
0.00431405
0.00431405
0.00431405
0.00431405
0.00431405
0.00431405
0.00431405
0.00430123
0.00429344
0.00431401
0.00431405
0.00431405
0.00430714
0.00430786
0.004314
0.00431405
0.00431405
0.00430927
0.00430857
0.00431405
0.00430517
0.0042557
0.00419504
0.00431365
0.00431393
0.00431405
0.00431405
0.00431405
0.00431405
0.00431405
0.00431405
0.00431405
0.00431333
0.00431396
0.00431405
0.004314
0.00431366
0.00431405
0.00431405
0.00431405
0.00431405
0.00431405
0.00431405
0.00431405
0.00430735
0.00431188
0.00431403
0.00431258
0.00431101
0.00431359
0.00431263
0.00431403
0.00431405
0.00431405
0.00431405
0.00431405
0.00431405
0.00431405
0.00431405
0.0042937
0.00429612
0.00431399
0.00430852
0.00430804
0.00431093
0.00430875
0.004314
0.00431405
0.00431405
0.00431405
0.00431405
0.00430764
0.00430198
0.00431398
0.00430981
0.00431157
0.00430803
0.00430966
0.00431398
0.00431405
0.00431405
0.00431405
0.00431405
0.00430845
0.00430735
0.00431163
0.00431195
0.00431397
0.00431405
0.00431405
0.00431405
0.00431405
0.00430979
0.00430939
0.00431405
0.00431405
0.00431405
0.00431339
0.00431405
0.00431405
0.00431405
0.00431405
0.00431405
0.00431405
0.00431405
0.00418271
0.00414898
0.00431399
0.00431405
0.00431405
0.00431405
0.00431405
0.00431405
0.00431402
0.00431405
0.00431405
0.00431405
0.00431405
0.00431348
0.00431362
0.00431398
0.00431401
0.00431363
0.0043138
0.00414275
0.00408706
0.00431397
0.00431198
0.00431216
0.00431401
0.00431403
0.00431218
0.0043123
0.00431395
0.00431405
0.00431405
0.00431405
0.00431405
0.00431405
0.00431405
0.00431316
0.00431404
0.00431354
0.00431405
0.00431367
0.00431404
0.00431241
0.00431267
0.00430325
0.00430352
0.00429805
0.00429679
0.00430636
0.0041029
0.00430908
0.00421935
0.0041871
0.0042036
0.00422556
0.00430888
0.00431405
0.00431405
0.00431405
0.00431405
0.00431405
0.00431405
0.00431405
0.00431405
0.00431405
0.00431405
0.00431405
0.00431371
0.00431375
0.00431405
0.00431405
0.00431405
0.00431405
0.0043092
0.00430945
0.00431139
0.00431384
0.00431389
0.00431378
0.00431382
0.00431135
0.00431314
0.00431396
0.004314
0.00431391
0.00431395
0.00431301
0.00431405
0.00431405
0.00431405
0.00431405
0.00428607
0.00428771
0.00430636
0.00431367
0.00431368
0.00431367
0.00431367
0.0043061
0.00431026
0.00431373
0.00431376
0.00431369
0.00431372
0.00431015
0.00431349
0.00431405
0.00431375
0.00431367
0.00431389
0.00431376
0.00431405
0.00431405
0.00431367
0.00431405
0.00430564
0.00430522
0.00430862
0.00431367
0.00431367
0.00431367
0.00431367
0.00430885
0.00431392
0.00431397
0.00431405
0.00431397
0.0043139
0.00431401
0.00431397
0.00431405
0.00431382
0.00431391
0.00430805
0.00416594
0.00419974
0.00410745
0.00415887
0.0043079
0.00407312
0.00431402
0.00431403
0.00430359
0.00431403
0.00431402
0.0040122
0.00423002
0.00422339
0.004314
0.00431405
0.00431405
0.00431405
0.00431405
0.00431405
0.00431405
0.00408651
0.00430068
0.00430678
0.00431405
0.00431405
0.00431405
0.00431405
0.00431272
0.00431284
0.00416229
0.00431401
0.00431402
0.00431293
0.00431308
0.00423633
0.00423462
0.00353842
0.00431405
0.00431405
0.00431405
0.00431405
0.00431405
0.00431405
0.00431405
0.00431405
0.00431405
0.00431205
0.00431142
0.00431298
0.00431405
0.00431405
0.00431405
0.00431405
0.00431405
0.00431405
0.00430017
0.00430569
0.00429965
0.00429248
0.00394534
0.00389873
0.00430898
0.00422836
0.00425391
0.00431405
0.00431405
0.00429809
0.00431405
0.00431405
0.00431405
0.00431348
0.00431198
0.00431159
0.00431392
0.00431404
0.00431404
0.00431401
0.00431403
0.00431388
0.00431405
0.00431405
0.00431405
0.00431405
0.00431405
0.00431405
0.00431405
0.00431405
0.00431405
0.00431405
0.00431405
0.00431405
0.00431405
0.00431405
0.00431405
0.00430805
0.00431038
0.0043119
0.00431347
0.0043135
0.00431321
0.00431327
0.00431117
0.00431405
0.00431405
0.00431405
0.00431405
0.00431405
0.00431405
0.00431405
0.00431405
0.00431405
0.00431405
0.00431405
0.00431405
0.00428975
0.0042924
0.0043076
0.00431292
0.00431295
0.00431269
0.00431293
0.00430734
0.0043107
0.00431313
0.00431319
0.00431296
0.00431299
0.00430947
0.00430683
0.00424987
0.00425995
0.00424818
0.00423805
0.00430349
0.00431131
0.00431367
0.00431367
0.00431368
0.00431367
0.00431138
0.00431405
0.00431403
0.00431401
0.00431404
0.00431404
0.00431405
0.00431349
0.00431355
0.00431405
0.00431404
0.00431404
0.00431341
0.00431347
0.0040218
0.00396019
0.00431387
0.00431402
0.00431397
0.00389974
0.00416952
0.00391415
0.00393543
0.00393235
0.00416541
0.00431405
0.00431405
0.00431405
0.00431405
0.00431405
0.00431344
0.00431351
0.00431274
0.00431272
0.00431399
0.00431313
0.00431305
0.00431329
0.00431315
0.004314
0.00431368
0.00431372
0.00412166
0.00411157
0.00431402
0.00431348
0.00431336
0.0043131
0.00431318
0.00431288
0.00431382
0.00431396
0.0043135
0.00431376
0.00431277
0.00431209
0.00431292
0.00430071
0.00430522
0.00429942
0.00429283
0.00413219
0.00425404
0.00424634
0.004262
0.00425652
0.00412711
0.00422835
0.00422331
0.00424422
0.00423269
0.00420628
0.00400846
0.00404408
0.0039548
0.00399244
0.00420141
0.00387582
0.00389027
0.00431405
0.00431405
0.00431405
0.00431405
0.00431405
0.00431405
0.00431405
0.00431405
0.00431405
0.00431405
0.00431405
0.00431405
0.00431405
0.00431405
0.00431405
0.00431279
0.00431209
0.00431353
0.0043121
0.00431299
0.0043134
0.00431221
0.00431286
0.00431387
0.00431326
0.00431286
0.00431405
0.00431405
0.00431405
0.00431405
0.00431405
0.00431405
0.00431405
0.00431404
0.00431404
0.00431405
0.00431404
0.00431405
0.00431405
0.00431405
0.00431405
0.00431405
0.00431405
0.00431405
0.00431405
0.00431405
0.00431405
0.00431405
0.00431405
0.00431405
0.00431405
0.00430845
0.00431029
0.00431338
0.00431345
0.00431164
0.00431123
0.00431329
0.00431336
0.00431405
0.00431405
0.00431405
0.00431402
0.00431403
0.00431401
0.00431402
0.00431403
0.00431403
0.00431403
0.00431403
0.00431405
0.00431405
0.00431405
0.00431404
0.00431403
0.00431404
0.00431404
0.00431402
0.00431402
0.00431403
0.00431403
0.00431405
0.00431405
0.00431405
0.0042866
0.00429111
0.0043129
0.00431292
0.00430727
0.00430686
0.00431293
0.0043129
0.00431306
0.00431311
0.0043106
0.00430963
0.004313
0.00431304
0.00431356
0.00431367
0.00431405
0.00431405
0.00431405
0.00431405
0.00431361
0.00431385
0.00431405
0.00431404
0.00431405
0.00431405
0.00431382
0.00431404
0.00431404
0.00431404
0.00431404
0.00431371
0.00431404
0.00431405
0.00431404
0.00431404
0.00431372
0.00424365
0.00424776
0.00430657
0.00420661
0.0042258
0.0042205
0.0042035
0.00422772
0.00430383
0.0042327
0.00423834
0.00431395
0.00431267
0.00431267
0.004313
0.00431269
0.00431395
0.00431274
0.00431386
0.00431267
0.00431387
0.00413495
0.00426872
0.00426379
0.00427534
0.00427039
0.0041383
0.00405844
0.0040716
0.00431357
0.00431364
0.00431324
0.00431338
0.00410642
0.0040412
0.00431405
0.00431405
0.00431405
0.00431395
0.00431273
0.0043127
0.00431405
0.00431405
0.00431405
0.00431405
0.00431405
0.00431405
0.00431405
0.00431405
0.00431405
0.00431405
0.00431405
0.00431405
0.00431198
0.00431034
0.00431027
0.00429799
0.00430628
0.00431405
0.00431405
0.00431405
0.00427958
0.00427688
0.00429309
0.00426188
0.00426602
0.00430843
0.00431405
0.00431405
0.00431405
0.00431405
0.00431405
0.00431405
0.00431365
0.00431337
0.0043139
0.00431405
0.00431405
0.00431405
0.0043075
0.00431009
0.00430976
0.00431173
0.00431212
0.00431215
0.00431106
0.00431356
0.0043136
0.00431273
0.00431405
0.00431405
0.00431405
0.00431405
0.00431405
0.00431405
0.00429347
0.00428372
0.00428215
0.00429541
0.00430828
0.00431133
0.00431139
0.00431085
0.00431205
0.00431208
0.00431144
0.0043115
0.00430899
0.00431405
0.00431405
0.00431405
0.00430785
0.00431271
0.0043127
0.00431179
0.00431368
0.00431368
0.00431232
0.00431233
0.00431404
0.00431404
0.00431405
0.00431232
0.00431232
0.00425669
0.00426522
0.00430971
0.00431349
0.00431318
0.00431348
0.00431322
0.00431328
0.0043136
0.00431364
0.0043131
0.00431316
0.00431337
0.00431332
0.00431378
0.00403787
0.00402454
0.00409483
0.00431357
0.0043135
0.00431402
0.00431405
0.00431405
0.00431405
0.00431279
0.00431322
0.00431361
0.00431376
0.00431271
0.00431275
0.00431399
0.00431404
0.00431396
0.00431147
0.00431134
0.00431223
0.0043128
0.00431223
0.00431203
0.00430226
0.00430395
0.0042784
0.00427975
0.00429879
0.00429519
0.00427113
0.00427502
0.00414157
0.00414604
0.00417538
0.00417112
0.00410744
0.00415381
0.00416143
0.00430861
0.00426803
0.00427364
0.00431405
0.00431405
0.00431405
0.00431405
0.00431405
0.00431405
0.00431405
0.00431405
0.00431405
0.00431405
0.00431405
0.00431405
0.00431405
0.00431405
0.00431405
0.00431405
0.00431405
0.00431405
0.00431405
0.00431211
0.00431247
0.00431405
0.00431405
0.00431405
0.00431405
0.00431405
0.00430903
0.00430977
0.00431375
0.00431379
0.00431334
0.00431277
0.00431365
0.0043137
0.00431405
0.00431405
0.00431405
0.00428481
0.00428895
0.00431183
0.00431187
0.00431036
0.00430998
0.00431175
0.0043118
0.00431352
0.00431374
0.00431396
0.00431396
0.00431389
0.00431389
0.00431365
0.00431405
0.00431405
0.00431405
0.00431378
0.00431378
0.00431392
0.00431392
0.00431368
0.00431388
0.00431388
0.00431378
0.0043138
0.00431274
0.00431272
0.00430794
0.00430921
0.00431278
0.00431276
0.00431394
0.00431405
0.00431405
0.00431404
0.00431404
0.00431393
0.00418113
0.00426819
0.00427676
0.00427188
0.00427012
0.00418652
0.00411971
0.00418844
0.00418165
0.00405723
0.00404468
0.00409209
0.0043126
0.00431266
0.0043127
0.00431216
0.00431403
0.00431369
0.0043136
0.00431375
0.00431371
0.00431402
0.00401451
0.00398337
0.00405529
0.00409556
0.00423473
0.00431405
0.00431405
0.00431405
0.00431272
0.00431276
0.00431246
0.00431234
0.00417629
0.00431301
0.00431289
0.00431288
0.00431288
0.00431289
0.00431306
0.00367911
0.00408732
0.00412244
0.00431405
0.00431405
0.00431405
0.0043107
0.00431049
0.00431201
0.0043111
0.00431183
0.00431234
0.00431163
0.0043118
0.00429916
0.00430592
0.00425052
0.00425491
0.00425103
0.00424882
0.00429273
0.00427434
0.00427193
0.00393362
0.00388878
0.00389155
0.00388957
0.00389052
0.00392036
0.00431192
0.00431264
0.00431268
0.00431252
0.0043126
0.00431184
0.00430772
0.00431134
0.0043095
0.00430896
0.00431111
0.00431218
0.00431221
0.00428559
0.00428511
0.00429244
0.00429382
0.00431118
0.00431126
0.00430794
0.00431198
0.00431202
0.00431077
0.00430925
0.00431156
0.00431161
0.00424692
0.00426107
0.00425641
0.0042638
0.00426305
0.00424384
0.00431234
0.00431237
0.00431233
0.00431232
0.00431343
0.00431298
0.00431296
0.00393773
0.00393063
0.00400096
0.00393402
0.00395659
0.00389958
0.00391535
0.00397953
0.00431368
0.00431354
0.00431376
0.00431345
0.00431396
0.00431401
0.00431404
0.00431376
0.00431387
0.00431373
0.00390579
0.00402744
0.00402027
0.0040505
0.00403832
0.00391365
0.00396333
0.00399471
0.00397836
0.00401546
0.00400882
0.00395109
0.00431405
0.00431405
0.00431405
0.00431405
0.00431405
0.00431405
0.00431405
0.00431343
0.00431357
0.00431333
0.00431336
0.00431274
0.00431273
0.00431355
0.00431358
0.00431309
0.00431306
0.00431306
0.00431366
0.00431308
0.00431302
0.0043131
0.00431375
0.00431323
0.00431312
0.00403543
0.00404962
0.00413032
0.00399455
0.00400239
0.00397384
0.00398148
0.00410213
0.00401632
0.00401971
0.00431312
0.00431285
0.00431286
0.00431274
0.00431283
0.00431315
0.00431338
0.00431348
0.00431305
0.00431226
0.00431285
0.00431327
0.00431063
0.00431214
0.00431123
0.00431097
0.00431121
0.00431139
0.00431106
0.0043111
0.00430141
0.00430452
0.00426397
0.0042667
0.00425803
0.00426089
0.00429918
0.00428007
0.0042799
0.00426989
0.00426975
0.00429373
0.00426791
0.00415451
0.00414391
0.00411738
0.00416808
0.00416371
0.00422561
0.00417357
0.00416964
0.00419135
0.00418213
0.00422421
0.00424152
0.00419154
0.0041956
0.00417303
0.00418296
0.00423752
0.00416515
0.00396637
0.00406957
0.00406123
0.00386799
0.00387555
0.00431405
0.00431405
0.00431405
0.00431405
0.00431405
0.00431405
0.00431405
0.00431405
0.00431405
0.00431405
0.00431405
0.00431405
0.00431405
0.00431405
0.00431405
0.00431405
0.00431405
0.00431405
0.00431405
0.00431405
0.00431405
0.00431266
0.0043131
0.00431321
0.00431276
0.0043129
0.00431221
0.00431156
0.00431205
0.0043131
0.00431262
0.00431243
0.00431304
0.00431265
0.00431322
0.00431238
0.00431228
0.00431205
0.00431253
0.00431405
0.00431405
0.00431405
0.00431405
0.00431405
0.00431405
0.00431405
0.00431404
0.00431404
0.00431404
0.00431404
0.00431405
0.00431405
0.00431405
0.00431405
0.00431405
0.00431405
0.00431405
0.00431405
0.00431405
0.00431405
0.00431405
0.00431405
0.00431405
0.00431405
0.00431405
0.00431405
0.00431405
0.00431405
0.00431405
0.00431405
0.00431405
0.00431405
0.00431405
0.00431405
0.00431405
0.00431405
0.00430895
0.00431017
0.00431403
0.004314
0.00431401
0.00431396
0.00431398
0.00431403
0.00431401
0.00431401
0.00431401
0.00431402
0.00431403
0.0043139
0.00431392
0.0043139
0.00431389
0.00431403
0.00431403
0.00431396
0.00431396
0.00431396
0.00431396
0.00431403
0.00431404
0.00431404
0.00431404
0.00431404
0.00431402
0.00431402
0.00431403
0.00431403
0.00428506
0.00428995
0.00431048
0.00431191
0.00431195
0.00431166
0.0043117
0.0043098
0.00431355
0.00431394
0.00431395
0.00431371
0.0043136
0.00431391
0.00431392
0.00431383
0.0043138
0.00431404
0.00431396
0.00431396
0.00431404
0.00431394
0.00431392
0.00431396
0.00431395
0.00431404
0.00431392
0.00431387
0.00431385
0.00431387
0.00431369
0.00431379
0.00431382
0.00424589
0.00427621
0.00427466
0.00427821
0.00427724
0.00424667
0.00421339
0.00422077
0.00421384
0.00420007
0.00419737
0.00420615
0.00423023
0.00426643
0.0042647
0.00427219
0.00426917
0.00423229
0.00431267
0.00431327
0.0043133
0.00431322
0.00431325
0.00431267
0.00431288
0.00431346
0.00431351
0.00431334
0.0043134
0.00431277
0.00431268
0.00431287
0.00431287
0.00431294
0.0043129
0.00431279
0.00431314
0.00431319
0.00431292
0.00431304
0.00431286
0.0041978
0.00419403
0.00413014
0.00405206
0.00408462
0.00431244
0.00431255
0.0043133
0.00431278
0.00431268
0.00431293
0.00431288
0.00431335
0.0043123
0.00431233
0.0039599
0.00394577
0.00431405
0.00431405
0.00431405
0.00431405
0.00431405
0.00431405
0.00431405
0.00431405
0.00431405
0.00431405
0.00431405
0.00431405
0.00431405
0.00431405
0.00431405
0.00431405
0.00431405
0.00431405
0.00431405
0.00431405
0.00431405
0.00431405
0.00431405
0.00431405
0.00431405
0.00431405
0.00431405
0.00431405
0.00431405
0.00431405
0.00431405
0.00431405
0.00431405
0.00431405
0.00431405
0.00431405
0.00431405
0.00431405
0.00431405
0.00431405
0.00431405
0.00431405
0.00431405
0.00431405
0.00431405
0.00431405
0.00431405
0.00431405
0.00431405
0.00431405
0.00431405
0.00431405
0.00431405
0.00431405
0.00431405
0.00431405
0.00431405
0.00431405
0.00431405
0.00431405
0.00431405
0.00431405
0.00431405
0.00431405
0.00431405
0.00431405
0.00431405
0.00431405
0.00431405
0.00431405
0.00431405
0.00431405
0.00431404
0.00431405
0.00431405
0.00431405
0.00431405
0.00431405
0.00431405
0.00431405
0.00431405
0.00431405
0.00431405
0.00431405
0.00431405
0.00431405
0.00431405
0.00431403
0.00431405
0.00431405
0.00431405
0.00431405
0.00431405
0.00431405
0.00431405
0.00431405
0.00431405
0.00431405
0.00431405
0.00431405
0.00431405
0.00431405
0.00431401
0.00431404
0.00431405
0.00431405
0.00431405
0.00431405
0.00431405
0.00431405
0.00431405
0.00431405
0.00431405
0.00431405
0.00431401
0.00431404
0.00431404
0.00431405
0.00431405
0.00431405
0.00431405
0.00431405
0.00431405
0.004314
0.00431404
0.00431404
0.00431405
0.00431405
0.00431405
0.00431405
0.00431405
0.00431405
0.00431405
0.00431405
0.00431405
0.00431405
0.00431405
0.00431405
0.00404572
0.00414452
0.00420754
0.00431396
0.00431404
0.00431405
0.00431405
0.00431405
0.00431405
0.00431405
0.00431405
0.00431405
0.00431405
0.00431405
0.00431405
0.00431405
0.00431165
0.00431024
0.00423881
0.00430203
0.00431284
0.00431217
0.00431402
0.00431404
0.00431404
0.00431405
0.00431405
0.00431405
0.00431405
0.00431405
0.00431405
0.00431331
0.00431201
0.00425673
0.00426699
0.00429601
0.00430594
0.00431296
0.00431375
0.00431405
0.00431405
0.00431405
0.00431405
0.00431404
0.00431403
0.00431405
0.00431405
0.00431405
0.00431405
0.00431405
0.00431405
0.00431402
0.00431392
0.00431389
0.00431402
0.00431401
0.00431404
0.00431405
0.00431405
0.00431405
0.00431399
0.00431381
0.00431381
0.00431388
0.00431386
0.00431401
0.00431405
0.00431405
0.00431405
0.00431397
0.00431381
0.00431385
0.00431381
0.00431381
0.00431398
0.00431396
0.00431385
0.00431385
0.00431385
0.00431385
0.00431397
0.00431405
0.00431405
0.00431405
0.00418611
0.00430988
0.0043103
0.00384858
0.00385113
0.00374491
0.00431384
0.00431384
0.00431395
0.00431405
0.00431405
0.00431405
0.00431405
0.00431405
0.00431405
0.00431405
0.00431405
0.00431405
0.00431405
0.00431405
0.00431405
0.00431405
0.00431405
0.00431405
0.00431405
0.00431405
0.00431405
0.00431405
0.00431405
0.00431405
0.00431405
0.00431405
0.00431405
0.00431405
0.00431405
0.004314
0.00431389
0.00431372
0.00431405
0.00431405
0.00431405
0.00431405
0.00431405
0.00431405
0.00431405
0.00431405
0.00431405
0.00431405
0.00431405
0.00431405
0.00431405
0.00431405
0.00431405
0.00431405
0.00431405
0.00431405
0.00431405
0.00431405
0.00431405
0.00431405
0.00431405
0.00431405
0.00431405
0.00431405
0.00431405
0.00431405
0.00431405
0.00431405
0.00431288
0.00431266
0.00431315
0.00431405
0.00431405
0.00431404
0.00431405
0.00431405
0.00431405
0.00431405
0.00431405
0.00431405
0.00431405
0.00431405
0.00431405
0.00431405
0.00431405
0.00431405
0.00431405
0.00431405
0.00431405
0.00431405
0.00431405
0.00431405
0.00431405
0.00431405
0.00431405
0.00431405
0.00431405
0.00431405
0.00431405
0.00431405
0.00431402
0.00431405
0.00431405
0.00431405
0.00431405
0.00431405
0.00431405
0.00431405
0.00431405
0.00431405
0.00431405
0.00431405
0.00431405
0.00431405
0.00431405
0.00431405
0.00431405
0.00431405
0.00431405
0.00431405
0.00431405
0.00431405
0.00431405
0.00431405
0.00431405
0.00430052
0.00428148
0.00428353
0.00431404
0.00431404
0.00431401
0.00431405
0.00431405
0.00431405
0.00431405
0.00431405
0.00431405
0.0043069
0.00428044
0.00428372
0.00429976
0.00430025
0.00430807
0.00431404
0.00431404
0.00431401
0.00431405
0.00431405
0.00431405
0.00431405
0.00431405
0.00431405
0.00430918
0.00430073
0.00430113
0.00429821
0.00429866
0.00430867
0.00431405
0.00431405
0.00431405
0.00430021
0.00431405
0.00431405
0.00431402
0.00431403
0.00427403
0.00425384
0.00429493
0.00412097
0.0043138
0.00431121
0.00430933
0.0043127
0.00431156
0.00431391
0.00431405
0.00431405
0.00431405
0.00431405
0.00431405
0.00431405
0.00431405
0.00431405
0.00431405
0.00431405
0.00431405
0.00431405
0.00431405
0.00431405
0.00431405
0.00431405
0.00431405
0.00431405
0.00431339
0.00431306
0.004313
0.00431394
0.00431389
0.00431395
0.00431405
0.00431404
0.00431405
0.00431398
0.00431402
0.00431403
0.00431389
0.00431391
0.00431377
0.00431405
0.00431405
0.00431405
0.00431405
0.00431405
0.00431405
0.00431405
0.00431405
0.00431405
0.00431405
0.00431405
0.00431405
0.00431405
0.00431405
0.00431405
0.00431405
0.00431405
0.00431405
0.00431396
0.00431393
0.00431403
0.00431249
0.00431297
0.00431303
0.00431339
0.00431383
0.00431386
0.00431308
0.00431311
0.00431266
0.00431404
0.004314
0.00431397
0.00431405
0.00431405
0.00431405
0.00431405
0.00431405
0.00431405
0.00431405
0.00431405
0.00431405
0.00431405
0.00431405
0.00431405
0.00431405
0.00431405
0.00431405
0.00431405
0.00431405
0.00431405
0.00431405
0.00431405
0.00431405
0.00431383