# Forces     
# CofR       : (0.000000e+00 0.000000e+00 0.000000e+00)
# Time       forces(pressure viscous porous)	moments(pressure viscous porous)
100          	((1.333110e-02 3.663670e+00 -2.486189e-20) (7.475033e-02 2.690354e-03 -7.526630e-23) (0.000000e+00 0.000000e+00 0.000000e+00)) ((-1.923427e+00 6.998828e-03 1.310293e+00) (-1.412436e-03 3.924392e-02 -8.961364e-04) (0.000000e+00 0.000000e+00 0.000000e+00))
200          	((-6.324301e-02 3.868165e+00 -4.839881e-20) (6.303759e-02 4.076264e-03 -5.353553e-23) (0.000000e+00 0.000000e+00 0.000000e+00)) ((-2.030787e+00 -3.320258e-02 1.302628e+00) (-2.140038e-03 3.309474e-02 -3.426327e-04) (0.000000e+00 0.000000e+00 0.000000e+00))
300          	((-8.702981e-02 3.808498e+00 -4.866547e-20) (6.223039e-02 4.495173e-03 -5.039649e-23) (0.000000e+00 0.000000e+00 0.000000e+00)) ((-1.999462e+00 -4.569065e-02 1.242539e+00) (-2.359966e-03 3.267095e-02 -2.320677e-04) (0.000000e+00 0.000000e+00 0.000000e+00))
400          	((-9.742920e-02 3.780039e+00 -4.756869e-20) (6.286313e-02 4.512555e-03 -5.057526e-23) (0.000000e+00 0.000000e+00 0.000000e+00)) ((-1.984520e+00 -5.115033e-02 1.206986e+00) (-2.369091e-03 3.300314e-02 -3.300089e-04) (0.000000e+00 0.000000e+00 0.000000e+00))
500          	((-1.038114e-01 3.778843e+00 -4.705781e-20) (6.352102e-02 4.358127e-03 -5.026935e-23) (0.000000e+00 0.000000e+00 0.000000e+00)) ((-1.983892e+00 -5.450099e-02 1.187550e+00) (-2.288017e-03 3.334854e-02 -5.330083e-04) (0.000000e+00 0.000000e+00 0.000000e+00))
600          	((-1.094670e-01 3.899041e+00 -4.890239e-20) (6.399751e-02 4.240951e-03 -4.915176e-23) (0.000000e+00 0.000000e+00 0.000000e+00)) ((-2.046996e+00 -5.747018e-02 1.240579e+00) (-2.226499e-03 3.359869e-02 -6.986268e-04) (0.000000e+00 0.000000e+00 0.000000e+00))
700          	((-1.174582e-01 4.047873e+00 -5.418618e-20) (6.429038e-02 4.229823e-03 -4.731010e-23) (0.000000e+00 0.000000e+00 0.000000e+00)) ((-2.125133e+00 -6.166553e-02 1.304946e+00) (-2.220657e-03 3.375245e-02 -7.893666e-04) (0.000000e+00 0.000000e+00 0.000000e+00))
800          	((-1.245643e-01 4.148312e+00 -5.898528e-20) (6.443850e-02 4.261950e-03 -4.583523e-23) (0.000000e+00 0.000000e+00 0.000000e+00)) ((-2.177864e+00 -6.539626e-02 1.345085e+00) (-2.237524e-03 3.383021e-02 -8.342949e-04) (0.000000e+00 0.000000e+00 0.000000e+00))
900          	((-1.293063e-01 4.205527e+00 -6.207260e-20) (6.449779e-02 4.292819e-03 -4.495479e-23) (0.000000e+00 0.000000e+00 0.000000e+00)) ((-2.207902e+00 -6.788583e-02 1.366476e+00) (-2.253730e-03 3.386134e-02 -8.589967e-04) (0.000000e+00 0.000000e+00 0.000000e+00))
1000         	((-1.322527e-01 4.237377e+00 -6.387871e-20) (6.451468e-02 4.310562e-03 -4.446386e-23) (0.000000e+00 0.000000e+00 0.000000e+00)) ((-2.224623e+00 -6.943268e-02 1.377470e+00) (-2.263045e-03 3.387021e-02 -8.772637e-04) (0.000000e+00 0.000000e+00 0.000000e+00))
1100         	((-1.341130e-01 4.256031e+00 -6.491730e-20) (6.451872e-02 4.316220e-03 -4.416348e-23) (0.000000e+00 0.000000e+00 0.000000e+00)) ((-2.234416e+00 -7.040933e-02 1.383410e+00) (-2.266015e-03 3.387233e-02 -8.939850e-04) (0.000000e+00 0.000000e+00 0.000000e+00))
1200         	((-1.353421e-01 4.269565e+00 -6.557912e-20) (6.452125e-02 4.316328e-03 -4.395708e-23) (0.000000e+00 0.000000e+00 0.000000e+00)) ((-2.241521e+00 -7.105460e-02 1.387947e+00) (-2.266072e-03 3.387366e-02 -9.080254e-04) (0.000000e+00 0.000000e+00 0.000000e+00))
1300         	((-1.362439e-01 4.280962e+00 -6.609509e-20) (6.452591e-02 4.315763e-03 -4.380024e-23) (0.000000e+00 0.000000e+00 0.000000e+00)) ((-2.247505e+00 -7.152804e-02 1.392106e+00) (-2.265775e-03 3.387611e-02 -9.186814e-04) (0.000000e+00 0.000000e+00 0.000000e+00))
1400         	((-1.369446e-01 4.290149e+00 -6.651886e-20) (6.453018e-02 4.316089e-03 -4.367813e-23) (0.000000e+00 0.000000e+00 0.000000e+00)) ((-2.252328e+00 -7.189591e-02 1.395554e+00) (-2.265947e-03 3.387834e-02 -9.261105e-04) (0.000000e+00 0.000000e+00 0.000000e+00))
1500         	((-1.374744e-01 4.296950e+00 -6.684675e-20) (6.453296e-02 4.317047e-03 -4.358811e-23) (0.000000e+00 0.000000e+00 0.000000e+00)) ((-2.255899e+00 -7.217408e-02 1.398103e+00) (-2.266450e-03 3.387981e-02 -9.310674e-04) (0.000000e+00 0.000000e+00 0.000000e+00))
1600         	((-1.378569e-01 4.301696e+00 -6.708302e-20) (6.453445e-02 4.318081e-03 -4.352319e-23) (0.000000e+00 0.000000e+00 0.000000e+00)) ((-2.258390e+00 -7.237487e-02 1.399856e+00) (-2.266993e-03 3.388059e-02 -9.343601e-04) (0.000000e+00 0.000000e+00 0.000000e+00))
1700         	((-1.381259e-01 4.304914e+00 -6.724688e-20) (6.453486e-02 4.318858e-03 -4.347811e-23) (0.000000e+00 0.000000e+00 0.000000e+00)) ((-2.260080e+00 -7.251611e-02 1.401021e+00) (-2.267400e-03 3.388080e-02 -9.365857e-04) (0.000000e+00 0.000000e+00 0.000000e+00))
1800         	((-1.383126e-01 4.307110e+00 -6.735843e-20) (6.453498e-02 4.319333e-03 -4.344703e-23) (0.000000e+00 0.000000e+00 0.000000e+00)) ((-2.261233e+00 -7.261413e-02 1.401805e+00) (-2.267650e-03 3.388086e-02 -9.382317e-04) (0.000000e+00 0.000000e+00 0.000000e+00))
1900         	((-1.384428e-01 4.308658e+00 -6.743552e-20) (6.453520e-02 4.319593e-03 -4.342584e-23) (0.000000e+00 0.000000e+00 0.000000e+00)) ((-2.262046e+00 -7.268246e-02 1.402359e+00) (-2.267786e-03 3.388098e-02 -9.394590e-04) (0.000000e+00 0.000000e+00 0.000000e+00))
2000         	((-1.385295e-01 4.309739e+00 -6.748742e-20) (6.453517e-02 4.319716e-03 -4.340941e-23) (0.000000e+00 0.000000e+00 0.000000e+00)) ((-2.262613e+00 -7.272796e-02 1.402757e+00) (-2.267851e-03 3.388097e-02 -9.402493e-04) (0.000000e+00 0.000000e+00 0.000000e+00))
2100         	((-1.385902e-01 4.310533e+00 -6.752429e-20) (6.453547e-02 4.319737e-03 -4.340001e-23) (0.000000e+00 0.000000e+00 0.000000e+00)) ((-2.263030e+00 -7.275983e-02 1.403051e+00) (-2.267862e-03 3.388112e-02 -9.410005e-04) (0.000000e+00 0.000000e+00 0.000000e+00))
2200         	((-1.386395e-01 4.311085e+00 -6.755275e-20) (6.453552e-02 4.319820e-03 -4.339199e-23) (0.000000e+00 0.000000e+00 0.000000e+00)) ((-2.263320e+00 -7.278572e-02 1.403242e+00) (-2.267906e-03 3.388115e-02 -9.413888e-04) (0.000000e+00 0.000000e+00 0.000000e+00))
2300         	((-1.386702e-01 4.311445e+00 -6.757232e-20) (6.453547e-02 4.319919e-03 -4.338569e-23) (0.000000e+00 0.000000e+00 0.000000e+00)) ((-2.263508e+00 -7.280184e-02 1.403372e+00) (-2.267957e-03 3.388112e-02 -9.415848e-04) (0.000000e+00 0.000000e+00 0.000000e+00))
2400         	((-1.386922e-01 4.311710e+00 -6.758531e-20) (6.453560e-02 4.319974e-03 -4.338339e-23) (0.000000e+00 0.000000e+00 0.000000e+00)) ((-2.263648e+00 -7.281339e-02 1.403469e+00) (-2.267986e-03 3.388119e-02 -9.418285e-04) (0.000000e+00 0.000000e+00 0.000000e+00))
2500         	((-1.387094e-01 4.311917e+00 -6.759602e-20) (6.453559e-02 4.320039e-03 -4.338004e-23) (0.000000e+00 0.000000e+00 0.000000e+00)) ((-2.263756e+00 -7.282242e-02 1.403545e+00) (-2.268020e-03 3.388119e-02 -9.419617e-04) (0.000000e+00 0.000000e+00 0.000000e+00))
2600         	((-1.387227e-01 4.312071e+00 -6.760412e-20) (6.453549e-02 4.320086e-03 -4.337712e-23) (0.000000e+00 0.000000e+00 0.000000e+00)) ((-2.263837e+00 -7.282942e-02 1.403600e+00) (-2.268045e-03 3.388113e-02 -9.420152e-04) (0.000000e+00 0.000000e+00 0.000000e+00))
2700         	((-1.387330e-01 4.312196e+00 -6.760974e-20) (6.453567e-02 4.320108e-03 -4.337737e-23) (0.000000e+00 0.000000e+00 0.000000e+00)) ((-2.263903e+00 -7.283482e-02 1.403644e+00) (-2.268057e-03 3.388123e-02 -9.422038e-04) (0.000000e+00 0.000000e+00 0.000000e+00))
2800         	((-1.387413e-01 4.312290e+00 -6.761441e-20) (6.453567e-02 4.320119e-03 -4.337560e-23) (0.000000e+00 0.000000e+00 0.000000e+00)) ((-2.263952e+00 -7.283916e-02 1.403677e+00) (-2.268062e-03 3.388123e-02 -9.422533e-04) (0.000000e+00 0.000000e+00 0.000000e+00))
2900         	((-1.387470e-01 4.312358e+00 -6.761802e-20) (6.453564e-02 4.320128e-03 -4.337424e-23) (0.000000e+00 0.000000e+00 0.000000e+00)) ((-2.263988e+00 -7.284219e-02 1.403701e+00) (-2.268067e-03 3.388121e-02 -9.422901e-04) (0.000000e+00 0.000000e+00 0.000000e+00))
3000         	((-1.387516e-01 4.312419e+00 -6.762076e-20) (6.453589e-02 4.320129e-03 -4.337492e-23) (0.000000e+00 0.000000e+00 0.000000e+00)) ((-2.264020e+00 -7.284460e-02 1.403724e+00) (-2.268068e-03 3.388134e-02 -9.424539e-04) (0.000000e+00 0.000000e+00 0.000000e+00))
3100         	((-1.387556e-01 4.312471e+00 -6.762324e-20) (6.453594e-02 4.320126e-03 -4.337399e-23) (0.000000e+00 0.000000e+00 0.000000e+00)) ((-2.264047e+00 -7.284670e-02 1.403743e+00) (-2.268066e-03 3.388137e-02 -9.424880e-04) (0.000000e+00 0.000000e+00 0.000000e+00))
3200         	((-1.387589e-01 4.312508e+00 -6.762510e-20) (6.453594e-02 4.320128e-03 -4.337327e-23) (0.000000e+00 0.000000e+00 0.000000e+00)) ((-2.264067e+00 -7.284841e-02 1.403756e+00) (-2.268067e-03 3.388137e-02 -9.425090e-04) (0.000000e+00 0.000000e+00 0.000000e+00))
3300         	((-1.387615e-01 4.312541e+00 -6.762668e-20) (6.453594e-02 4.320133e-03 -4.337270e-23) (0.000000e+00 0.000000e+00 0.000000e+00)) ((-2.264084e+00 -7.284977e-02 1.403768e+00) (-2.268070e-03 3.388137e-02 -9.425230e-04) (0.000000e+00 0.000000e+00 0.000000e+00))
3400         	((-1.387634e-01 4.312566e+00 -6.762796e-20) (6.453592e-02 4.320138e-03 -4.337223e-23) (0.000000e+00 0.000000e+00 0.000000e+00)) ((-2.264097e+00 -7.285081e-02 1.403778e+00) (-2.268072e-03 3.388136e-02 -9.425330e-04) (0.000000e+00 0.000000e+00 0.000000e+00))
3500         	((-1.387651e-01 4.312583e+00 -6.762886e-20) (6.453591e-02 4.320143e-03 -4.337188e-23) (0.000000e+00 0.000000e+00 0.000000e+00)) ((-2.264106e+00 -7.285170e-02 1.403783e+00) (-2.268075e-03 3.388135e-02 -9.425403e-04) (0.000000e+00 0.000000e+00 0.000000e+00))
3600         	((-1.387663e-01 4.312601e+00 -6.762965e-20) (6.453589e-02 4.320147e-03 -4.337160e-23) (0.000000e+00 0.000000e+00 0.000000e+00)) ((-2.264115e+00 -7.285230e-02 1.403790e+00) (-2.268077e-03 3.388134e-02 -9.425457e-04) (0.000000e+00 0.000000e+00 0.000000e+00))
