# Forces     
# CofR       : (0.000000e+00 0.000000e+00 0.000000e+00)
# Time       forces(pressure viscous porous)	moments(pressure viscous porous)
100          	((9.296490e-02 2.551247e+00 4.593296e-20) (7.494599e-02 1.640610e-03 -9.164618e-23) (0.000000e+00 0.000000e+00 0.000000e+00)) ((-1.339405e+00 4.880657e-02 9.932415e-01) (-8.613202e-04 3.934664e-02 -1.037382e-03) (0.000000e+00 0.000000e+00 0.000000e+00))
200          	((4.548541e-02 2.693704e+00 3.232235e-20) (6.355935e-02 2.653300e-03 -8.612778e-23) (0.000000e+00 0.000000e+00 0.000000e+00)) ((-1.414195e+00 2.387984e-02 9.821569e-01) (-1.392982e-03 3.336866e-02 -5.738719e-04) (0.000000e+00 0.000000e+00 0.000000e+00))
300          	((2.688886e-02 2.657082e+00 3.399625e-20) (6.304667e-02 2.926594e-03 -8.467186e-23) (0.000000e+00 0.000000e+00 0.000000e+00)) ((-1.394968e+00 1.411665e-02 9.407337e-01) (-1.536462e-03 3.309950e-02 -5.162330e-04) (0.000000e+00 0.000000e+00 0.000000e+00))
400          	((1.795590e-02 2.651749e+00 3.531994e-20) (6.393809e-02 2.913031e-03 -8.475952e-23) (0.000000e+00 0.000000e+00 0.000000e+00)) ((-1.392168e+00 9.426848e-03 9.229632e-01) (-1.529342e-03 3.356750e-02 -6.153336e-04) (0.000000e+00 0.000000e+00 0.000000e+00))
500          	((1.354516e-02 2.679071e+00 3.483042e-20) (6.474748e-02 2.795409e-03 -8.466589e-23) (0.000000e+00 0.000000e+00 0.000000e+00)) ((-1.406512e+00 7.111209e-03 9.243280e-01) (-1.467590e-03 3.399243e-02 -7.764444e-04) (0.000000e+00 0.000000e+00 0.000000e+00))
600          	((1.069781e-02 2.780604e+00 3.219828e-20) (6.525121e-02 2.715971e-03 -8.423116e-23) (0.000000e+00 0.000000e+00 0.000000e+00)) ((-1.459817e+00 5.616349e-03 9.695086e-01) (-1.425885e-03 3.425689e-02 -9.018585e-04) (0.000000e+00 0.000000e+00 0.000000e+00))
700          	((7.061285e-03 2.890403e+00 2.795084e-20) (6.552567e-02 2.713995e-03 -8.365226e-23) (0.000000e+00 0.000000e+00 0.000000e+00)) ((-1.517461e+00 3.707175e-03 1.016830e+00) (-1.424847e-03 3.440098e-02 -9.678178e-04) (0.000000e+00 0.000000e+00 0.000000e+00))
800          	((3.804022e-03 2.960590e+00 2.458451e-20) (6.566915e-02 2.740602e-03 -8.317953e-23) (0.000000e+00 0.000000e+00 0.000000e+00)) ((-1.554310e+00 1.997112e-03 1.044555e+00) (-1.438816e-03 3.447630e-02 -1.000173e-03) (0.000000e+00 0.000000e+00 0.000000e+00))
900          	((1.643432e-03 2.999202e+00 2.255656e-20) (6.574105e-02 2.762607e-03 -8.287698e-23) (0.000000e+00 0.000000e+00 0.000000e+00)) ((-1.574581e+00 8.628020e-04 1.058684e+00) (-1.450369e-03 3.451405e-02 -1.019579e-03) (0.000000e+00 0.000000e+00 0.000000e+00))
1000         	((2.917739e-04 3.020878e+00 2.139920e-20) (6.577663e-02 2.773097e-03 -8.269424e-23) (0.000000e+00 0.000000e+00 0.000000e+00)) ((-1.585961e+00 1.531813e-04 1.066006e+00) (-1.455876e-03 3.453273e-02 -1.035412e-03) (0.000000e+00 0.000000e+00 0.000000e+00))
1100         	((-5.783149e-04 3.034648e+00 2.070697e-20) (6.579522e-02 2.775351e-03 -8.256651e-23) (0.000000e+00 0.000000e+00 0.000000e+00)) ((-1.593190e+00 -3.036153e-04 1.070488e+00) (-1.457059e-03 3.454249e-02 -1.049417e-03) (0.000000e+00 0.000000e+00 0.000000e+00))
1200         	((-1.171004e-03 3.045609e+00 2.021705e-20) (6.580898e-02 2.774384e-03 -8.246912e-23) (0.000000e+00 0.000000e+00 0.000000e+00)) ((-1.598945e+00 -6.147772e-04 1.074353e+00) (-1.456552e-03 3.454972e-02 -1.061420e-03) (0.000000e+00 0.000000e+00 0.000000e+00))
1300         	((-1.619693e-03 3.054975e+00 1.981277e-20) (6.581926e-02 2.773838e-03 -8.238996e-23) (0.000000e+00 0.000000e+00 0.000000e+00)) ((-1.603862e+00 -8.503386e-04 1.077873e+00) (-1.456265e-03 3.455511e-02 -1.070171e-03) (0.000000e+00 0.000000e+00 0.000000e+00))
1400         	((-1.971148e-03 3.062330e+00 1.948521e-20) (6.582659e-02 2.774325e-03 -8.232829e-23) (0.000000e+00 0.000000e+00 0.000000e+00)) ((-1.607723e+00 -1.034853e-03 1.080666e+00) (-1.456521e-03 3.455896e-02 -1.076137e-03) (0.000000e+00 0.000000e+00 0.000000e+00))
1500         	((-2.234821e-03 3.067618e+00 1.924057e-20) (6.583140e-02 2.775275e-03 -8.228336e-23) (0.000000e+00 0.000000e+00 0.000000e+00)) ((-1.610500e+00 -1.173281e-03 1.082650e+00) (-1.457019e-03 3.456149e-02 -1.080059e-03) (0.000000e+00 0.000000e+00 0.000000e+00))
1600         	((-2.424535e-03 3.071244e+00 1.906806e-20) (6.583452e-02 2.776109e-03 -8.225141e-23) (0.000000e+00 0.000000e+00 0.000000e+00)) ((-1.612403e+00 -1.272881e-03 1.083982e+00) (-1.457457e-03 3.456312e-02 -1.082766e-03) (0.000000e+00 0.000000e+00 0.000000e+00))
1700         	((-2.558370e-03 3.073712e+00 1.894920e-20) (6.583648e-02 2.776631e-03 -8.222819e-23) (0.000000e+00 0.000000e+00 0.000000e+00)) ((-1.613699e+00 -1.343144e-03 1.084872e+00) (-1.457731e-03 3.456415e-02 -1.084650e-03) (0.000000e+00 0.000000e+00 0.000000e+00))
1800         	((-2.652122e-03 3.075445e+00 1.886702e-20) (6.583778e-02 2.776933e-03 -8.221148e-23) (0.000000e+00 0.000000e+00 0.000000e+00)) ((-1.614609e+00 -1.392364e-03 1.085495e+00) (-1.457890e-03 3.456483e-02 -1.086020e-03) (0.000000e+00 0.000000e+00 0.000000e+00))
1900         	((-2.718611e-03 3.076710e+00 1.880837e-20) (6.583882e-02 2.777086e-03 -8.220008e-23) (0.000000e+00 0.000000e+00 0.000000e+00)) ((-1.615273e+00 -1.427271e-03 1.085954e+00) (-1.457970e-03 3.456538e-02 -1.087103e-03) (0.000000e+00 0.000000e+00 0.000000e+00))
2000         	((-2.760504e-03 3.077633e+00 1.876845e-20) (6.583993e-02 2.777092e-03 -8.219438e-23) (0.000000e+00 0.000000e+00 0.000000e+00)) ((-1.615757e+00 -1.449264e-03 1.086306e+00) (-1.457973e-03 3.456596e-02 -1.088118e-03) (0.000000e+00 0.000000e+00 0.000000e+00))
2100         	((-2.794508e-03 3.078278e+00 1.873873e-20) (6.584031e-02 2.777141e-03 -8.218705e-23) (0.000000e+00 0.000000e+00 0.000000e+00)) ((-1.616096e+00 -1.467117e-03 1.086542e+00) (-1.457999e-03 3.456616e-02 -1.088563e-03) (0.000000e+00 0.000000e+00 0.000000e+00))
2200         	((-2.822062e-03 3.078761e+00 1.871582e-20) (6.584070e-02 2.777198e-03 -8.218289e-23) (0.000000e+00 0.000000e+00 0.000000e+00)) ((-1.616350e+00 -1.481582e-03 1.086711e+00) (-1.458029e-03 3.456637e-02 -1.088984e-03) (0.000000e+00 0.000000e+00 0.000000e+00))
2300         	((-2.838621e-03 3.079070e+00 1.870029e-20) (6.584104e-02 2.777255e-03 -8.218046e-23) (0.000000e+00 0.000000e+00 0.000000e+00)) ((-1.616512e+00 -1.490276e-03 1.086824e+00) (-1.458059e-03 3.456655e-02 -1.089284e-03) (0.000000e+00 0.000000e+00 0.000000e+00))
2400         	((-2.850485e-03 3.079286e+00 1.868970e-20) (6.584112e-02 2.777309e-03 -8.217805e-23) (0.000000e+00 0.000000e+00 0.000000e+00)) ((-1.616625e+00 -1.496505e-03 1.086902e+00) (-1.458087e-03 3.456659e-02 -1.089386e-03) (0.000000e+00 0.000000e+00 0.000000e+00))
2500         	((-2.859652e-03 3.079457e+00 1.868146e-20) (6.584127e-02 2.777359e-03 -8.217624e-23) (0.000000e+00 0.000000e+00 0.000000e+00)) ((-1.616715e+00 -1.501317e-03 1.086964e+00) (-1.458113e-03 3.456667e-02 -1.089539e-03) (0.000000e+00 0.000000e+00 0.000000e+00))
2600         	((-2.866571e-03 3.079585e+00 1.867527e-20) (6.584129e-02 2.777405e-03 -8.217486e-23) (0.000000e+00 0.000000e+00 0.000000e+00)) ((-1.616782e+00 -1.504950e-03 1.087011e+00) (-1.458137e-03 3.456667e-02 -1.089582e-03) (0.000000e+00 0.000000e+00 0.000000e+00))
2700         	((-2.872133e-03 3.079685e+00 1.867051e-20) (6.584130e-02 2.777434e-03 -8.217378e-23) (0.000000e+00 0.000000e+00 0.000000e+00)) ((-1.616835e+00 -1.507870e-03 1.087047e+00) (-1.458153e-03 3.456668e-02 -1.089624e-03) (0.000000e+00 0.000000e+00 0.000000e+00))
2800         	((-2.876649e-03 3.079768e+00 1.866670e-20) (6.584131e-02 2.777453e-03 -8.217291e-23) (0.000000e+00 0.000000e+00 0.000000e+00)) ((-1.616878e+00 -1.510241e-03 1.087077e+00) (-1.458163e-03 3.456669e-02 -1.089662e-03) (0.000000e+00 0.000000e+00 0.000000e+00))
2900         	((-2.880010e-03 3.079828e+00 1.866377e-20) (6.584132e-02 2.777464e-03 -8.217224e-23) (0.000000e+00 0.000000e+00 0.000000e+00)) ((-1.616910e+00 -1.512005e-03 1.087098e+00) (-1.458169e-03 3.456669e-02 -1.089695e-03) (0.000000e+00 0.000000e+00 0.000000e+00))
3000         	((-2.882168e-03 3.079886e+00 1.866152e-20) (6.584164e-02 2.777442e-03 -8.217288e-23) (0.000000e+00 0.000000e+00 0.000000e+00)) ((-1.616940e+00 -1.513138e-03 1.087120e+00) (-1.458157e-03 3.456686e-02 -1.089909e-03) (0.000000e+00 0.000000e+00 0.000000e+00))
3100         	((-2.884856e-03 3.079921e+00 1.865966e-20) (6.584168e-02 2.777440e-03 -8.217243e-23) (0.000000e+00 0.000000e+00 0.000000e+00)) ((-1.616958e+00 -1.514550e-03 1.087132e+00) (-1.458156e-03 3.456688e-02 -1.089937e-03) (0.000000e+00 0.000000e+00 0.000000e+00))
3200         	((-2.886271e-03 3.079957e+00 1.865795e-20) (6.584170e-02 2.777445e-03 -8.217208e-23) (0.000000e+00 0.000000e+00 0.000000e+00)) ((-1.616977e+00 -1.515292e-03 1.087144e+00) (-1.458158e-03 3.456689e-02 -1.089955e-03) (0.000000e+00 0.000000e+00 0.000000e+00))
3300         	((-2.887844e-03 3.079986e+00 1.865674e-20) (6.584171e-02 2.777450e-03 -8.217179e-23) (0.000000e+00 0.000000e+00 0.000000e+00)) ((-1.616993e+00 -1.516118e-03 1.087156e+00) (-1.458161e-03 3.456690e-02 -1.089968e-03) (0.000000e+00 0.000000e+00 0.000000e+00))
3400         	((-2.888951e-03 3.080009e+00 1.865570e-20) (6.584171e-02 2.777456e-03 -8.217156e-23) (0.000000e+00 0.000000e+00 0.000000e+00)) ((-1.617005e+00 -1.516699e-03 1.087165e+00) (-1.458164e-03 3.456690e-02 -1.089977e-03) (0.000000e+00 0.000000e+00 0.000000e+00))
3500         	((-2.889796e-03 3.080025e+00 1.865490e-20) (6.584171e-02 2.777460e-03 -8.217138e-23) (0.000000e+00 0.000000e+00 0.000000e+00)) ((-1.617013e+00 -1.517143e-03 1.087171e+00) (-1.458167e-03 3.456690e-02 -1.089985e-03) (0.000000e+00 0.000000e+00 0.000000e+00))
3600         	((-2.890501e-03 3.080039e+00 1.865424e-20) (6.584171e-02 2.777464e-03 -8.217124e-23) (0.000000e+00 0.000000e+00 0.000000e+00)) ((-1.617020e+00 -1.517513e-03 1.087175e+00) (-1.458168e-03 3.456690e-02 -1.089990e-03) (0.000000e+00 0.000000e+00 0.000000e+00))
