# Force coefficients
# liftDir    : (5.230000e-02 9.986000e-01 0.000000e+00)
# dragDir    : (9.986000e-01 5.230000e-02 0.000000e+00)
# pitchAxis  : (0.000000e+00 1.000000e+00 0.000000e+00)
# magUInf    : 1.500000e+01
# lRef       : 5.000000e-01
# Aref       : 4.000000e-01
# CofR       : (0.000000e+00 0.000000e+00 0.000000e+00)
# Time       	Cm           	Cd           	Cl           	Cl(f)        	Cl(r)        
100          	5.037980e-03	7.047823e-03	4.333516e-02	2.670556e-02	1.662960e-02
200          	4.344541e-03	6.545557e-03	4.630268e-02	2.749588e-02	1.880680e-02
300          	4.034556e-03	6.265054e-03	4.656043e-02	2.731477e-02	1.924566e-02
400          	3.886682e-03	6.130481e-03	4.666881e-02	2.722109e-02	1.944772e-02
500          	3.809806e-03	6.084187e-03	4.717704e-02	2.739832e-02	1.977871e-02
600          	3.761738e-03	6.088284e-03	4.812575e-02	2.782461e-02	2.030114e-02
700          	3.723934e-03	6.119736e-03	4.941088e-02	2.842937e-02	2.098150e-02
800          	3.685546e-03	6.147887e-03	5.064357e-02	2.900733e-02	2.163624e-02
900          	3.649593e-03	6.160601e-03	5.153740e-02	2.941829e-02	2.211911e-02
1000         	3.621827e-03	6.164008e-03	5.210527e-02	2.967446e-02	2.243081e-02
1100         	3.602476e-03	6.164363e-03	5.246249e-02	2.983372e-02	2.262877e-02
1200         	3.589335e-03	6.164355e-03	5.270031e-02	2.993949e-02	2.276082e-02
1300         	3.580176e-03	6.164767e-03	5.287404e-02	3.001720e-02	2.285684e-02
1400         	3.573473e-03	6.165608e-03	5.301148e-02	3.007921e-02	2.293227e-02
1500         	3.568408e-03	6.166659e-03	5.312326e-02	3.013004e-02	2.299322e-02
1600         	3.564431e-03	6.167538e-03	5.321207e-02	3.017047e-02	2.304160e-02
1700         	3.561354e-03	6.168172e-03	5.327991e-02	3.020131e-02	2.307860e-02
1800         	3.558955e-03	6.168523e-03	5.333005e-02	3.022398e-02	2.310607e-02
1900         	3.557189e-03	6.168767e-03	5.336668e-02	3.024053e-02	2.312615e-02
2000         	3.555865e-03	6.168914e-03	5.339347e-02	3.025260e-02	2.314087e-02
2100         	3.554872e-03	6.169005e-03	5.341318e-02	3.026146e-02	2.315172e-02
2200         	3.554259e-03	6.169162e-03	5.342728e-02	3.026790e-02	2.315938e-02
2300         	3.553742e-03	6.169237e-03	5.343807e-02	3.027278e-02	2.316529e-02
2400         	3.553312e-03	6.169250e-03	5.344613e-02	3.027638e-02	2.316975e-02
2500         	3.553022e-03	6.169276e-03	5.345186e-02	3.027895e-02	2.317291e-02
2600         	3.552818e-03	6.169307e-03	5.345615e-02	3.028089e-02	2.317526e-02
2700         	3.552656e-03	6.169325e-03	5.345942e-02	3.028237e-02	2.317706e-02
2800         	3.552524e-03	6.169342e-03	5.346213e-02	3.028359e-02	2.317854e-02
2900         	3.552410e-03	6.169339e-03	5.346416e-02	3.028449e-02	2.317967e-02
3000         	3.552324e-03	6.169348e-03	5.346588e-02	3.028526e-02	2.318061e-02
3100         	3.552249e-03	6.169345e-03	5.346717e-02	3.028584e-02	2.318134e-02
3200         	3.552198e-03	6.169356e-03	5.346832e-02	3.028636e-02	2.318196e-02
3300         	3.552149e-03	6.169367e-03	5.346941e-02	3.028686e-02	2.318256e-02
3400         	3.552110e-03	6.169366e-03	5.347010e-02	3.028716e-02	2.318294e-02
3500         	3.552077e-03	6.169372e-03	5.347081e-02	3.028748e-02	2.318333e-02
3600         	3.552050e-03	6.169372e-03	5.347129e-02	3.028770e-02	2.318360e-02
