# Forces     
# CofR       : (0.000000e+00 0.000000e+00 0.000000e+00)
# Time       forces(pressure viscous porous)	moments(pressure viscous porous)
100          	((9.184720e-02 3.937259e+00 1.508255e-21) (7.969165e-02 3.318552e-03 -1.347124e-22) (0.000000e+00 0.000000e+00 0.000000e+00)) ((-2.067061e+00 4.821978e-02 1.394979e+00) (-1.742240e-03 4.183812e-02 -7.029534e-04) (0.000000e+00 0.000000e+00 0.000000e+00))
200          	((1.690425e-02 4.222717e+00 -4.077268e-20) (7.742052e-02 4.793587e-03 -1.070429e-22) (0.000000e+00 0.000000e+00 0.000000e+00)) ((-2.216927e+00 8.874729e-03 1.400413e+00) (-2.516633e-03 4.064577e-02 -3.220713e-04) (0.000000e+00 0.000000e+00 0.000000e+00))
300          	((-1.229417e-02 4.238072e+00 -4.899431e-20) (7.778630e-02 5.438323e-03 -1.004117e-22) (0.000000e+00 0.000000e+00 0.000000e+00)) ((-2.224988e+00 -6.454440e-03 1.372409e+00) (-2.855120e-03 4.083781e-02 -1.860656e-04) (0.000000e+00 0.000000e+00 0.000000e+00))
400          	((-2.529997e-02 4.222324e+00 -5.091715e-20) (7.853819e-02 5.645698e-03 -9.909476e-23) (0.000000e+00 0.000000e+00 0.000000e+00)) ((-2.216720e+00 -1.328249e-02 1.344265e+00) (-2.963991e-03 4.123255e-02 -2.100041e-04) (0.000000e+00 0.000000e+00 0.000000e+00))
500          	((-3.280839e-02 4.225678e+00 -5.181613e-20) (7.911741e-02 5.627116e-03 -9.882495e-23) (0.000000e+00 0.000000e+00 0.000000e+00)) ((-2.218481e+00 -1.722440e-02 1.328677e+00) (-2.954236e-03 4.153664e-02 -3.396227e-04) (0.000000e+00 0.000000e+00 0.000000e+00))
600          	((-3.847476e-02 4.266995e+00 -5.268098e-20) (7.949437e-02 5.530456e-03 -9.811991e-23) (0.000000e+00 0.000000e+00 0.000000e+00)) ((-2.240172e+00 -2.019925e-02 1.335753e+00) (-2.903490e-03 4.173454e-02 -4.996683e-04) (0.000000e+00 0.000000e+00 0.000000e+00))
700          	((-4.367849e-02 4.352244e+00 -5.453028e-20) (7.974484e-02 5.461494e-03 -9.697173e-23) (0.000000e+00 0.000000e+00 0.000000e+00)) ((-2.284928e+00 -2.293121e-02 1.369327e+00) (-2.867284e-03 4.186604e-02 -6.249071e-04) (0.000000e+00 0.000000e+00 0.000000e+00))
800          	((-4.914940e-02 4.448418e+00 -5.753373e-20) (7.992251e-02 5.449711e-03 -9.557936e-23) (0.000000e+00 0.000000e+00 0.000000e+00)) ((-2.335420e+00 -2.580343e-02 1.409179e+00) (-2.861098e-03 4.195932e-02 -6.997494e-04) (0.000000e+00 0.000000e+00 0.000000e+00))
900          	((-5.432094e-02 4.523555e+00 -6.071774e-20) (8.004770e-02 5.472180e-03 -9.425708e-23) (0.000000e+00 0.000000e+00 0.000000e+00)) ((-2.374867e+00 -2.851849e-02 1.438710e+00) (-2.872894e-03 4.202504e-02 -7.408294e-04) (0.000000e+00 0.000000e+00 0.000000e+00))
1000         	((-5.835406e-02 4.572817e+00 -6.323482e-20) (8.012429e-02 5.501519e-03 -9.325109e-23) (0.000000e+00 0.000000e+00 0.000000e+00)) ((-2.400729e+00 -3.063588e-02 1.456874e+00) (-2.888297e-03 4.206525e-02 -7.647950e-04) (0.000000e+00 0.000000e+00 0.000000e+00))
1100         	((-6.116060e-02 4.603462e+00 -6.495246e-20) (8.016095e-02 5.524847e-03 -9.257593e-23) (0.000000e+00 0.000000e+00 0.000000e+00)) ((-2.416818e+00 -3.210931e-02 1.467512e+00) (-2.900544e-03 4.208450e-02 -7.809735e-04) (0.000000e+00 0.000000e+00 0.000000e+00))
1200         	((-6.304499e-02 4.622680e+00 -6.606803e-20) (8.017280e-02 5.539541e-03 -9.213499e-23) (0.000000e+00 0.000000e+00 0.000000e+00)) ((-2.426907e+00 -3.309862e-02 1.473793e+00) (-2.908259e-03 4.209072e-02 -7.937874e-04) (0.000000e+00 0.000000e+00 0.000000e+00))
1300         	((-6.432188e-02 4.635478e+00 -6.679492e-20) (8.017346e-02 5.547246e-03 -9.183922e-23) (0.000000e+00 0.000000e+00 0.000000e+00)) ((-2.433626e+00 -3.376899e-02 1.477812e+00) (-2.912304e-03 4.209107e-02 -8.048437e-04) (0.000000e+00 0.000000e+00 0.000000e+00))
1400         	((-6.520791e-02 4.644876e+00 -6.728896e-20) (8.017217e-02 5.550802e-03 -9.163342e-23) (0.000000e+00 0.000000e+00 0.000000e+00)) ((-2.438560e+00 -3.423415e-02 1.480801e+00) (-2.914171e-03 4.209039e-02 -8.143471e-04) (0.000000e+00 0.000000e+00 0.000000e+00))
1500         	((-6.585699e-02 4.652340e+00 -6.765359e-20) (8.017175e-02 5.552482e-03 -9.147909e-23) (0.000000e+00 0.000000e+00 0.000000e+00)) ((-2.442478e+00 -3.457492e-02 1.483292e+00) (-2.915053e-03 4.209017e-02 -8.220037e-04) (0.000000e+00 0.000000e+00 0.000000e+00))
1600         	((-6.635220e-02 4.658365e+00 -6.793890e-20) (8.017152e-02 5.553767e-03 -9.135923e-23) (0.000000e+00 0.000000e+00 0.000000e+00)) ((-2.445642e+00 -3.483491e-02 1.485380e+00) (-2.915728e-03 4.209005e-02 -8.276935e-04) (0.000000e+00 0.000000e+00 0.000000e+00))
1700         	((-6.673618e-02 4.663084e+00 -6.816489e-20) (8.017148e-02 5.555043e-03 -9.126549e-23) (0.000000e+00 0.000000e+00 0.000000e+00)) ((-2.448119e+00 -3.503649e-02 1.487039e+00) (-2.916397e-03 4.209003e-02 -8.317521e-04) (0.000000e+00 0.000000e+00 0.000000e+00))
1800         	((-6.702795e-02 4.666644e+00 -6.833973e-20) (8.017117e-02 5.556263e-03 -9.119455e-23) (0.000000e+00 0.000000e+00 0.000000e+00)) ((-2.449988e+00 -3.518968e-02 1.488289e+00) (-2.917038e-03 4.208986e-02 -8.345976e-04) (0.000000e+00 0.000000e+00 0.000000e+00))
1900         	((-6.725017e-02 4.669238e+00 -6.847179e-20) (8.017015e-02 5.557336e-03 -9.113996e-23) (0.000000e+00 0.000000e+00 0.000000e+00)) ((-2.451350e+00 -3.530634e-02 1.489191e+00) (-2.917602e-03 4.208933e-02 -8.365643e-04) (0.000000e+00 0.000000e+00 0.000000e+00))
2000         	((-6.741201e-02 4.671108e+00 -6.856860e-20) (8.016905e-02 5.558175e-03 -9.110044e-23) (0.000000e+00 0.000000e+00 0.000000e+00)) ((-2.452332e+00 -3.539130e-02 1.489831e+00) (-2.918042e-03 4.208875e-02 -8.380004e-04) (0.000000e+00 0.000000e+00 0.000000e+00))
2100         	((-6.752747e-02 4.672425e+00 -6.863565e-20) (8.016821e-02 5.558741e-03 -9.107238e-23) (0.000000e+00 0.000000e+00 0.000000e+00)) ((-2.453023e+00 -3.545192e-02 1.490281e+00) (-2.918339e-03 4.208831e-02 -8.390471e-04) (0.000000e+00 0.000000e+00 0.000000e+00))
2200         	((-6.760260e-02 4.673341e+00 -6.867786e-20) (8.016750e-02 5.559013e-03 -9.105438e-23) (0.000000e+00 0.000000e+00 0.000000e+00)) ((-2.453504e+00 -3.549136e-02 1.490607e+00) (-2.918482e-03 4.208794e-02 -8.398549e-04) (0.000000e+00 0.000000e+00 0.000000e+00))
2300         	((-6.766325e-02 4.674047e+00 -6.871345e-20) (8.016686e-02 5.559232e-03 -9.103987e-23) (0.000000e+00 0.000000e+00 0.000000e+00)) ((-2.453874e+00 -3.552321e-02 1.490842e+00) (-2.918597e-03 4.208760e-02 -8.404830e-04) (0.000000e+00 0.000000e+00 0.000000e+00))
2400         	((-6.770838e-02 4.674502e+00 -6.874152e-20) (8.016659e-02 5.559457e-03 -9.102820e-23) (0.000000e+00 0.000000e+00 0.000000e+00)) ((-2.454114e+00 -3.554690e-02 1.490981e+00) (-2.918715e-03 4.208746e-02 -8.408195e-04) (0.000000e+00 0.000000e+00 0.000000e+00))
2500         	((-6.774069e-02 4.674854e+00 -6.876095e-20) (8.016628e-02 5.559644e-03 -9.102013e-23) (0.000000e+00 0.000000e+00 0.000000e+00)) ((-2.454298e+00 -3.556386e-02 1.491099e+00) (-2.918813e-03 4.208730e-02 -8.410612e-04) (0.000000e+00 0.000000e+00 0.000000e+00))
2600         	((-6.776473e-02 4.675120e+00 -6.877507e-20) (8.016608e-02 5.559792e-03 -9.101441e-23) (0.000000e+00 0.000000e+00 0.000000e+00)) ((-2.454438e+00 -3.557648e-02 1.491190e+00) (-2.918891e-03 4.208719e-02 -8.412748e-04) (0.000000e+00 0.000000e+00 0.000000e+00))
2700         	((-6.778302e-02 4.675329e+00 -6.878642e-20) (8.016585e-02 5.559907e-03 -9.100951e-23) (0.000000e+00 0.000000e+00 0.000000e+00)) ((-2.454548e+00 -3.558609e-02 1.491262e+00) (-2.918951e-03 4.208707e-02 -8.414205e-04) (0.000000e+00 0.000000e+00 0.000000e+00))
2800         	((-6.779846e-02 4.675500e+00 -6.879531e-20) (8.016571e-02 5.559999e-03 -9.100567e-23) (0.000000e+00 0.000000e+00 0.000000e+00)) ((-2.454637e+00 -3.559419e-02 1.491320e+00) (-2.918999e-03 4.208700e-02 -8.415353e-04) (0.000000e+00 0.000000e+00 0.000000e+00))
2900         	((-6.781049e-02 4.675630e+00 -6.880230e-20) (8.016559e-02 5.560068e-03 -9.100261e-23) (0.000000e+00 0.000000e+00 0.000000e+00)) ((-2.454706e+00 -3.560051e-02 1.491363e+00) (-2.919036e-03 4.208694e-02 -8.416295e-04) (0.000000e+00 0.000000e+00 0.000000e+00))
3000         	((-6.782073e-02 4.675739e+00 -6.880788e-20) (8.016552e-02 5.560119e-03 -9.100030e-23) (0.000000e+00 0.000000e+00 0.000000e+00)) ((-2.454763e+00 -3.560589e-02 1.491400e+00) (-2.919062e-03 4.208690e-02 -8.417165e-04) (0.000000e+00 0.000000e+00 0.000000e+00))
3100         	((-6.782707e-02 4.675824e+00 -6.881182e-20) (8.016557e-02 5.560155e-03 -9.099912e-23) (0.000000e+00 0.000000e+00 0.000000e+00)) ((-2.454808e+00 -3.560921e-02 1.491427e+00) (-2.919081e-03 4.208692e-02 -8.418102e-04) (0.000000e+00 0.000000e+00 0.000000e+00))
3200         	((-6.783216e-02 4.675890e+00 -6.881475e-20) (8.016570e-02 5.560182e-03 -9.099836e-23) (0.000000e+00 0.000000e+00 0.000000e+00)) ((-2.454842e+00 -3.561188e-02 1.491448e+00) (-2.919095e-03 4.208699e-02 -8.418917e-04) (0.000000e+00 0.000000e+00 0.000000e+00))
3300         	((-6.783689e-02 4.675951e+00 -6.881794e-20) (8.016577e-02 5.560202e-03 -9.099735e-23) (0.000000e+00 0.000000e+00 0.000000e+00)) ((-2.454874e+00 -3.561437e-02 1.491470e+00) (-2.919106e-03 4.208703e-02 -8.419534e-04) (0.000000e+00 0.000000e+00 0.000000e+00))
3400         	((-6.784123e-02 4.676000e+00 -6.882044e-20) (8.016571e-02 5.560217e-03 -9.099604e-23) (0.000000e+00 0.000000e+00 0.000000e+00)) ((-2.454900e+00 -3.561664e-02 1.491487e+00) (-2.919114e-03 4.208700e-02 -8.419772e-04) (0.000000e+00 0.000000e+00 0.000000e+00))
3500         	((-6.784476e-02 4.676042e+00 -6.882258e-20) (8.016565e-02 5.560230e-03 -9.099496e-23) (0.000000e+00 0.000000e+00 0.000000e+00)) ((-2.454922e+00 -3.561850e-02 1.491502e+00) (-2.919121e-03 4.208697e-02 -8.419961e-04) (0.000000e+00 0.000000e+00 0.000000e+00))
3600         	((-6.784749e-02 4.676074e+00 -6.882423e-20) (8.016570e-02 5.560245e-03 -9.099469e-23) (0.000000e+00 0.000000e+00 0.000000e+00)) ((-2.454939e+00 -3.561993e-02 1.491513e+00) (-2.919129e-03 4.208699e-02 -8.420446e-04) (0.000000e+00 0.000000e+00 0.000000e+00))
