/*--------------------------------*- C++ -*----------------------------------*\
| =========                 |                                                 |
| \\      /  F ield         | OpenFOAM: The Open Source CFD Toolbox           |
|  \\    /   O peration     | Version:  5.x                                   |
|   \\  /    A nd           | Web:      www.OpenFOAM.org                      |
|    \\/     M anipulation  |                                                 |
\*---------------------------------------------------------------------------*/
FoamFile
{
    version     2.0;
    format      ascii;
    class       volScalarField;
    location    "500";
    object      massFlux;
}
// * * * * * * * * * * * * * * * * * * * * * * * * * * * * * * * * * * * * * //

dimensions      [0 0 0 0 0 0 0];

internalField   nonuniform List<scalar> 
6584
(
0.0241652
0.0241651
0.0241651
0.0241652
0.0241652
0.0241652
0.0241652
0.0241652
0.0241652
0.0241652
0.0241652
0.0241652
0.0241652
0.0241652
0.0241652
0.0241652
0.0241652
0.0241652
0.0241652
0.0241652
0.0241651
0.0241651
0.0241651
0.0241651
0.0241388
0.0241388
0.0241388
0.0241388
0.0241388
0.0241389
0.0241389
0.024139
0.024139
0.024139
0.024139
0.024139
0.024139
0.024139
0.024139
0.024139
0.024139
0.0241389
0.0241389
0.0241389
0.0241388
0.0241388
0.0241388
0.0241387
0.0241124
0.0241124
0.0241124
0.0241124
0.0241124
0.0241125
0.0241126
0.0241127
0.0241128
0.0241259
0.0241259
0.0241259
0.0241259
0.0241259
0.0241259
0.0241128
0.0241127
0.0241126
0.0241126
0.0241125
0.0241125
0.0241125
0.0241124
0.0241124
0.024086
0.0240861
0.0240861
0.0240861
0.0240861
0.0240862
0.0240863
0.0240864
0.0240865
0.0240996
0.0240996
0.0240995
0.0240995
0.0240996
0.0240996
0.0240997
0.0240864
0.0240863
0.0240863
0.0240862
0.0240862
0.0240861
0.0240861
0.024086
0.0240597
0.0240597
0.0240598
0.0240598
0.0240598
0.0240599
0.0240599
0.0240599
0.0240732
0.0240733
0.0240731
0.024073
0.024073
0.0240731
0.0240733
0.0240733
0.0240733
0.0240602
0.02406
0.0240599
0.0240599
0.0240598
0.0240597
0.0240597
0.0240334
0.0240334
0.0240334
0.0240335
0.0240335
0.0240336
0.0240337
0.0240467
0.0240466
0.0240466
0.0240531
0.0240528
0.0240528
0.0240531
0.0240469
0.0240471
0.0240471
0.0240341
0.0240338
0.0240337
0.0240336
0.0240335
0.0240334
0.0240334
0.0240071
0.0240071
0.0240071
0.0240072
0.0240073
0.0240073
0.0240075
0.0240205
0.0240203
0.0240201
0.024026
0.0240287
0.0240284
0.024026
0.0240272
0.0240211
0.0240211
0.0240081
0.0240078
0.0240075
0.0240074
0.0240073
0.0240072
0.0240071
0.0239808
0.0239808
0.0239808
0.0239809
0.023981
0.0239811
0.0239814
0.0239943
0.0239942
0.0239942
0.0239994
0.0240006
0.0240021
0.0240012
0.0239954
0.0239953
0.0239823
0.0239817
0.0239814
0.0239812
0.023981
0.0239809
0.0239808
0.0239545
0.0239545
0.0239546
0.0239547
0.0239548
0.023955
0.0239554
0.0239683
0.0239683
0.0239686
0.0239738
0.0239749
0.0239771
0.0239762
0.0239702
0.0239698
0.0239565
0.0239557
0.0239553
0.023955
0.0239548
0.0239546
0.0239545
0.0239282
0.0239282
0.0239283
0.0239285
0.0239287
0.0239289
0.0239294
0.0239423
0.0239425
0.0239432
0.0239488
0.0239508
0.0239541
0.023952
0.0239453
0.0239443
0.0239308
0.0239298
0.0239292
0.0239289
0.0239286
0.0239284
0.0239282
0.0239019
0.023902
0.0239021
0.0239022
0.0239025
0.0239028
0.0239034
0.0239164
0.0239168
0.0239179
0.0239239
0.0239269
0.0239314
0.023928
0.0239203
0.023919
0.023905
0.0239039
0.0239032
0.0239027
0.0239023
0.0239021
0.0239019
0.0238756
0.0238757
0.0238758
0.023876
0.0238763
0.0238767
0.0238773
0.0238905
0.0238911
0.0238923
0.0238988
0.0239024
0.0239078
0.0239034
0.0238952
0.0238935
0.0238792
0.0238779
0.0238771
0.0238765
0.0238761
0.0238758
0.0238756
0.0238493
0.0238494
0.0238496
0.0238498
0.0238501
0.0238506
0.0238513
0.0238644
0.0238652
0.0238666
0.0238732
0.0238768
0.0238826
0.0238781
0.0238697
0.0238679
0.0238533
0.0238519
0.0238509
0.0238503
0.0238498
0.0238495
0.0238493
0.023823
0.0238232
0.0238233
0.0238236
0.023824
0.0238244
0.0238251
0.0238256
0.0238391
0.0238402
0.0238466
0.0238492
0.0193159
0.0238523
0.0238522
0.0238439
0.023842
0.0238273
0.0238258
0.0238248
0.023824
0.0238235
0.0238231
0.0238229
0.0237967
0.0237969
0.0237971
0.0237974
0.0237977
0.0237982
0.0237988
0.0237991
0.0238125
0.0238136
0.02382
0.0238192
0.0229477
0.0238257
0.0238187
0.0238178
0.0238021
0.0238009
0.0237994
0.0237984
0.0237978
0.0237972
0.0237968
0.0237964
0.0237704
0.0237706
0.0237708
0.0237711
0.0237715
0.0237719
0.0237725
0.0237728
0.0237862
0.0237874
0.0237872
0.0237926
0.0230028
0.0237926
0.0237924
0.0237915
0.0237759
0.0237746
0.023773
0.023772
0.0237713
0.0237706
0.0237703
0.02377
0.0237441
0.0237443
0.0237445
0.0237448
0.0237452
0.0237456
0.0237461
0.0237466
0.0237473
0.0237612
0.023761
0.0237447
0.0234068
0.0237662
0.023766
0.0237652
0.0237495
0.0237483
0.0237466
0.0237456
0.0237448
0.0237442
0.0237438
0.0237434
0.0237178
0.023718
0.0237182
0.0237186
0.0237189
0.0237193
0.0237199
0.0237204
0.0237211
0.0237216
0.0237348
0.0237101
0.0233901
0.0237398
0.0237266
0.0237247
0.0237231
0.0237219
0.0237202
0.0237191
0.0237183
0.0237176
0.0237173
0.0237169
0.0236915
0.0236917
0.023692
0.0236923
0.0236927
0.023693
0.0236936
0.0236942
0.0236949
0.0236955
0.0236927
0.0231331
0.0235351
0.0237005
0.0237002
0.0236984
0.0236967
0.0236954
0.0236937
0.0236926
0.0236918
0.0236911
0.0236907
0.0236903
0.0236652
0.0236654
0.0236657
0.023666
0.0236664
0.0236667
0.0236675
0.0236681
0.0236688
0.0236693
0.0236644
0.0231102
0.0235098
0.0236742
0.0236739
0.023672
0.0236703
0.023669
0.0236673
0.0236661
0.0236652
0.0236646
0.0236642
0.0236637
0.0236389
0.0236391
0.0236394
0.0236398
0.0236402
0.0236405
0.0236413
0.0236419
0.0236427
0.0236432
0.0236362
0.0230871
0.0234843
0.0236479
0.0236476
0.0236457
0.0236439
0.0236425
0.0236408
0.0236396
0.0236387
0.023638
0.0236376
0.0236371
0.0236126
0.0236129
0.0236131
0.0236135
0.0236139
0.0236143
0.0236151
0.0236158
0.0236166
0.023617
0.0236081
0.0230637
0.0234588
0.0236217
0.0236213
0.0236194
0.0236175
0.0236161
0.0236143
0.023613
0.0236121
0.0236114
0.023611
0.0236105
0.0235864
0.0235866
0.0235868
0.0235872
0.0235877
0.0235881
0.0235889
0.0235896
0.0235905
0.0235909
0.02358
0.0230402
0.0234331
0.0235954
0.023595
0.023593
0.0235911
0.0235896
0.0235878
0.0235865
0.0235856
0.0235848
0.0235844
0.0235839
0.0235601
0.0235603
0.0235606
0.023561
0.0235615
0.0235619
0.0235628
0.0235635
0.0235644
0.0235648
0.0235521
0.0230166
0.0234074
0.0235692
0.0235687
0.0235667
0.0235647
0.0235632
0.0235612
0.02356
0.023559
0.0235582
0.0235578
0.0235572
0.0235338
0.023534
0.0235343
0.0235347
0.0235352
0.0235357
0.0235366
0.0235374
0.0235384
0.0235387
0.0235243
0.0229929
0.0233816
0.0235429
0.0235424
0.0235404
0.0235383
0.0235367
0.0235347
0.0235334
0.0235324
0.0235316
0.0235312
0.0235306
0.0235075
0.0235077
0.023508
0.0235085
0.023509
0.0235095
0.0235105
0.0235113
0.0235123
0.0235126
0.0234964
0.0229693
0.0233558
0.0235167
0.0235162
0.0235141
0.0235119
0.0235102
0.0235082
0.0235069
0.0235058
0.023505
0.0235045
0.023504
0.0234812
0.0234815
0.0234818
0.0234822
0.0234828
0.0234834
0.0234844
0.0234852
0.0234863
0.0234866
0.0234684
0.0229458
0.0233302
0.0234905
0.02349
0.0234878
0.0234855
0.0234838
0.0234818
0.0234804
0.0234793
0.0234785
0.023478
0.0234774
0.023455
0.0234552
0.0234555
0.023456
0.0234566
0.0234572
0.0234583
0.0234591
0.0234603
0.0234605
0.0234404
0.0229223
0.0233044
0.0234644
0.0234638
0.0234616
0.0234592
0.0234574
0.0234553
0.0234539
0.0234528
0.0234519
0.0234514
0.0234508
0.0234287
0.023429
0.0234293
0.0234298
0.0234304
0.023431
0.0234321
0.0234331
0.0234343
0.0234345
0.0234126
0.0228988
0.0232787
0.0234382
0.0234376
0.0234353
0.0234328
0.023431
0.0234288
0.0234273
0.0234262
0.0234253
0.0234248
0.0234242
0.0234024
0.0234027
0.0234031
0.0234035
0.0234042
0.0234049
0.023406
0.023407
0.0234083
0.0234084
0.0233847
0.0228752
0.0232529
0.0234121
0.0234114
0.0234091
0.0234065
0.0234046
0.0234023
0.0234008
0.0233997
0.0233988
0.0233982
0.0233976
0.0233762
0.0233765
0.0233768
0.0233773
0.023378
0.0233787
0.02338
0.023381
0.0233823
0.0233824
0.0233569
0.0228516
0.0232271
0.0233859
0.0233852
0.0233828
0.0233801
0.0233782
0.0233758
0.0233743
0.0233731
0.0233722
0.0233716
0.023371
0.0233499
0.0233502
0.0233506
0.0233511
0.0233518
0.0233526
0.0233539
0.023355
0.0233564
0.0233563
0.0233291
0.022828
0.0232013
0.0233597
0.023359
0.0233566
0.0233538
0.0233517
0.0233494
0.0233478
0.0233465
0.0233456
0.023345
0.0233444
0.0233237
0.023324
0.0233244
0.0233249
0.0233256
0.0233265
0.0233278
0.023329
0.0233304
0.0233303
0.0233013
0.0228044
0.0231755
0.0233336
0.0233328
0.0233303
0.0233274
0.0233253
0.0233229
0.0233213
0.02332
0.023319
0.0233184
0.0233178
0.0232975
0.0232977
0.0232982
0.0232987
0.0232995
0.0233004
0.0233018
0.023303
0.0233044
0.0233042
0.0232735
0.0227808
0.0231497
0.0233074
0.0233066
0.0233041
0.0233011
0.0232989
0.0232964
0.0232947
0.0232934
0.0232924
0.0232918
0.0232912
0.0232712
0.0232715
0.0232719
0.0232725
0.0232733
0.0232743
0.0232757
0.023277
0.0232785
0.0232782
0.0232457
0.0227573
0.0231239
0.0232813
0.0232804
0.0232778
0.0232747
0.0232725
0.0232699
0.0232682
0.0232668
0.0232658
0.0232652
0.0232646
0.023245
0.0232453
0.0232458
0.0232463
0.0232472
0.0232482
0.0232497
0.023251
0.0232525
0.0232521
0.0232177
0.0227339
0.0230981
0.0232551
0.0232543
0.0232515
0.0232483
0.023246
0.0232434
0.0232416
0.0232402
0.0232392
0.0232385
0.023238
0.023978
0.0239797
0.0240014
0.0239538
0.023957
0.0239768
0.0239299
0.0239344
0.0239542
0.0239055
0.023911
0.0239316
0.0238801
0.023886
0.0239079
0.0238527
0.0179998
0.0190517
0.0238596
0.0238828
0.024004
0.0240283
0.0240047
0.024029
0.0239801
0.0239784
0.0240013
0.0239885
0.0240005
0.02398
0.023982
0.0240007
0.023955
0.023954
0.0239753
0.0239657
0.0239581
0.0239731
0.0239554
0.0239737
0.023957
0.0239579
0.0239759
0.0239302
0.02393
0.023951
0.0239419
0.0239142
0.0239287
0.0238435
0.0238989
0.0239343
0.0239341
0.023952
0.0239052
0.0239055
0.023927
0.0239179
0.0238996
0.0239052
0.0238951
0.0238621
0.0239108
0.0239099
0.0239281
0.0238925
0.0239024
0.0238858
0.023885
0.0239038
0.0238703
0.0238811
0.0238259
0.01981
0.0180592
0.0220872
0.0238323
0.023856
0.023975
0.0239868
0.0239874
0.0239864
0.0239723
0.0240003
0.023988
0.0239747
0.0239877
0.0239886
0.0239874
0.0239761
0.0239317
0.0239551
0.0239627
0.0239386
0.0238701
0.0239694
0.023942
0.0239023
0.0239544
0.0239654
0.0239592
0.0239388
0.0239752
0.0239601
0.0239682
0.023906
0.0239129
0.0239389
0.0238382
0.0238547
0.0238666
0.0238378
0.0238609
0.02384
0.0239429
0.0239246
0.0239191
0.023938
0.0239255
0.0239457
0.0238309
0.0238476
0.0238561
0.0238279
0.0239027
0.0238968
0.0239199
0.0239144
0.0239075
0.0239187
0.0239147
0.0239229
0.0238575
0.0238565
0.0238494
0.0238571
0.0238825
0.0238914
0.0239062
0.0238966
0.0238987
0.0238493
0.0238275
0.023856
0.0238504
0.0238561
0.0238686
0.0239906
0.0239885
0.0240009
0.0239917
0.0239992
0.0238797
0.0238799
0.0239023
0.0238929
0.0238845
0.023892
0.0237586
0.0236921
0.0238593
0.0238592
0.0238786
0.0239994
0.0239917
0.0240012
0.023989
0.0239918
0.0238929
0.0238988
0.0239148
0.0170782
0.0184006
0.022056
0.0225153
0.018482
0.0200602
0.0236785
0.0235426
0.0238955
0.0238951
0.0238844
0.0225701
0.0228449
0.0238828
0.0238712
0.023873
0.0240151
0.0240136
0.0240021
0.0240024
0.0240139
0.0240152
0.0239909
0.0239935
0.0239912
0.0239998
0.0239921
0.0239951
0.0239629
0.0239657
0.0238725
0.0238757
0.0238851
0.0238809
0.0238955
0.0235526
0.0238996
0.023803
0.0237655
0.0237779
0.023812
0.0238766
0.0239075
0.0239813
0.0237503
0.0239584
0.0237053
0.0239794
0.0239649
0.0239912
0.0239931
0.0239895
0.0239294
0.0239809
0.0239818
0.0239021
0.0238977
0.0239604
0.0239585
0.023924
0.023927
0.0239448
0.0239607
0.023965
0.0239551
0.0239593
0.0239441
0.0239684
0.0239722
0.0239766
0.0239664
0.0239707
0.0239669
0.0238459
0.0238468
0.0238465
0.0238443
0.023804
0.0238084
0.0239187
0.0239387
0.0239428
0.0239333
0.0239374
0.023918
0.0239323
0.0239497
0.0239538
0.0239442
0.0239483
0.0239315
0.0171924
0.023839
0.0185667
0.0171353
0.0201645
0.0186573
0.0238414
0.0238152
0.0172725
0.0238183
0.0239026
0.0239023
0.023917
0.0239277
0.0239319
0.023922
0.0239263
0.0239169
0.0213534
0.0219559
0.0238538
0.0214277
0.0202745
0.0222466
0.0215499
0.0238549
0.0202147
0.0212546
0.0238866
0.0237023
0.0237709
0.0235701
0.0236878
0.0238879
0.0235072
0.0228235
0.0229182
0.018763
0.0228759
0.022785
0.0204623
0.0237966
0.0238061
0.0239976
0.0238535
0.0238528
0.0238766
0.0238669
0.0238635
0.0238729
0.0217742
0.0238385
0.0238516
0.0239974
0.023874
0.0238833
0.0238897
0.0182653
0.0184049
0.0173808
0.0227985
0.0227777
0.0186517
0.0190866
0.0237651
0.0237934
0.0155745
0.0240065
0.024007
0.0240005
0.0240004
0.0240072
0.0240067
0.0239652
0.0239693
0.0239647
0.0239576
0.0239626
0.0239702
0.023919
0.0239452
0.0239408
0.0239511
0.0239466
0.023921
0.0238563
0.0238892
0.023891
0.0238646
0.0231528
0.0229948
0.023875
0.0238153
0.0238352
0.0237966
0.0237873
0.0195038
0.0239948
0.0239924
0.024
0.0239773
0.0239703
0.0239647
0.0239827
0.0239842
0.023989
0.0239781
0.0239827
0.0239811
0.0239414
0.0239571
0.0239526
0.0239632
0.0239586
0.0239448
0.0239228
0.0233168
0.0237004
0.0229769
0.0230624
0.0238814
0.0237383
0.0237804
0.0239499
0.0239116
0.0239372
0.0239515
0.023962
0.0239635
0.0239532
0.0239553
0.0239411
0.0239393
0.0239349
0.0239097
0.0238424
0.0227134
0.0224448
0.023857
0.0228506
0.0229513
0.0223966
0.0224662
0.0238381
0.0238392
0.0238224
0.023922
0.0239396
0.0239416
0.0239311
0.0239337
0.0239189
0.0239356
0.0239503
0.0239524
0.0239422
0.0239442
0.0239281
0.023903
0.0237918
0.023816
0.0237624
0.0237433
0.0238999
0.0239125
0.0239162
0.0239206
0.0239102
0.0239148
0.0239113
0.0238578
0.0227019
0.0223154
0.0231183
0.0230013
0.0238576
0.0202934
0.0204922
0.0238541
0.0232479
0.0231546
0.0200523
0.0202352
0.023335
0.0231927
0.0239946
0.0239975
0.0239957
0.0230034
0.0237349
0.0231125
0.0231846
0.0231653
0.0237264
0.023996
0.0239947
0.0239981
0.0239935
0.0239949
0.0172334
0.017675
0.0184639
0.0183227
0.0222778
0.0191947
0.0190437
0.0196041
0.0192411
0.0223367
0.0189213
0.0192266
0.0236297
0.0236068
0.0227079
0.0201694
0.0197984
0.0191346
0.0193615
0.0239883
0.02399
0.0239929
0.0239863
0.0239891
0.0239873
0.0239584
0.0239693
0.0238597
0.0238859
0.0238901
0.0238667
0.0235851
0.023821
0.0238044
0.0238375
0.0238261
0.0235788
0.0237642
0.0237473
0.0237992
0.0237738
0.0237904
0.0234017
0.0234826
0.0232469
0.0233604
0.023785
0.0229056
0.0229646
0.0238528
0.0239756
0.0239665
0.0239848
0.0239783
0.0238794
0.0239192
0.0239024
0.0239604
0.0239262
0.0239842
0.0239894
0.0239861
0.0239823
0.0239765
0.0239776
0.0239718
0.0239782
0.0239747
0.0239821
0.0239853
0.0239762
0.023981
0.0239843
0.0239821
0.0239786
0.0231763
0.0232554
0.0239168
0.0225815
0.0222358
0.0233825
0.0226568
0.0217048
0.0213595
0.0221256
0.0218467
0.0238854
0.0230918
0.023155
0.0237116
0.0236431
0.0238941
0.0237675
0.023554
0.0234672
0.0236301
0.0235761
0.0239521
0.0237901
0.0238163
0.0239148
0.0239353
0.023959
0.0239613
0.0239485
0.0239419
0.023956
0.0239582
0.0227685
0.0227579
0.0238436
0.020859
0.020842
0.0193588
0.0206887
0.0206835
0.0211191
0.0208089
0.0207074
0.0227014
0.0228166
0.0238541
0.0207884
0.0204151
0.0212711
0.0209029
0.0197007
0.0192931
0.0202707
0.0198763
0.0238394
0.0225217
0.0226563
0.0238235
0.0238186
0.023937
0.0239389
0.0239211
0.0239182
0.0239344
0.0239363
0.0239476
0.0239496
0.0239348
0.0239289
0.0239449
0.0239469
0.0173287
0.0177775
0.0228258
0.0229966
0.0225966
0.0227643
0.0172707
0.0195806
0.0232177
0.0229696
0.0230427
0.0231765
0.0192666
0.0217933
0.0218998
0.0213702
0.0217534
0.0176641
0.0223656
0.0225494
0.0219599
0.0222666
0.0176446
0.0237708
0.0237859
0.023903
0.0236963
0.0237322
0.0237392
0.0236944
0.0237329
0.0239004
0.0237329
0.0237572
0.0215997
0.0182866
0.0184264
0.0189195
0.0183013
0.0216868
0.0184793
0.0206342
0.0184526
0.0208055
0.023633
0.0238496
0.0238408
0.0238593
0.0238524
0.023643
0.0234519
0.0234747
0.0205819
0.0207958
0.0195227
0.0199727
0.0234267
0.0233666
0.0240054
0.0240071
0.0240267
0.0238697
0.023868
0.0238575
0.0240027
0.0240031
0.023999
0.0239985
0.024003
0.0240028
0.024015
0.0240144
0.0240031
0.0239755
0.0239708
0.0239673
0.0239561
0.0239409
0.0239382
0.0238472
0.0238956
0.0239276
0.0239231
0.0239027
0.0238062
0.023798
0.0238628
0.0238211
0.0238324
0.0239014
0.0239803
0.0239818
0.0239771
0.0239427
0.0239544
0.0239749
0.023986
0.0239831
0.0239852
0.0239672
0.0238923
0.0239377
0.0239054
0.0239354
0.0239324
0.0239524
0.0239471
0.0239478
0.0239396
0.0239651
0.0239665
0.0239625
0.0239087
0.0239334
0.0239291
0.0228611
0.0227478
0.0238506
0.0238584
0.023818
0.0238137
0.0238365
0.0239238
0.023935
0.0239356
0.0239372
0.0239457
0.0239464
0.0239362
0.0239369
0.0239263
0.0238096
0.0230326
0.0229184
0.0239173
0.0239285
0.0239298
0.0239022
0.023904
0.0239085
0.0184173
0.0184301
0.0233441
0.0232752
0.0238532
0.0184116
0.0184107
0.023836
0.0238365
0.0238635
0.0239925
0.0239925
0.0169922
0.0172371
0.0173077
0.0182894
0.0185717
0.0171034
0.0171647
0.018568
0.0183335
0.0198507
0.0234207
0.0233942
0.0235645
0.0204654
0.0202356
0.0227454
0.0240081
0.0240075
0.024001
0.0239898
0.02399
0.0239906
0.0239916
0.0239845
0.0239856
0.0239938
0.0239968
0.0239952
0.0239548
0.0239532
0.0239608
0.0239673
0.0239638
0.0239613
0.0238669
0.023879
0.0238244
0.0238301
0.0238877
0.0238755
0.0237989
0.0238124
0.0236135
0.0236168
0.0236954
0.0236849
0.0235523
0.0236242
0.0236329
0.023901
0.0238369
0.023849
0.0238873
0.023799
0.0239166
0.0239022
0.0239749
0.0239687
0.0239452
0.0235526
0.0234981
0.0238669
0.0237668
0.0236225
0.0239921
0.0239904
0.0239868
0.0239874
0.0239817
0.0239852
0.0239466
0.0239813
0.0239833
0.0238246
0.0238667
0.0239657
0.0234274
0.0233617
0.023921
0.02393
0.0239711
0.0239726
0.0239714
0.0239634
0.023968
0.0239696
0.0238496
0.0227363
0.0227551
0.0238037
0.0238117
0.0239415
0.0239422
0.0239331
0.0239306
0.0239402
0.0239408
0.0173001
0.0184523
0.0203985
0.0205199
0.019051
0.0191575
0.0169998
0.023111
0.0230533
0.0238124
0.0176175
0.0174466
0.0184628
0.0184888
0.017414
0.0189509
0.0189971
0.0173004
0.0173312
0.0239259
0.0239272
0.023917
0.0239161
0.0239233
0.0239246
0.0208862
0.0231482
0.0232032
0.02303
0.0230893
0.0206891
0.0237348
0.0238507
0.023861
0.0238542
0.0238526
0.0237453
0.0235963
0.0237228
0.0237088
0.0234681
0.0234307
0.0235158
0.0188747
0.0189789
0.0190509
0.0184595
0.0229579
0.0208944
0.0205773
0.0211628
0.0209702
0.0227436
0.0227574
0.0227755
0.0235036
0.0235678
0.0238134
0.0239965
0.0239975
0.0239955
0.0182219
0.0182477
0.0205761
0.0205539
0.0171656
0.0188931
0.0184682
0.0184535
0.0183919
0.0184375
0.0190183
0.0156716
0.0233745
0.0234221
0.0240039
0.0240034
0.023999
0.0239462
0.0239436
0.0239568
0.0239582
0.0239642
0.0239692
0.023961
0.0239628
0.0238525
0.0238924
0.023758
0.0237684
0.0237685
0.0237577
0.0238635
0.0237923
0.0237882
0.0231183
0.0228418
0.0228394
0.0228949
0.0228826
0.0230739
0.0239686
0.0239731
0.0239739
0.0239711
0.0239722
0.0239667
0.0239085
0.023948
0.0239293
0.0239222
0.0239404
0.0239485
0.0239492
0.0238194
0.0238209
0.0238525
0.0238278
0.0239337
0.0239343
0.0239229
0.0239443
0.023945
0.0239364
0.0239272
0.0239375
0.0239382
0.023762
0.0237965
0.0237833
0.0238069
0.0238031
0.0237576
0.0184532
0.0185026
0.0184465
0.0184214
0.020117
0.0191298
0.0190778
0.022875
0.0228801
0.0232924
0.0229789
0.0230441
0.0228595
0.0229094
0.0232419
0.0239942
0.0239934
0.0239936
0.0239942
0.0239967
0.023997
0.0239981
0.023995
0.0239958
0.0239959
0.0230899
0.0234623
0.0234419
0.0235175
0.023489
0.0231145
0.0232597
0.0233642
0.0233206
0.0234252
0.0234034
0.0232209
0.0239955
0.0239961
0.023995
0.0239902
0.0239875
0.0239936
0.0239926
0.0169967
0.0180835
0.0173487
0.0173009
0.0184257
0.0183773
0.0200727
0.0201618
0.0191109
0.0171727
0.0170808
0.0187047
0.0178567
0.017896
0.017763
0.0195622
0.017924
0.0175038
0.0234395
0.0234773
0.0236494
0.0233312
0.0233429
0.023301
0.023309
0.0235842
0.0233828
0.0233989
0.0191824
0.0183016
0.0183435
0.0183186
0.0182853
0.0192504
0.0239889
0.0239897
0.0239892
0.0239857
0.0239864
0.023988
0.0239464
0.0239594
0.0239511
0.0239487
0.0239567
0.0239589
0.0239518
0.0239543
0.0238632
0.0238824
0.0237836
0.0237871
0.0237734
0.0237786
0.0238892
0.0238328
0.0238346
0.023786
0.0237894
0.0238703
0.0237864
0.0236438
0.0236212
0.0235647
0.0236759
0.0236643
0.0237572
0.0236479
0.0236443
0.0236851
0.0236637
0.0237523
0.0237928
0.0236989
0.0237099
0.0236572
0.0236792
0.0237841
0.0236355
0.023285
0.0235615
0.0235422
0.0228773
0.0229064
0.0238412
0.0239295
0.0239231
0.023826
0.0239018
0.0239532
0.0239392
0.0236422
0.0235949
0.0238121
0.0238228
0.0239084
0.0237419
0.0236929
0.0239651
0.0239731
0.0239849
0.0239792
0.0239544
0.0239249
0.0239535
0.0239763
0.023978
0.0239791
0.023975
0.0239763
0.023973
0.0239696
0.023973
0.0239831
0.0239817
0.0239805
0.0239845
0.0239826
0.0239841
0.0239776
0.0239791
0.0239766
0.0239786
0.0224894
0.022357
0.0231874
0.0222559
0.0223749
0.0219995
0.0227221
0.0215766
0.0214615
0.0220267
0.0219396
0.0236774
0.0233583
0.0234339
0.0232015
0.0232783
0.0236576
0.0238789
0.0237607
0.0237948
0.023478
0.0236802
0.0238436
0.0232999
0.0231779
0.0235312
0.022663
0.0227527
0.022502
0.0225822
0.0235054
0.0236164
0.0230661
0.0231307
0.0228501
0.0229549
0.0235972
0.023918
0.0239328
0.0208985
0.019515
0.0197099
0.0191116
0.0193056
0.0208735
0.0197214
0.019814
0.0198013
0.0202478
0.0207429
0.0180219
0.0182304
0.0183835
0.0180363
0.0208883
0.0207761
0.0187657
0.018932
0.0184403
0.0186139
0.0207434
0.02069
0.0205774
0.0211792
0.0210331
0.0195415
0.0193952
0.0201438
0.0200343
0.02381
0.0238151
0.0239339
0.0239429
0.0239436
0.0239388
0.0239395
0.0239297
0.0173685
0.01996
0.0202222
0.0182328
0.0169932
0.0193521
0.0196426
0.0179752
0.0177922
0.0218249
0.0196465
0.0196687
0.0215692
0.0194105
0.0189326
0.019673
0.0196113
0.0216885
0.018377
0.0181691
0.0186405
0.018855
0.017561
0.0176281
0.0181662
0.0237777
0.023842
0.0238375
0.0238482
0.0238452
0.0237818
0.0237088
0.023726
0.0237235
0.0236916
0.0236914
0.0237061
0.0237319
0.0238159
0.0238105
0.0238311
0.0238232
0.0237423
0.0183329
0.0191525
0.0192315
0.0190422
0.0190969
0.0183845
0.0186823
0.0197612
0.019944
0.0193614
0.0195501
0.0184371
0.0184315
0.0179811
0.0180958
0.0179176
0.0179395
0.01848
0.0188292
0.0189655
0.0183086
0.0185717
0.018451
0.0237435
0.0237347
0.0236198
0.0234471
0.0235003
0.0186151
0.0187972
0.0197028
0.0186744
0.0184531
0.0190093
0.018892
0.0198604
0.0184916
0.0184758
0.0227942
0.0228187
0.0240598
0.0240597
0.0240731
0.0240596
0.0240595
0.0240729
0.0240595
0.0240596
0.024073
0.0240598
0.02406
0.0240732
0.0240333
0.024033
0.0240464
0.0240327
0.0240325
0.024053
0.0240322
0.0240319
0.0240527
0.024032
0.0240325
0.0240528
0.0240328
0.0240333
0.0240533
0.0240338
0.0240339
0.0240469
0.0240071
0.0240065
0.0240263
0.024006
0.0240047
0.0240256
0.0240181
0.0240178
0.0240286
0.0240171
0.0240176
0.0240284
0.0240191
0.0240196
0.0240261
0.0240076
0.0240083
0.024021
0.0239813
0.0239806
0.024
0.0239929
0.0239928
0.0239993
0.0239972
0.0239969
0.0240003
0.0239923
0.0239937
0.0240033
0.0239824
0.0239831
0.0239956
0.0239559
0.0239553
0.0239742
0.0239675
0.0239675
0.0239737
0.0239718
0.0239718
0.0239748
0.0239683
0.0239694
0.0239783
0.0239581
0.0239584
0.0239707
0.0239306
0.0239303
0.0239491
0.0239426
0.0239428
0.0239489
0.0239478
0.0239479
0.0239508
0.0239457
0.023946
0.0239547
0.023934
0.0239338
0.0239461
0.0239051
0.0239052
0.0239241
0.0239177
0.0239181
0.0239243
0.0239239
0.0239241
0.0239271
0.0239227
0.0239224
0.0239313
0.0239096
0.023909
0.0239214
0.0238795
0.0238797
0.0238989
0.0238993
0.0238994
0.0239026
0.0238985
0.0238976
0.0239069
0.0238845
0.0238838
0.0238965
0.0238535
0.0238536
0.0238732
0.0238727
0.0238726
0.023879
0.0238587
0.0238582
0.023871
0.0238268
0.0238264
0.0238396
0.0238266
0.023826
0.023846
0.0238391
0.0238342
0.0238443
0.0200646
0.0237121
0.0237293
0.0238325
0.0238329
0.0238527
0.023832
0.0238322
0.0238452
0.0238005
0.0238001
0.0238132
0.0238004
0.0237995
0.0238194
0.0237993
0.0212677
0.021186
0.0229911
0.0238055
0.0238256
0.0238056
0.0238064
0.023826
0.0238055
0.0238058
0.023819
0.0237741
0.0237736
0.0237868
0.0237631
0.0225425
0.0212907
0.0234146
0.0237779
0.0237987
0.0237794
0.02378
0.0237932
0.0239779
0.023981
0.0239811
0.0239827
0.0239837
0.023979
0.0240012
0.0239979
0.0239981
0.0239538
0.0239568
0.0239568
0.0239598
0.0239599
0.0239557
0.0239774
0.0239729
0.023974
0.0239301
0.0239331
0.0239329
0.0239373
0.0239378
0.0239336
0.0239543
0.0239502
0.0239514
0.0239057
0.0239088
0.0239086
0.023914
0.0239149
0.0239104
0.0239322
0.023928
0.0239287
0.0238892
0.023889
0.0238858
0.0239074
0.0239044
0.0239049
0.0238476
0.0238602
0.0238635
0.0171443
0.0201739
0.020204
0.0225912
0.0225953
0.015745
0.0238826
0.0238793
0.0238795
0.0240028
0.0240141
0.0240145
0.0239994
0.0239994
0.0239983
0.0240284
0.0240174
0.024017
0.0239994
0.0239996
0.0240081
0.0240079
0.0240045
0.0240289
0.0240181
0.0240185
0.02398
0.0239863
0.0239865
0.023988
0.0239861
0.0239798
0.0239989
0.0239925
0.0239912
0.0239902
0.0239898
0.023987
0.0240002
0.0239983
0.0239987
0.0239813
0.0239906
0.0239892
0.0239882
0.0239882
0.0239821
0.0240006
0.0239943
0.0239944
0.0239551
0.0239613
0.0239612
0.023963
0.0239613
0.0239552
0.0239736
0.0239674
0.023966
0.0239657
0.0239688
0.0239688
0.0239606
0.0239642
0.0239624
0.0239743
0.0239727
0.0239712
0.0239721
0.0239699
0.0239725
0.0239576
0.0239664
0.0239655
0.0239639
0.0239643
0.0239584
0.0239761
0.0239702
0.0239699
0.0239305
0.0239367
0.0239364
0.023939
0.0239369
0.0239308
0.0239491
0.023943
0.023942
0.023942
0.0239449
0.0239449
0.0239155
0.0239356
0.0239341
0.0239452
0.0239434
0.0239259
0.0239343
0.0239431
0.0239428
0.0239401
0.0239408
0.0239349
0.0239525
0.0239467
0.023946
0.0239056
0.0239119
0.0239115
0.0239148
0.0239123
0.023906
0.0239247
0.0239185
0.0239178
0.023918
0.0239211
0.0239209
0.0239019
0.0239216
0.0239172
0.023922
0.0239207
0.0239043
0.0238934
0.0238431
0.0238493
0.0239101
0.0239192
0.0239198
0.023916
0.0239169
0.0239108
0.0239289
0.0239229
0.0239221
0.0238936
0.0238623
0.0238676
0.0238905
0.0238911
0.0239021
0.0238854
0.0238917
0.0238954
0.0238913
0.0238921
0.0238857
0.0239046
0.0238984
0.0238976
0.0238719
0.0238683
0.023867
0.023875
0.023874
0.0238796
0.0238229
0.0238308
0.0238325
0.0195801
0.0237838
0.023772
0.0227846
0.0227912
0.0182933
0.0238256
0.0238353
0.02186
0.023839
0.0238402
0.0238308
0.023854
0.0238435
0.0238458
0.0239768
0.0239776
0.023976
0.0239883
0.0239834
0.0239819
0.0239842
0.0239841
0.0239873
0.0239847
0.0239825
0.0239864
0.0239984
0.0239981
0.024
0.0239875
0.0239893
0.0239897
0.0239756
0.0239743
0.0239734
0.0239875
0.0239866
0.0239869
0.0239885
0.0239854
0.0239856
0.0239859
0.0239863
0.0239879
0.0239771
0.0239785
0.0239779
0.0239348
0.023949
0.0239471
0.0239606
0.0239587
0.0239517
0.0239597
0.0239597
0.0239627
0.0239343
0.0238957
0.0239069
0.0237589
0.0237652
0.0238737
0.0239144
0.0239198
0.0239449
0.0239656
0.0239613
0.0239626
0.023958
0.0239609
0.0239619
0.0239723
0.0239741
0.0239756
0.0239627
0.0239636
0.0239609
0.0239711
0.0239714
0.023967
0.0239068
0.0239246
0.0239233
0.0239327
0.0239313
0.0239118
0.0239359
0.0239361
0.023939
0.0238397
0.0237005
0.0236958
0.0237459
0.0237413
0.0238531
0.0238633
0.0237469
0.0237528
0.0236929
0.0236915
0.0238372
0.0239433
0.0239392
0.0239401
0.0239277
0.0239282
0.0239194
0.0239486
0.0239488
0.0239447
0.0238337
0.0234231
0.0233578
0.0236715
0.0236585
0.0238457
0.0238575
0.0237552
0.0237506
0.023337
0.0232638
0.0238249
0.0239028
0.0238886
0.0238897
0.0238559
0.0238612
0.0238983
0.0239208
0.0239164
0.023917
0.0239133
0.0239179
0.0239192
0.0239094
0.0239109
0.0239088
0.0239182
0.0239266
0.0239271
0.0239206
0.0239219
0.0239157
0.0239258
0.0239266
0.0239222
0.0238577
0.0237641
0.0237582
0.0237895
0.0237863
0.023857
0.0238511
0.0236956
0.0236838
0.0237516
0.0237442
0.0238565
0.0238839
0.0238766
0.0238758
0.023869
0.0238724
0.0238903
0.0239049
0.0239065
0.023908
0.0238977
0.0239023
0.0239008
0.0239018
0.0239014
0.0238983
0.0238455
0.0234084
0.0233633
0.0233043
0.0233834
0.0238429
0.0238555
0.023795
0.0237924
0.0238616
0.0238354
0.0238314
0.0239905
0.0239937
0.0239939
0.0239936
0.0239949
0.0239899
0.024
0.0239966
0.0239954
0.0239987
0.0239975
0.023998
0.0238896
0.023887
0.0238805
0.0238997
0.0238934
0.0238928
0.0238931
0.0238963
0.0238961
0.0238879
0.0238955
0.0238924
0.0239016
0.0238986
0.023889
0.0237509
0.0236529
0.0236677
0.0235488
0.0235742
0.0237052
0.0238596
0.0238661
0.0238694
0.0239983
0.0239979
0.0239991
0.0239906
0.0239921
0.0239928
0.0239957
0.0239973
0.0240024
0.0239906
0.0239956
0.023994
0.0239949
0.0239947
0.0239916
0.0238956
0.0239095
0.0239047
0.0239156
0.0239111
0.0238964
0.0239117
0.0239119
0.023915
0.0221401
0.0211932
0.0211024
0.0216728
0.0215798
0.0224554
0.0236648
0.0235015
0.0235236
0.0238952
0.0238921
0.0238924
0.0238906
0.0238914
0.0238961
0.0238851
0.0238897
0.0238891
0.0226217
0.0218516
0.0217651
0.0222166
0.0221618
0.022813
0.0238779
0.0238787
0.0238819
0.0238722
0.0238754
0.0238762
0.0238762
0.0238761
0.0238728
0.0240153
0.0240092
0.0240088
0.0240098
0.0240095
0.0240155
0.0240011
0.0240075
0.0240079
0.0240043
0.0240041
0.0240021
0.0240156
0.0240096
0.0240101
0.0240089
0.0240093
0.0240153
0.0239937
0.0239907
0.0239918
0.0239963
0.0239978
0.0239998
0.0239926
0.0239936
0.023993
0.0239969
0.0239965
0.0239947
0.0238518
0.02386
0.0238945
0.0239001
0.0238929
0.023893
0.0237994
0.0237398
0.0237468
0.0236811
0.0236926
0.0237717
0.0237956
0.0238562
0.0238553
0.0238572
0.0238568
0.0238001
0.0238781
0.023873
0.0238719
0.0239754
0.0239809
0.023983
0.0239772
0.0239586
0.0239726
0.0239705
0.0239815
0.0239784
0.023992
0.0239909
0.0239898
0.0239913
0.023991
0.0239927
0.0239801
0.0239792
0.02398
0.0239826
0.0239819
0.023981
0.0238148
0.0238232
0.0239066
0.0238936
0.0237998
0.0238071
0.0239473
0.0239511
0.0239623
0.0239565
0.02394
0.0239436
0.0239529
0.0239538
0.0239456
0.0239621
0.0239615
0.0239601
0.0239644
0.023963
0.0239635
0.0239565
0.0239559
0.0239545
0.0239587
0.0239573
0.0239579
0.0239434
0.0239514
0.0239521
0.0239698
0.0239707
0.0239695
0.0239736
0.0239731
0.0239717
0.0239761
0.0239746
0.0239751