/*--------------------------------*- C++ -*----------------------------------*\
| =========                 |                                                 |
| \\      /  F ield         | OpenFOAM: The Open Source CFD Toolbox           |
|  \\    /   O peration     | Version:  5.x                                   |
|   \\  /    A nd           | Web:      www.OpenFOAM.org                      |
|    \\/     M anipulation  |                                                 |
\*---------------------------------------------------------------------------*/
FoamFile
{
    version     2.0;
    format      ascii;
    class       volScalarField;
    location    "500";
    object      p;
}
// * * * * * * * * * * * * * * * * * * * * * * * * * * * * * * * * * * * * * //

dimensions      [0 2 -2 0 0 0 0];

internalField   nonuniform List<scalar> 
6584
(
20.999
19.1745
17.3496
15.5249
13.7004
11.8758
10.0513
8.22727
6.40345
4.57952
2.75497
0.929209
-0.89812
-2.72686
-4.5564
-6.38607
-8.21536
-10.0442
-11.8726
-13.7006
-15.5284
-17.3554
-19.1816
-21.0067
21.0005
19.1789
17.3552
15.5309
13.7065
11.881
10.0542
8.22863
6.40463
4.58097
2.75669
0.93111
-0.896289
-2.72534
-4.55528
-6.38576
-8.2164
-10.0467
-11.877
-13.7063
-15.5343
-17.3615
-19.1864
-21.008
21.001
19.1821
17.3618
15.5391
13.7151
11.8896
10.0606
8.23165
6.40637
5.03848
3.21554
1.39104
-0.435963
-2.26552
-4.0966
-6.38957
-8.22473
-10.0571
-11.8873
-13.7158
-15.5427
-17.3678
-19.1892
-21.009
21.0009
19.1827
17.3642
15.5442
13.7219
11.8976
10.0689
8.23852
6.41059
5.04087
3.21967
1.39687
-0.429994
-2.26218
-4.10187
-5.9407
-8.24081
-10.0713
-11.899
-13.7253
-15.5497
-17.3713
-19.1907
-21.0098
21.0006
19.1826
17.3643
15.546
13.7261
11.9036
10.0782
8.25345
6.87587
5.04583
3.22548
1.40526
-0.421031
-2.26616
-4.12131
-5.96483
-7.79775
-10.0842
-11.9092
-13.7329
-15.554
-17.3732
-19.1918
-21.0105
21.0002
19.1822
17.3641
15.546
13.7276
11.9077
10.0867
8.72075
6.89752
5.07376
3.47123
1.64831
-0.174021
-2.0503
-4.14568
-5.98404
-7.81202
-10.095
-11.9177
-13.738
-15.5567
-17.3749
-19.1929
-21.0111
20.9997
19.1818
17.3637
15.5455
13.7272
11.9085
10.089
8.72309
6.90415
5.08883
3.5057
1.80355
-0.0136367
-2.07399
-3.93999
-6.00385
-7.82671
-10.1048
-11.924
-13.7415
-15.5589
-17.3763
-19.194
-21.0117
20.9993
19.1813
17.3631
15.5448
13.7263
11.9074
10.0885
8.72341
6.90147
5.08094
3.49417
1.81165
-2.03005
-3.97787
-6.02412
-7.83984
-10.1112
-11.9282
-13.7442
-15.5608
-17.3776
-19.1948
-21.0121
20.999
19.1809
17.3626
15.5441
13.7253
11.9058
10.0859
8.72074
6.89499
5.06508
3.46061
1.72335
-2.1475
-4.01844
-6.03991
-7.84698
-10.1132
-11.9297
-13.7459
-15.5621
-17.3784
-19.1953
-21.0122
20.9987
19.1805
17.3621
15.5434
13.7245
11.9047
10.0841
8.71741
6.88817
5.05334
3.43935
1.6851
-2.19828
-4.03965
-6.04624
-7.84879
-10.1112
-11.9274
-13.745
-15.5623
-17.3785
-19.1953
-21.0121
20.9986
19.1802
17.3618
15.543
13.724
11.9042
10.0834
8.71574
6.88588
5.05186
3.4399
1.69771
-2.17219
-4.02895
-6.03832
-7.84258
-10.1049
-11.9214
-13.7403
-15.5602
-17.3781
-19.195
-21.0117
20.9985
19.1801
17.3616
15.5429
13.724
11.9045
10.0839
8.71595
6.88804
5.05897
3.4564
1.73865
-2.09983
-3.994
-6.01863
-7.82912
-10.0944
-11.9125
-13.7326
-15.5547
-17.3758
-19.1941
-21.0109
20.9986
19.1802
17.3618
15.5432
13.7245
11.9056
10.0854
8.71791
6.89273
5.06927
3.47662
1.78189
-2.02275
-3.95048
-5.99309
-7.811
-10.0805
-11.901
-13.7229
-15.5468
-17.3716
-19.1928
-21.0099
20.9988
19.1803
17.362
15.5436
13.7252
11.9067
10.0869
8.2648
6.89685
5.07471
3.48268
1.77802
0.0654357
-2.068
-3.91078
-5.9648
-7.79051
-10.064
-11.8874
-13.7114
-15.5385
-17.3657
-19.1896
-21.0087
20.9989
19.1805
17.3622
15.5439
13.7256
11.9072
10.0863
8.26034
6.89261
5.05863
3.46091
1.64908
-0.170915
-2.03298
-4.10684
-5.94129
-8.22615
-10.0524
-11.8783
-13.7031
-15.5309
-17.3579
-19.1829
-21.0059
20.999
19.1806
17.3623
15.5439
13.7255
11.9066
10.0837
8.25212
6.87667
5.0503
3.22988
1.6367
-0.192997
-2.2582
-4.09808
-5.93278
-8.2193
-10.0465
-11.8725
-13.7005
-15.5264
-17.3522
-19.1774
-21.003
20.9991
19.1805
17.3621
15.5436
13.725
11.905
10.0792
8.24686
6.41631
5.04837
3.22522
1.40031
-0.425304
-2.26032
-4.09609
-5.92781
-8.21288
-10.0398
-11.8669
-13.695
-15.5221
-17.3484
-19.1758
-21.0014
20.999
19.1804
17.3618
15.5431
13.7238
11.9018
10.0738
8.24223
6.41461
4.59078
3.222
1.39775
-0.432837
-2.26261
-4.55106
-6.38087
-8.20896
-10.0361
-11.8634
-13.6909
-15.5177
-17.3445
-19.1719
-20.9992
20.9989
19.1801
17.3613
15.5424
13.7227
11.8984
10.0685
8.23892
6.41271
4.58853
2.76064
0.937103
-0.890348
-2.72283
-4.54978
-6.37911
-8.20659
-10.0338
-11.8608
-13.6879
-15.5148
-17.3418
-19.1687
-20.9972
20.9988
19.1798
17.3607
15.5415
13.7214
11.8957
10.065
8.23715
6.41132
4.58695
2.75964
0.934956
-0.892438
-2.72256
-4.54904
-6.37782
-8.20479
-10.032
-11.8587
-13.6856
-15.5126
-17.3396
-19.1663
-20.9956
20.9986
19.1794
17.3601
15.5406
13.7201
11.8937
10.0628
8.23587
6.4103
4.5857
2.75871
0.933134
-0.894024
-2.72252
-4.54869
-6.37688
-8.20347
-10.0305
-11.857
-13.6838
-15.5108
-17.3377
-19.1642
-20.9942
20.9984
19.179
17.3593
15.5395
13.7188
11.8922
10.0613
8.23484
6.40921
4.58469
2.75787
0.932052
-0.894836
-2.72258
-4.54853
-6.37626
-8.20252
-10.0295
-11.8558
-13.6824
-15.5093
-17.3361
-19.1625
-20.9931
20.9981
19.1785
17.3586
15.5385
13.7175
11.8909
10.0601
8.23364
6.40826
4.58389
2.7573
0.931343
-0.895371
-2.72262
-4.54844
-6.37578
-8.20182
-10.0287
-11.8548
-13.6814
-15.5081
-17.3347
-19.161
-20.9921
20.9979
19.178
17.3578
15.5375
13.7162
11.8896
10.059
8.23252
6.40741
4.58306
2.75685
0.930841
-0.895756
-2.72266
-4.54839
-6.37541
-8.2013
-10.028
-11.8539
-13.6805
-15.5071
-17.3336
-19.1598
-20.9912
20.9976
19.1775
17.357
15.5365
13.715
11.8885
10.0579
8.23149
6.40644
4.58223
2.75648
0.930453
-0.896025
-2.72267
-4.54834
-6.37513
-8.20089
-10.0274
-11.8532
-13.6798
-15.5062
-17.3326
-19.1588
-20.9905
20.9973
19.177
17.3563
15.5356
13.7138
11.8873
10.057
8.23053
6.40548
4.58145
2.75565
0.929758
-0.896586
-2.72293
-4.54852
-6.3751
-8.20078
-10.0272
-11.8531
-13.6795
-15.5057
-17.3319
-19.1579
-20.9899
20.997
19.1765
17.3556
15.5347
13.7127
11.8863
10.0561
8.22967
6.40456
4.58002
2.75421
0.928389
-0.897792
-2.72399
-4.54953
-6.37594
-8.20156
-10.0279
-11.8537
-13.68
-15.5059
-17.332
-19.1579
-20.9897
20.9967
19.176
17.3549
15.5338
13.7117
11.8853
10.0553
8.22884
6.40328
4.57824
2.75248
0.926645
-0.899503
-2.7256
-4.5511
-6.37737
-8.20293
-10.0292
-11.8549
-13.6811
-15.5069
-17.333
-19.1587
-20.99
20.9964
19.1755
17.3543
15.533
13.7107
11.8843
10.0545
8.22763
6.40161
4.57652
2.75078
0.924945
-0.901174
-2.72719
-4.55265
-6.3788
-8.2043
-10.0305
-11.8561
-13.6822
-15.5079
-17.3339
-19.1597
-20.9903
20.9961
19.1751
17.3536
15.5322
13.7098
11.8834
10.0533
8.22593
6.39995
4.57482
2.74911
0.92328
-0.902808
-2.72874
-4.55419
-6.38022
-8.20568
-10.0318
-11.8574
-13.6834
-15.509
-17.335
-19.1607
-20.9906
20.9958
19.1747
17.353
15.5315
13.7088
11.8819
10.0513
8.22423
6.39829
4.57312
2.74747
0.921644
-0.904414
-2.73028
-4.55569
-6.38165
-8.20707
-10.0331
-11.8586
-13.6845
-15.5101
-17.336
-19.1617
-20.991
20.9956
19.1743
17.3525
15.5308
13.7073
11.8795
10.0493
8.22252
6.39665
4.57147
2.74583
0.920029
-0.905998
-2.7318
-4.5572
-6.38305
-8.20846
-10.0344
-11.8598
-13.6857
-15.5113
-17.3371
-19.1627
-20.9914
20.9954
19.1739
17.352
15.5297
13.7048
11.8766
10.0473
8.22082
6.39502
4.56979
2.74422
0.918436
-0.907563
-2.73331
-4.55866
-6.38447
-8.20983
-10.0357
-11.8611
-13.6869
-15.5124
-17.3382
-19.1638
-20.9918
20.9952
19.1735
17.3515
15.5281
13.7018
11.8737
10.0453
8.21911
6.39339
4.56814
2.74259
0.916862
-0.909114
-2.73478
-4.56014
-6.38586
-8.21121
-10.037
-11.8624
-13.6881
-15.5136
-17.3393
-19.1648
-20.9922
20.995
19.1732
17.351
15.5266
13.699
11.871
10.0432
8.21739
6.39171
4.56645
2.74094
0.915317
-0.910644
-2.73622
-4.56159
-6.38721
-8.21259
-10.0383
-11.8637
-13.6894
-15.5148
-17.3404
-19.1659
-20.9925
20.9948
19.1729
17.3507
15.5255
13.697
11.8686
10.0413
8.2157
6.39012
4.5648
2.73929
0.913791
-0.912183
-2.73765
-4.56304
-6.38861
-8.21398
-10.0396
-11.865
-13.6906
-15.516
-17.3416
-19.1671
-20.993
1.73197
-1.91926
-1.7985
1.68691
-1.98458
-1.9326
1.69394
-1.96282
-1.98662
1.73278
-1.8892
-1.95542
1.77738
-1.80516
-1.8786
1.79093
0.191595
0.0703875
-1.73484
-1.79531
1.82079
0.216881
-1.78104
-1.71127
3.46875
1.96594
2.03413
-1.04247
-0.896834
-2.13571
-3.5632
-3.52354
3.44258
1.92323
1.95805
1.70271
0.927352
0.954124
-1.21143
-1.1701
-2.19595
-3.59723
-3.57463
3.43784
1.92767
1.92152
1.68445
0.909588
0.907592
-1.24922
-1.25535
-2.17933
-3.59305
-3.59993
3.45142
1.96193
1.93099
1.71115
0.95823
0.934988
-1.13405
-1.18567
-2.10962
-3.55698
-3.58624
-1.00539
-1.0818
-2.03194
-3.50818
-3.54521
-0.903287
-0.946131
1.65311
0.16568
0.182071
-0.0617765
-1.56549
-1.7267
0.95887
1.00933
1.76349
0.890817
0.837983
0.998137
0.900759
-1.16673
-1.08324
-1.87255
-1.16319
-1.22
0.908418
0.923859
1.69758
0.835131
0.816243
0.833612
0.836509
-1.2509
-1.21682
-1.97015
-1.27266
-1.28921
-1.22276
-1.26882
-1.96284
0.93175
0.912186
1.68592
0.81953
0.843881
0.816549
0.817292
-1.19118
-1.24509
-1.98013
-1.28223
-1.24917
-1.29226
-1.28598
-1.98384
0.845673
0.87411
0.846243
0.84195
-1.08518
-1.13248
-1.91937
-1.18715
-1.16892
-1.24473
-1.18913
-1.92912
0.918324
0.939384
0.878382
0.914387
-0.952621
-0.99886
-1.16259
-1.11735
-1.84644
0.96606
0.94248
0.941825
0.963643
-0.851532
-0.898909
1.7755
1.01957
1.10533
-0.551207
-0.396622
3.47184
2.00223
1.9672
1.75657
1.02585
0.992671
-0.492719
-0.519158
-1.96532
-3.46226
-3.49587
0.622336
0.499572
-1.01883
-1.14895
-1.85439
0.988519
0.961889
1.71625
0.424852
0.441685
0.511694
0.519489
0.439125
0.46755
-0.523138
-0.546776
-1.83601
-1.11088
-1.06606
0.521548
0.535575
-1.05991
-1.01854
-1.76694
0.222983
0.955824
1.01001
-0.877851
-0.74881
0.0949774
-0.578836
-0.984843
-0.628729
-0.466633
-0.60992
-0.963629
-1.19154
-1.19352
-1.26395
-1.26367
-1.16258
-1.16018
-1.02456
-0.633009
-1.05716
-0.46688
-0.490008
-0.577349
-0.552051
-0.926677
0.431789
0.863211
0.467237
0.488259
0.468959
0.855558
0.491533
0.551641
0.940137
0.485107
0.430938
-1.13266
-1.12828
0.82042
0.820409
0.848133
0.847176
-1.22463
-1.22168
-1.26242
-1.61322
-1.6032
-1.62419
-1.61614
-1.26544
-1.24295
-1.57937
-1.56011
-1.5992
-1.58469
-1.24359
0.831343
0.83317
0.814251
0.814874
-1.20689
-1.21158
-1.25078
-1.6106
-1.62154
-1.59144
-1.60617
-1.24654
-1.30044
-1.62918
-1.62609
-1.62437
-1.62889
-1.30045
0.428829
0.856846
0.480794
0.460982
0.49739
0.478906
0.86088
0.826606
0.464596
0.830272
-1.10806
-1.11043
-1.21693
-1.56941
-1.5856
-1.54679
-1.56392
-1.21541
0.501959
0.510804
0.893921
0.523537
0.497195
0.556263
0.528793
0.899423
0.473017
0.500939
-0.972261
-0.603405
-0.580944
-0.62568
-0.603074
-0.979005
-0.540838
0.526654
0.541195
0.199967
0.537679
0.522768
-0.00868102
-0.413882
-0.464289
-0.0598502
3.48651
2.13102
2.0064
1.79395
1.12748
1.11136
-0.0263428
-0.739837
-0.78677
0.436546
1.0513
1.02969
1.76223
0.281899
0.274397
0.179148
0.526896
0.509848
0.282995
0.304049
-0.363495
-0.39919
0.0345259
0.311282
0.624605
0.634593
-0.374287
-0.276921
0.175409
0.936808
1.29644
1.28559
-1.19478
-1.03486
-1.1785
0.906643
1.26849
1.26954
1.26963
1.26735
0.90645
-1.25825
-1.26
-1.14708
-1.16504
-0.224882
-0.229235
-0.920477
-0.548982
-0.556142
0.885386
0.875525
0.204133
0.954876
0.563878
0.672796
-1.15013
-0.994517
-1.02819
-1.20269
-1.51728
-1.4832
-1.55266
-1.52631
-1.21321
0.912138
1.27473
1.26948
1.28376
1.27556
0.913868
0.826289
0.632188
0.660096
0.626681
0.626183
0.818265
0.662937
0.66274
0.841528
-1.24191
-1.21122
-1.26805
-1.42538
-1.39828
-1.44741
-1.44132
-1.28052
1.27165
1.27545
0.920668
0.825117
0.648474
0.625824
0.814895
0.625816
0.626849
0.620952
0.62024
0.815491
-1.1905
-1.23261
-1.27007
-1.43608
-1.44213
-1.37392
-1.41078
-1.24824
-1.29743
-1.452
-1.4477
-1.4451
-1.44891
-1.29472
-1.09455
-0.920923
-0.919815
-0.988707
-0.968994
-1.12415
-1.19564
-1.5234
-1.54095
-1.50002
-1.51739
-1.1894
0.928279
0.564558
0.557676
0.603519
0.597548
0.931038
0.32722
0.331369
0.951136
0.617903
0.607041
0.324886
0.326606
-0.21906
-0.218516
-0.496011
-0.166858
-0.471694
-0.272592
-0.505066
-0.333549
-0.3086
-0.345506
-0.510002
0.563394
0.3898
0.490382
0.367455
0.543898
0.416433
0.426576
0.29958
0.286562
0.514285
0.340416
0.348053
0.339884
0.337085
0.514703
0.435631
0.441775
-0.531282
-0.532013
0.527445
0.35918
0.347839
0.303379
0.301803
-0.673973
-0.826092
-0.78596
-0.868644
-0.837815
-0.694438
-1.19019
-1.18329
-1.26043
-1.26277
-1.1528
-1.15944
-0.667627
-0.818744
-0.829066
-0.805429
-0.816737
-0.662193
-0.838075
-0.860715
-0.833793
-0.83486
-0.476665
-0.2946
-0.286673
-0.315133
-0.296302
-0.479377
-0.235094
-0.266846
0.458797
0.655133
0.645366
0.678616
0.659819
0.459778
0.622976
0.624745
0.640678
0.624489
0.517662
0.704572
0.68421
0.459426
0.45424
-0.976215
-0.987725
-1.14661
-0.935374
-0.898993
-0.878288
-0.924664
-0.905668
-1.11019
-0.956751
-0.969167
0.624068
0.626687
0.824713
0.566549
0.564332
0.604982
0.569143
0.566756
0.567845
0.565138
0.567728
0.818125
0.626392
0.624672
0.600431
0.594848
0.624896
0.608696
0.602709
0.606622
0.59645
0.601056
0.842241
0.662114
0.660335
-1.23921
-1.21498
-1.43172
-1.42569
-1.26322
-1.2775
-1.44046
-1.43286
0.654928
0.650789
0.827465
0.596914
0.597341
0.553719
0.592051
0.58906
0.600859
0.59612
0.591328
0.623939
0.625621
0.81534
0.566682
0.564314
0.568227
0.566791
0.559675
0.555828
0.563759
0.561357
0.814584
0.621374
0.62332
-1.19305
-1.22631
-1.42498
-1.43262
-1.26473
-1.2432
-1.41377
-1.4214
-1.45347
-1.45155
-1.29921
-1.29684
-1.45117
-1.45213
0.428877
0.464869
0.648312
0.654011
0.637431
0.645189
0.452734
0.491502
0.667416
0.642816
0.656127
0.664237
0.484175
0.616894
0.615936
0.609933
0.616413
0.473068
0.630645
0.635988
0.616816
0.628129
0.467726
-0.945737
-0.927343
-1.09853
-0.879658
-0.906833
-0.86482
-0.869901
-0.911714
-1.11954
-0.959282
-0.940734
0.503236
0.327454
0.342709
0.346078
0.323663
0.504664
0.301581
0.485945
0.346901
0.491171
-0.623092
-0.793528
-0.802014
-0.779098
-0.789941
-0.614911
-0.562984
-0.5741
0.335092
0.349963
0.306616
0.323485
-0.19478
-0.217457
-2.01553
-3.51057
-3.47922
-1.75844
-1.06834
-1.03558
0.362113
0.49655
0.487209
-0.0294221
0.0175832
0.291937
-1.74467
-1.00371
-1.00192
1.31316
1.29925
0.940376
-1.20551
-1.1655
-1.17238
-1.25383
-1.25682
1.2874
1.29467
0.944242
-1.14746
-1.13942
-1.17903
-0.917165
-0.900115
-1.07089
0.97638
1.33489
1.31723
0.684938
0.687774
0.842704
-0.928213
-0.950517
-1.10474
0.856582
0.671044
0.683891
-1.24728
-1.17972
-1.1858
-1.22033
-1.34749
-1.34503
-1.28612
-1.39372
-1.38744
-1.25424
0.923185
1.27822
1.28422
0.661979
0.653032
0.83865
-1.19501
-1.15969
-1.15369
-1.2413
-1.27857
-1.33954
-1.34251
-1.29417
-1.35154
-1.34973
-1.34549
-1.34819
-1.28973
0.820732
0.67374
0.666634
-1.22852
-1.36607
-1.37178
-1.14306
-1.47612
-1.49404
0.21522
0.214752
0.632769
0.621792
0.953922
0.216762
0.215735
-0.550312
-0.532198
-0.882947
-0.538372
-0.489374
0.420876
0.389424
0.393281
0.442776
0.436239
0.380318
0.384961
0.411875
0.403734
0.461222
-0.500758
-0.491369
-0.542518
0.362211
0.359787
0.529228
-0.834081
-0.422721
-0.446364
-0.598138
-0.641082
-0.69368
-0.678834
-0.772158
-0.755833
-0.772974
-0.732997
-0.551719
-1.13536
-1.14011
-1.18899
-1.19227
-1.13759
-1.13982
-1.26544
-1.26381
-1.10752
-1.10522
-1.16183
-1.15664
-1.10536
-1.10328
-0.710132
-0.719221
-0.686972
-0.693522
-0.642639
-0.728911
-0.737846
-1.0674
-0.896334
-0.889288
0.433295
0.465264
0.522588
0.522659
0.552343
0.54577
0.483812
0.503495
0.506927
0.519452
0.502489
0.463093
0.704871
0.710473
0.525232
0.473038
0.408239
0.411536
0.433435
-0.80145
-0.790018
0.659877
0.665525
0.854842
0.509677
0.512399
-1.22883
-1.21899
-1.37173
-1.36606
-1.23441
-1.24982
-1.38129
-1.3763
0.836747
0.653084
0.654688
-1.20105
-1.21594
-1.35668
-1.35657
-1.30041
-1.30053
-1.35638
-1.35653
0.43223
0.481454
0.536075
0.537063
0.516323
0.514855
0.456787
0.677739
0.675284
0.82335
0.500045
0.496629
0.507746
0.514243
0.468257
0.520449
0.518722
0.492783
0.489935
-1.35407
-1.35955
-1.22351
-1.20477
-1.34229
-1.34874
0.50535
0.65785
0.665416
0.645774
0.650657
0.500165
-0.59244
-0.738329
-0.776011
-0.725609
-0.732328
-0.590029
-0.623422
-0.683816
-0.683622
-0.544097
-0.506087
-0.590307
0.193021
0.228347
0.241462
0.218065
0.547748
0.376859
0.365911
0.383331
0.378883
0.519487
-0.0563182
-0.0847497
-0.281878
-0.277962
-0.453781
0.407903
0.436636
0.374563
0.277378
0.274114
0.332567
0.333953
0.171096
0.299496
0.254832
0.249367
0.253076
0.254285
0.303392
0.106348
-0.148792
-0.184272
-0.335108
-0.0741414
-0.119782
-1.1541
-1.15938
-1.19992
-1.03895
-1.06595
-1.06884
-1.07829
-1.07181
-1.25702
-1.258
-1.03341
-1.04114
-1.01873
-1.02505
-1.17181
-1.13068
-1.1225
-0.232634
-0.178153
-0.167247
-0.191616
-0.18708
-0.236837
-1.00469
-1.04777
-1.04076
-1.06501
-1.0568
-1.01666
-1.24409
-1.21904
-1.18742
-1.18768
-1.28317
-1.34265
-1.34013
-1.17247
-1.1657
-1.19485
-1.23842
-1.33273
-1.33636
-1.27493
-1.35427
-1.35288
-1.29569
-1.29269
-1.35049
-1.35221
-0.983975
-1.02145
-1.01619
-1.01275
-1.01875
-0.976537
0.213969
0.213165
0.219921
0.217454
0.325541
0.269561
0.2705
-0.114771
-0.116585
-0.217185
-0.153286
-0.162552
-0.158397
-0.152757
-0.215918
-0.443956
-0.461317
-0.518824
-0.387737
-0.20489
-0.283669
-0.242736
-0.350488
-0.325792
-0.257428
-0.322108
-0.378959
-0.387478
-0.372414
-0.373732
-0.313186
-0.361153
-0.39645
-0.400201
-0.396616
-0.402361
-0.356106
0.40339
0.470424
0.440688
0.38664
0.38123
0.403511
0.396065
0.417231
0.440769
0.395287
0.390725
0.295629
0.291173
0.401419
0.401433
0.346672
0.372133
0.375727
0.434306
0.357777
0.363062
0.344832
0.451828
0.381792
0.371449
-0.469358
-0.475237
-0.531111
-0.428873
-0.434431
-0.408598
-0.418915
-0.536188
-0.481309
-0.472985
0.302024
0.248712
0.251311
0.243133
0.245646
0.300903
-0.723147
-0.707682
-0.652564
-0.712304
-0.746321
-0.737744
-1.11065
-1.18738
-1.14264
-1.14845
-1.09259
-1.08571
-1.10572
-1.09982
-1.26328
-1.26431
-1.06512
-1.07248
-1.04934
-1.05753
-1.15798
-1.09944
-1.09241
-1.11519
-1.10896
-1.15626
-1.0786
-0.700118
-0.703126
-0.65282
-0.700877
-0.705352
-0.844933
-0.795706
-0.785477
-0.815839
-0.806604
-0.853325
-0.836294
-0.780176
-0.776174
-0.7779
-0.77482
-0.835525
-0.743157
-0.309794
-0.368599
-0.372236
-0.244684
-0.256137
0.427467
0.521943
0.521291
0.461333
0.467435
0.536006
0.527054
0.495635
0.499375
0.563194
0.560678
0.623967
0.495834
0.493688
0.404512
0.403764
0.463818
0.372861
0.438205
0.398584
0.404814
-0.982117
-1.0349
-1.03
-1.03824
-1.03727
-0.981629
-0.955019
-0.945609
-0.891781
-0.841795
-0.856008
-0.82902
-0.833292
-0.885851
-0.914843
-0.867505
-0.875106
-0.906731
0.56502
0.563792
0.599555
0.549334
0.551026
0.53742
0.57364
0.567085
0.567517
0.565929
0.566844
0.595166
0.533877
0.53654
0.53655
0.534377
0.593912
0.623264
0.565668
0.565158
0.542892
0.562076
0.618414
0.513151
0.505502
0.604267
0.548929
0.546957
0.552446
0.5507
0.60564
0.598346
0.541917
0.538901
0.544714
0.542648
0.599548
-1.23349
-1.21542
0.598639
0.547087
0.549335
0.542704
0.544588
0.59842
0.556883
0.548581
0.540856
0.574501
0.588603
0.527508
0.531096
0.526908
0.524984
0.592503
0.594744
0.538763
0.540796
0.53433
0.536892
0.593248
0.566654
0.566262
0.568631
0.567014
0.558743
0.557438
0.563227
0.56316
-1.19579
-1.22087
-1.30032
-1.35635
-1.35544
-1.35393
-1.35535
-1.299
0.433888
0.531221
0.535002
0.479275
0.453098
0.516676
0.523224
0.506603
0.503362
0.616568
0.558438
0.560817
0.613839
0.558554
0.542684
0.562071
0.56179
0.615136
0.51347
0.509857
0.51834
0.520627
0.471509
0.489712
0.503998
-0.942244
-0.998168
-1.00026
-0.987432
-0.993293
-0.935311
-0.890124
-0.898915
-0.859838
-0.829693
-0.824555
-0.862776
-0.950001
-0.999685
-1.0055
-0.999024
-0.997441
-0.943365
0.332514
0.386275
0.383497
0.393097
0.389855
0.337686
0.332492
0.394978
0.399878
0.383454
0.387818
0.323133
0.297146
0.371092
0.370416
0.367629
0.370632
0.350086
0.393553
0.394913
0.371509
0.380258
0.346768
-0.680285
-0.683765
-0.628352
-0.552356
-0.584365
0.213899
0.217716
0.314271
0.252844
0.243466
0.27058
0.267449
0.320473
0.22323
0.222578
-0.0970364
-0.107971
3.23187
2.09612
2.31525
1.643
0.27815
0.493468
-0.179477
-1.57224
-1.33934
-2.04369
-3.2067
-3.19544
5.08656
3.95527
4.16297
3.50122
2.13643
2.10192
1.6816
0.207475
0.283993
-0.0220993
-1.58855
-1.57982
-2.06278
-3.47206
-3.44761
-3.93334
-5.07828
-5.06661
5.08622
3.95187
3.95746
3.50022
2.04189
2.1482
1.82955
1.16468
1.12905
0.0162522
-0.746344
-0.751975
-1.97523
-2.56033
-2.54697
-3.96794
-5.10334
-5.08978
5.07351
3.92689
3.94714
3.48645
3.03148
3.04169
1.80075
1.57708
1.59045
-2.07736
-2.75183
-2.72294
-4.00932
-5.12841
-5.11589
5.05809
3.90474
3.92024
3.45335
2.99029
2.99897
1.71557
1.47976
1.48811
-2.17515
-2.82043
-2.79796
-4.03744
-5.14667
-5.13911
5.05124
3.89964
3.9019
3.43746
2.97273
2.97445
1.68401
1.44666
1.44763
-2.19774
-2.83868
-2.83721
-4.03462
-5.14744
-5.14964
5.05468
3.90993
3.90112
3.44296
2.98165
2.97745
1.70179
1.46866
1.46395
-2.14733
-2.80379
-2.82016
-4.00425
-5.12927
-5.14039
5.06406
3.92656
3.91395
1.74466
1.51676
1.50975
-2.0701
-2.7429
-2.76678
-3.96143
-5.09994
-5.11535
5.0737
3.93969
3.93058
-1.99611
-2.5717
-2.58687
-3.9201
-5.06788
-5.08389
5.06896
4.1523
4.16234
3.46215
2.10424
2.11887
1.77039
1.09857
1.10602
0.0341047
-0.306256
-0.349421
-2.03371
-3.42403
-3.45207
-4.11818
-5.03482
-5.05189
5.05235
4.1417
4.14474
3.23175
2.09458
2.10171
1.63932
0.268802
0.287718
-0.189012
-1.5692
-1.56699
-2.02895
-3.18003
-3.41849
-4.10054
-5.02047
-5.02486
3.22734
2.31701
2.31955
1.40119
0.492035
0.263827
-0.421825
-1.34407
-1.57015
-2.25878
-3.17905
-3.17787
1.49757
1.50831
1.74163
-1.90402
-1.63454
-1.65835
-1.56387
-1.58499
-1.81683
1.44948
1.45229
1.68968
-1.98109
-1.71913
-1.72533
-1.66523
-1.68399
-1.94415
1.45957
1.45563
1.69073
-1.96944
-1.70716
-1.69587
-1.72626
-1.72757
-1.98718
1.50313
1.49706
1.72708
-1.89903
-1.62701
-1.66712
-1.69128
-1.67658
-1.9473
-1.81528
-1.58926
-1.57864
-1.65696
-1.64528
-1.86776
1.11009
1.13262
1.79676
0.165742
0.301058
0.294498
-0.0616753
-0.0914232
0.104474
-1.56814
-1.55747
-1.78546
1.11557
1.175
1.83062
0.422059
0.457949
0.484962
0.900662
0.941916
0.263885
0.257497
0.352256
-1.76661
-1.52712
-1.54344
-0.99501
-0.995973
-1.73579
3.00904
3.02014
3.4776
1.99434
2.56366
2.54967
2.59126
2.5781
2.00458
-1.02531
-0.889666
-0.919291
-0.771888
-0.797042
-0.917973
-2.79061
-2.76135
-2.09308
-3.55049
-3.10084
-3.11707
-3.0671
-3.0837
-3.53706
2.97793
2.98324
3.44733
1.93373
2.51817
2.51207
2.53711
2.52654
1.93848
1.46607
1.47246
1.70878
0.930493
1.05015
1.04694
1.07411
1.0693
0.949869
-1.12171
-1.12162
-1.17252
-2.83701
-2.82429
-2.182
-3.59188
-3.15336
-3.15999
-3.13164
-3.14391
-3.58439
2.97442
2.97276
3.43702
1.92128
2.5072
2.50971
2.50825
2.50667
1.92008
1.44764
1.44668
1.68387
0.908035
1.02953
1.03078
1.02906
1.02836
0.906967
-2.82622
-2.83528
-2.19487
-3.59774
-3.1611
-3.15546
-3.1635
-3.16386
-3.60018
2.99263
2.98682
3.44691
1.94726
2.52606
2.53342
2.51387
2.51942
1.94265
1.47925
1.47381
1.70636
0.947743
1.29808
1.30643
1.05255
1.05535
0.937591
-1.137
-1.07391
-1.07238
-2.77498
-2.79623
-2.13823
-3.56796
-3.12521
-3.11209
-3.14729
-3.13713
-3.57786
-1.0119
-0.873318
-0.863435
-1.02642
-1.02285
-1.0783
-2.60321
-2.61839
-2.06054
-3.52057
-3.06971
-3.05552
-3.09819
-3.0839
-3.53302
-0.908788
-0.793536
-0.787868
-0.83263
-0.825876
-0.939565
1.20081
1.09547
1.65567
0.193969
0.871365
0.862899
0.506514
0.501672
0.151441
-0.746727
-0.738976
-0.0359659
-1.57029
-0.976297
-1.09713
-1.02369
-0.984122
-1.7006
0.96401
1.08451
1.07907
1.36241
1.34059
0.983564
1.75206
1.52025
1.53358
0.880337
0.723378
0.739494
0.984536
0.875496
0.892497
0.780723
0.793331
0.912383
-1.16179
-1.11216
-1.11857
-1.03162
-1.04017
-1.09196
-1.65218
-1.67144
-1.88937
-1.17801
-1.28347
-1.26973
-1.3438
-1.33597
-1.23184
0.909457
1.03106
1.02989
1.04387
1.04072
0.919805
1.69314
1.45597
1.4606
0.831995
0.771832
0.775424
0.753585
0.753935
0.817308
0.777759
0.779442
0.838761
-1.70666
-1.71671
-1.97625
-1.27497
-1.32096
-1.31777
-1.23109
-1.35947
-1.35232
-1.31559
-1.31131
-1.26393
-1.9542
-1.68907
-1.70304
0.928594
1.04664
1.04952
1.03259
1.03456
0.91542
1.68797
1.45225
1.44957
0.820992
0.759639
0.756301
0.784146
0.781812
0.842187
0.815531
0.753085
0.753446
0.753717
0.752291
0.816707
-1.71989
-1.71096
-1.97528
-1.29835
-1.30187
-1.25224
-1.98622
-1.72673
-1.72252
0.849626
0.704498
0.697758
0.756931
0.753524
0.870097
0.848126
0.78822
0.786527
0.695898
0.690537
0.838415
-1.0881
-1.03171
-1.02935
-1.07481
-1.07691
-1.13091
-1.64983
-1.63297
-1.90935
-1.17977
-1.3173
-1.32306
-1.27957
-1.2858
-1.17533
-1.23962
-1.28942
-1.2938
-1.32879
-1.33528
-1.19991
-1.93848
-1.67127
-1.65542
0.921938
0.811085
0.807463
0.828041
0.825274
0.936512
0.883219
0.76709
0.76152
0.803502
0.798781
0.909915
-0.95918
-0.846118
-0.839364
-0.860093
-0.850585
-0.992285
-1.15598
-1.26685
-1.27327
-1.45227
-1.47004
-1.13674
-1.85704
-1.63376
-1.6225
0.974176
0.649445
0.636922
0.616735
0.645372
0.971113
0.945029
0.833806
0.830805
-0.878238
-0.522442
-0.494553
1.5479
1.56263
1.78813
1.05529
1.39379
1.36984
1.37172
1.35536
1.06831
-0.320847
-0.35238
-0.421451
1.98824
2.55721
2.56461
2.54128
2.54931
1.98316
1.53031
1.52367
1.75068
1.01203
1.29697
1.30459
1.28091
1.28894
1.00704
-0.49595
-0.435919
-0.433035
-0.459419
-0.458242
-0.51632
-2.54408
-2.55764
-1.98806
0.603082
0.553248
0.576412
0.430337
0.44196
0.51252
-1.07683
-1.42004
-1.38458
-1.47161
-1.43313
-1.09667
-1.83562
-1.60767
-1.63033
0.976894
1.3229
1.27444
1.31
1.31921
0.973163
1.72153
1.49085
1.48495
0.513043
0.456781
0.455838
0.461272
0.458541
0.517284
-0.52791
-0.470534
-0.463827
-1.61132
-1.60023
-1.82559
-1.09139
-1.42854
-1.44641
-1.35148
-1.42289
-1.08499
0.52368
0.467009
0.464272
0.478901
0.476702
0.533188
-1.04109
-1.32926
-1.3409
-1.30814
-1.31829
-1.03522
-1.77599
-1.54728
-1.5377
0.572255
0.611003
0.285612
1.0259
0.713501
0.6779
0.711218
0.722664
1.02618
-0.861486
-0.729478
-0.749165
-0.428247
-0.417484
-0.824267
0.152727
-0.276866
-0.29967
-0.842141
-0.878837
-1.00567
-0.530535
-0.671582
-0.642492
-0.662564
-0.645834
-0.591795
-0.941251
-0.823684
-0.847961
-0.885422
-0.875722
-1.01841
-1.0609
-1.00552
-1.0024
-0.470647
-0.41144
-0.407982
-0.430902
-0.427679
-0.486825
-0.567598
-0.711774
-0.718635
-0.697788
-0.704763
-0.563566
-0.933098
-0.819119
-0.812394
0.707724
0.718998
0.871233
0.848434
0.69001
0.703454
0.498105
0.564076
0.557669
0.617019
0.60622
0.540932
0.925703
0.808261
0.822887
-1.08103
-1.08576
-1.13838
-1.12181
-1.0702
-1.07583
0.756115
0.756913
0.82192
0.81918
0.755389
0.755783
0.786624
0.7882
0.850551
0.845045
0.784411
0.785544
-1.32407
-1.32117
-1.26009
-1.61003
-1.50543
-1.50845
-1.49887
-1.50141
-1.60669
-1.62174
-1.51593
-1.51781
-1.51112
-1.51367
-1.61914
-1.26925
-1.33061
-1.32718
-1.29612
-1.29303
-1.24097
-1.57343
-1.46996
-1.47576
-1.45661
-1.46359
-1.56711
-1.59461
-1.49053
-1.49498
-1.48092
-1.48581
-1.58986
-1.24452
-1.29868
-1.29649
0.772678
0.771604
0.830477
0.834015
0.774688
0.773795
0.751535
0.751898
0.815024
0.814278
0.751255
0.751446
-1.31677
-1.32071
-1.25515
-1.6146
-1.50358
-1.49928
-1.51137
-1.50768
-1.61837
-1.59662
-1.48851
-1.48726
-1.49512
-1.49166
-1.60163
-1.24276
-1.30883
-1.31273
-1.62865
-1.52089
-1.52092
-1.51931
-1.52038
-1.62771
-1.62646
-1.51715
-1.5146
-1.5203
-1.51912
-1.6281
0.741303
0.706768
0.853526
0.496655
0.55262
0.55442
0.537634
0.538461
0.47739
0.865406
0.749014
0.744532
0.834485
0.6882
0.679305
-1.05402
-1.05104
-1.10571
-1.11248
-1.05781
-1.056
-1.27006
-1.27072
-1.2178
-1.57474
-1.46727
-1.46149
-1.4808
-1.47374
-1.58015
-1.55255
-1.44459
-1.43873
-1.45599
-1.45039
-1.55834
-1.21306
-1.26704
-1.26831
0.502439
0.446359
0.447399
0.454368
0.451816
0.509311
0.77986
0.773372
0.888488
0.518012
0.577126
0.581966
0.555686
0.557012
0.496861
0.547611
0.687619
0.692769
0.672977
0.680678
0.543062
0.904857
0.792972
0.786475
0.477635
0.420643
0.417019
0.447429
0.44607
0.499264
-0.859385
-0.852841
-0.965649
-0.600636
-0.657929
-0.660835
-0.638471
-0.642234
-0.584871
-0.662714
-0.665102
-0.60337
-0.985716
-0.872503
-0.866093
0.531252
0.391026
0.384669
0.40589
0.394527
0.536356
0.540449
0.483473
0.481225
-0.421913
-0.276282
-0.260367
-0.404839
-0.401881
-0.46058
2.1338
2.58234
2.5832
2.57139
2.57744
2.01757
1.12198
1.34414
1.3489
1.33415
1.33912
1.11623
-0.263017
-0.258696
-0.0195682
-0.749905
-0.498785
-0.498382
-0.486372
-0.513981
-0.768851
1.0427
1.3237
1.3291
1.31158
1.31791
1.03979
1.7676
1.54239
1.53656
0.227537
0.237567
0.203518
0.519871
0.41033
0.387858
0.402299
0.40616
0.51401
-0.374264
-0.241983
-0.221073
-0.250249
-0.25494
-0.383533
0.120381
-0.0166252
-0.0455115
0.424239
0.488492
0.334753
0.635083
0.540796
0.52485
0.517276
0.536299
0.635326
-0.354982
-0.273435
-0.294396
-0.127829
-0.0735727
-0.283261
0.265615
0.012708
0.0258816
1.0569
1.05338
0.933553
1.29195
1.17302
1.17671
1.16659
1.16988
1.28966
-1.17492
-1.12112
-1.1222
1.02813
1.0286
0.907114
1.2679
1.14862
1.14829
1.15057
1.14959
1.26954
1.26791
1.14843
1.14926
1.14793
1.14821
1.26853
0.906601
1.02803
1.02788
-1.08525
-1.07884
-1.14165
-0.805774
-0.799446
-0.914432
-0.568341
-0.684495
-0.691054
-0.67226
-0.678237
-0.562293
0.883641
0.662718
0.613845
0.652611
0.657593
0.879746
0.212743
0.433066
0.427889
0.839445
0.857388
0.969904
0.60622
0.746468
0.724147
0.789023
0.769066
0.622892
-1.0978
-1.10468
-1.15649
-1.30707
-1.29574
-1.19103
-1.5057
-1.40037
-1.41157
-1.37608
-1.38878
-1.49559
-1.54468
-1.44053
-1.44881
-1.42184
-1.43163
-1.53615
-1.22268
-1.32696
-1.3174
1.03396
1.03234
0.910676
1.27204
1.15258
1.15441
1.15
1.15135
1.2717
1.28009
1.16086
1.16382
1.15614
1.15852
1.27874
0.916295
1.03803
1.03574
0.763109
0.76733
0.829692
0.641302
0.704329
0.69821
0.716648
0.71181
0.653848
0.626495
0.690472
0.690361
0.690765
0.690546
0.626273
0.817099
0.754123
0.754569
0.663479
0.720652
0.719387
0.721601
0.721218
0.663257
0.839545
0.780502
0.781604
-1.31998
-1.32157
-1.27346
-1.42338
-1.37595
-1.37505
-1.44474
-1.38963
-1.39151
-1.38612
-1.38808
-1.44419
1.27213
1.15371
1.15218
1.15756
1.15571
1.27456
0.918207
1.03667