/*--------------------------------*- C++ -*----------------------------------*\
| =========                 |                                                 |
| \\      /  F ield         | OpenFOAM: The Open Source CFD Toolbox           |
|  \\    /   O peration     | Version:  5.x                                   |
|   \\  /    A nd           | Web:      www.OpenFOAM.org                      |
|    \\/     M anipulation  |                                                 |
\*---------------------------------------------------------------------------*/
FoamFile
{
    version     2.0;
    format      ascii;
    class       volScalarField;
    location    "500";
    object      p_rgh;
}
// * * * * * * * * * * * * * * * * * * * * * * * * * * * * * * * * * * * * * //

dimensions      [0 2 -2 0 0 0 0];

internalField   nonuniform List<scalar> 
6584
(
0.00536478
0.00576773
0.00624918
0.00696578
0.00787519
0.00903627
0.0104244
0.0120413
0.0136899
0.0152258
0.0161308
0.0158596
0.0140426
0.0108209
0.00679718
0.00267032
-0.00102145
-0.00413714
-0.00660821
-0.0085114
-0.00992316
-0.0109678
-0.0116458
-0.0121836
0.00522318
0.005665
0.00611888
0.00683107
0.00772261
0.00888914
0.0103026
0.0120163
0.0138097
0.0155716
0.0167093
0.0165876
0.0147045
0.0112181
0.00689683
0.00245769
-0.00136637
-0.0045252
-0.00696761
-0.0088208
-0.0101722
-0.0111803
-0.0118042
-0.0123776
0.0049191
0.00537098
0.00577347
0.00645287
0.00729855
0.00846466
0.00994406
0.0119319
0.0140686
0.0160137
0.0184024
0.0192846
0.0177521
0.0137473
0.00844963
0.00172366
-0.00241965
-0.0056476
-0.00798935
-0.00967848
-0.010862
-0.0117432
-0.01225
-0.0127934
0.00451903
0.00494134
0.00526773
0.00587153
0.00662403
0.00773129
0.00925773
0.0115363
0.014539
0.017401
0.0214444
0.0239626
0.0225534
0.0166819
0.00915141
0.0024468
-0.00420551
-0.00749701
-0.00959744
-0.0109771
-0.0118852
-0.0125472
-0.0128841
-0.0133226
0.00405321
0.00440609
0.00462643
0.0050929
0.00567532
0.00659137
0.00801441
0.0103715
0.013253
0.0185307
0.025182
0.0312007
0.0303767
0.0204717
0.00863768
-0.000135958
-0.00561632
-0.0103339
-0.0119132
-0.0126973
-0.0131917
-0.0135254
-0.0136412
-0.0139056
0.00354821
0.00379152
0.00387324
0.00412588
0.00442976
0.00489821
0.0059111
0.00745544
0.011342
0.0173895
0.0272491
0.0434523
0.0484689
0.0286385
0.00521657
-0.00579646
-0.0107794
-0.0140643
-0.014797
-0.0147516
-0.0147016
-0.0146051
-0.0144567
-0.0144845
0.00304338
0.00314375
0.00306433
0.00303963
0.0029801
0.00282236
0.00312944
0.00406868
0.00604638
0.0110447
0.0242938
0.0554482
0.0945976
0.0291888
-0.00349169
-0.0165526
-0.0182056
-0.0188125
-0.0181089
-0.0169932
-0.0162793
-0.0156765
-0.0152408
-0.0149864
0.0025839
0.00252404
0.00228214
0.00195244
0.00147974
0.000589018
-0.000194621
-0.000382863
-0.00176782
-0.00242551
0.00236304
0.0244074
-0.0167034
-0.0332883
-0.0329334
-0.0277911
-0.0239771
-0.0214472
-0.0191482
-0.0177237
-0.0165982
-0.0158865
-0.015334
0.00221237
0.00199854
0.00162188
0.00101858
0.000167724
-0.00138498
-0.00330357
-0.00502017
-0.010261
-0.0192354
-0.0322971
-0.067198
-0.130242
-0.073586
-0.0502725
-0.0370939
-0.0284044
-0.0241199
-0.0208172
-0.018783
-0.0172141
-0.0162849
-0.0154583
0.00196078
0.00162546
0.00117219
0.000394601
-0.000685267
-0.00259171
-0.00522842
-0.00812138
-0.0156022
-0.0293424
-0.0522526
-0.105188
-0.18092
-0.0970552
-0.0598935
-0.0424983
-0.0307372
-0.0254017
-0.0216015
-0.0192226
-0.0173883
-0.0163455
-0.0153109
0.00184254
0.00143833
0.000983986
0.000172992
-0.000918267
-0.00274876
-0.00540408
-0.00860544
-0.0156098
-0.0280011
-0.0485415
-0.0898625
-0.158389
-0.09178
-0.0574936
-0.0418905
-0.0301945
-0.0249115
-0.0212866
-0.018917
-0.0170501
-0.0160222
-0.0148752
0.00184851
0.00143495
0.00105041
0.000342014
-0.000557309
-0.00194519
-0.00398103
-0.00659833
-0.0109956
-0.0177378
-0.0281276
-0.0444932
-0.0932888
-0.0654771
-0.045553
-0.0359599
-0.0270358
-0.022808
-0.0199296
-0.0179021
-0.0162213
-0.0153278
-0.0141731
0.00195012
0.00157921
0.00131151
0.000796336
0.000211855
-0.000559223
-0.00165598
-0.00317832
-0.00441678
-0.00484097
-0.0041846
0.00377725
-0.0280612
-0.0340984
-0.0302208
-0.0273493
-0.0223345
-0.0196876
-0.0178263
-0.0163518
-0.0150121
-0.0143291
-0.0132583
0.00210822
0.00181484
0.00167924
0.00138689
0.00113671
0.00095826
0.000724426
0.00143741
0.00130644
0.00530155
0.0116397
0.0325748
0.0923704
0.0124656
-0.0104706
-0.0169569
-0.0188435
-0.0173295
-0.0162468
-0.0153714
-0.0145085
-0.0135644
-0.0131261
-0.0122017
0.00228326
0.00208265
0.0020669
0.00197614
0.00200348
0.00225055
0.00265427
0.00382806
0.00503305
0.00981148
0.0168564
0.0307715
0.0405417
0.0179053
-0.000236947
-0.00828578
-0.0115643
-0.0128454
-0.0130102
-0.0129106
-0.0125958
-0.0120236
-0.0118229
-0.011077
0.00244262
0.00233383
0.0024099
0.00247356
0.00269064
0.0031847
0.00390976
0.00542309
0.00684653
0.0106569
0.0162858
0.0213389
0.0205381
0.0126824
0.00341296
-0.00355193
-0.00784374
-0.00946901
-0.0102986
-0.0106799
-0.0107779
-0.0105164
-0.0105118
-0.00995203
0.00256412
0.00253605
0.00267116
0.00283784
0.00315552
0.00376227
0.00454619
0.00611299
0.00788501
0.00972763
0.0126591
0.0144296
0.016373
0.0103039
0.00385332
-0.00120454
-0.0049768
-0.00695301
-0.00810293
-0.00876968
-0.00914208
-0.00910997
-0.00925374
-0.00886705
0.00263577
0.00267284
0.00283662
0.00306198
0.0034062
0.00402522
0.00471355
0.0060179
0.00737293
0.00943544
0.00994797
0.0123914
0.00941059
0.00733233
0.0026438
-0.000764309
-0.00306634
-0.0051776
-0.00637937
-0.00719631
-0.00772281
-0.00785008
-0.00809135
-0.00785421
0.00265395
0.00274027
0.00290885
0.0031609
0.00348237
0.00406099
0.00459
0.00565353
0.00629119
0.00810764
0.00636277
0.00898061
0.00884786
0.00298944
0.00251497
-0.000594746
-0.00219436
-0.00402839
-0.00509219
-0.00594413
-0.00652571
-0.00675429
-0.00704794
-0.00693399
0.00262088
0.0027428
0.00290011
0.00316022
0.00343327
0.00396071
0.00431915
0.00524702
0.00540635
0.00707936
0.00591196
0.0071226
0.00662177
0.00265922
0.00229769
-0.000476425
-0.00158697
-0.00321994
-0.00411973
-0.00495347
-0.00552824
-0.00581707
-0.00612923
-0.00611313
0.00254217
0.00268911
0.00282561
0.00308448
0.00329746
0.00377821
0.00397989
0.00480841
0.00469414
0.00605131
0.00507504
0.00518893
0.00469555
0.00211132
0.00188628
-0.000425738
-0.00116644
-0.00263544
-0.00337129
-0.00416645
-0.0046999
-0.00502289
-0.00533003
-0.00538988
0.00242496
0.00258923
0.0027
0.00295383
0.00310365
0.00354364
0.00361232
0.00434407
0.00406278
0.00511963
0.00422737
0.00394672
0.00355027
0.0015792
0.0014641
-0.000435361
-0.000910328
-0.00221743
-0.00279489
-0.00354075
-0.00401327
-0.00435346
-0.00464021
-0.00475788
0.00227689
0.00245328
0.00253678
0.00278484
0.00287457
0.00328023
0.00324499
0.00389114
0.00352044
0.00436145
0.00357612
0.00308561
0.00275363
0.00117428
0.00111714
-0.000460134
-0.000752693
-0.00191037
-0.00234761
-0.00304066
-0.00344343
-0.00379
-0.00404709
-0.00420805
0.00210548
0.00229062
0.00234763
0.00259083
0.00262728
0.00300498
0.00289352
0.00346753
0.00305779
0.00373658
0.00304659
0.00242007
0.00214043
0.000849378
0.000830796
-0.000486625
-0.000651554
-0.00167598
-0.00199506
-0.00263619
-0.00296816
-0.00331449
-0.00353726
-0.00373006
0.0019176
0.00210943
0.00214213
0.00238187
0.00237335
0.00272846
0.00256394
0.00307704
0.00265834
0.00321203
0.00260711
0.0018996
0.00166709
0.000585275
0.000594126
-0.000510796
-0.000584827
-0.00149095
-0.00171219
-0.00230408
-0.00256843
-0.0029104
-0.00309735
-0.00331306
0.0017194
0.0019166
0.00192786
0.00216547
0.00212049
0.00245735
0.00225821
0.00272028
0.00231146
0.0027692
0.00223618
0.00148629
0.00129932
0.000374764
0.00040246
-0.000529193
-0.000538181
-0.00133982
-0.00148089
-0.0020264
-0.00222843
-0.00256334
-0.00271508
-0.00294671
0.00151618
0.00171777
0.00171066
0.00194712
0.0018736
0.00219553
0.00197615
0.00239584
0.00200864
0.00239614
0.0019228
0.0011598
0.00101447
0.000207049
0.000248928
-0.00054072
-0.000502359
-0.00121137
-0.00128703
-0.00178951
-0.00193529
-0.00226138
-0.00237957
-0.0026212
0.00131246
0.00151752
0.00149496
0.00173068
0.00163555
0.00194495
0.00171625
0.00210121
0.00174146
0.00207865
0.00165905
0.000898406
0.000783467
6.76043e-05
0.000127528
-0.000542908
-0.000468831
-0.00109597
-0.00111854
-0.0015811
-0.0016773
-0.00199304
-0.00208031
-0.00232721
0.00111211
0.00131938
0.00128398
0.00151864
0.00140784
0.00170611
0.00147622
0.00183323
0.00150304
0.00180355
0.0014322
0.000681101
0.000595472
-4.22995e-05
3.40278e-05
-0.000536182
-0.000434289
-0.000988685
-0.000967727
-0.00139287
-0.00144564
-0.00174959
-0.00180861
-0.00205674
0.000918426
0.00112618
0.00108016
0.00131263
0.00119086
0.00147847
0.00125293
0.00158702
0.00128806
0.0015622
0.0012348
0.000499032
0.000441887
-0.000127316
-3.57292e-05
-0.000520009
-0.000395999
-0.000885185
-0.000828483
-0.00121792
-0.00123279
-0.00152322
-0.00155658
-0.00180207
0.000734301
0.000939918
0.00088507
0.00111321
0.000984337
0.00126126
0.00104302
0.0013567
0.00108998
0.00134587
0.00105968
0.000345249
0.000315982
-0.000190748
-8.45847e-05
-0.000493377
-0.000351829
-0.000781614
-0.000695733
-0.00105055
-0.00103266
-0.0013073
-0.00131757
-0.00155624
0.000562555
0.00076219
0.000700182
0.000920308
0.000788024
0.0010524
0.000844331
0.00113838
0.000903808
0.00114685
0.000900394
0.000214654
0.000212434
-0.000234455
-0.000114794
-0.000455439
-0.000300614
-0.000675099
-0.00056629
-0.000886277
-0.000840747
-0.00109652
-0.00108629
-0.00131329
0.000405442
0.000593054
0.000525996
0.000732592
0.000600303
0.000846572
0.000652788
0.000924692
0.000722725
0.000955314
0.000749119
0.000104429
0.000128414
-0.000256667
-0.000126513
-0.000403374
-0.000241354
-0.000561973
-0.00043746
-0.000720155
-0.000652906
-0.00088473
-0.000857021
-0.00106575
0.000267398
0.00043518
0.000366082
0.00055182
0.000424235
0.000645039
0.000470369
0.000714284
0.00054599
0.000766522
0.000599295
1.33871e-05
5.96477e-05
-0.000257297
-0.000122607
-0.000337621
-0.000176789
-0.00044254
-0.000311545
-0.000552628
-0.00047131
-0.000672692
-0.000631774
-0.000814317
0.000144709
0.000273877
0.000210999
0.000356141
0.000247725
0.000420802
0.000280246
0.000472586
0.000346973
0.000536669
0.00042101
-4.68471e-05
1.38141e-05
-0.000213684
-9.32262e-05
-0.000239871
-0.000102045
-0.000297838
-0.00018056
-0.000361672
-0.000281917
-0.000434415
-0.000389194
-0.00052676
6.67005e-05
0.000158593
0.000107703
0.000213307
0.000129971
0.000256712
0.000153508
0.000296362
0.000209801
0.000363842
0.000250997
-8.75658e-05
-4.46368e-05
-0.000172211
-7.46594e-05
-0.000161303
-5.23719e-05
-0.000185162
-9.01878e-05
-0.000216527
-0.000148236
-0.00025525
-0.000214028
-0.000309301
-0.0584975
-0.128833
-0.0125702
-0.103534
-0.19323
-0.141827
-0.0941045
-0.174126
-0.195362
-0.0509837
-0.106926
-0.167344
-0.0013462
-0.0335908
-0.0973997
0.0310386
0.101879
0.0965471
0.0157384
-0.0255018
0.0348225
0.0956425
0.00309936
0.040276
-0.0241879
-0.0513133
0.0198373
-0.104476
0.0353131
-0.118742
-0.0722077
-0.0336426
-0.0495228
-0.0937858
-0.0592502
-0.0879963
-0.127601
-0.0999427
-0.238913
-0.202036
-0.17845
-0.107439
-0.0836583
-0.0515279
-0.0868084
-0.0953202
-0.105133
-0.14253
-0.145972
-0.270526
-0.275967
-0.164872
-0.107616
-0.110866
-0.0341176
-0.0482573
-0.0829953
-0.074945
-0.0930561
-0.117696
-0.173128
-0.213919
-0.101947
-0.0792463
-0.102408
-0.0706036
-0.115788
-0.035454
-0.0418786
-0.0699819
0.020275
-0.0167996
0.0336923
0.0315652
0.0937584
0.0337061
0.0253825
0.0179032
-0.0949665
-0.0433873
-0.0263471
-0.048477
-0.102349
0.0638174
-0.0382563
-0.198296
-0.116297
-0.0833374
-0.111014
-0.194539
-0.145067
-0.130696
-0.0931007
-0.134978
-0.151137
-0.107194
-0.134003
-0.273347
-0.240922
-0.178829
-0.242502
-0.258583
-0.197547
-0.240593
-0.171595
-0.120866
-0.140278
-0.103343
-0.145921
-0.123436
-0.150958
-0.147744
-0.216293
-0.268258
-0.189928
-0.252269
-0.220029
-0.260076
-0.2544
-0.193255
-0.0923088
-0.0621824
-0.12136
-0.0964222
-0.119207
-0.169062
-0.134196
-0.165197
-0.11837
-0.21739
-0.168374
-0.14311
-0.0154189
0.00790439
-0.0575406
-0.0196353
-0.0226043
-0.0645466
-0.112266
-0.0702623
-0.0689146
0.0375912
0.057224
0.0106732
0.0348735
0.0465604
0.0238466
-0.0139429
-0.0328532
0.0570045
-0.0587177
0.102267
-0.00977298
-0.00303341
-0.0423731
-0.0246842
-0.0208775
-0.0561329
0.012098
-0.0123289
0.0103791
-0.0117069
-0.0331225
0.118195
-0.00623001
0.0272098
-0.0972322
-0.0658159
-0.0605878
-0.089144
-0.0692925
-0.088689
-0.074743
0.000850937
0.01176
-0.0725611
-0.0446955
-0.0160768
-0.0398057
-0.0598029
-0.0643104
-0.024112
0.0131607
0.0275384
-0.0187124
0.0165138
-0.00359657
0.158338
0.107494
0.0773604
0.0524522
0.0963222
0.157736
-0.0771375
-0.0485223
-0.07316
0.0913532
-0.0553299
-0.0282137
-0.229385
-0.226585
-0.277912
-0.277854
-0.194383
-0.197083
-0.0888037
-0.0739279
-0.0926046
0.03811
0.0152099
-0.0130091
0.0103991
0.000245122
-0.0830571
-0.0765888
-0.109296
-0.0795387
-0.111679
-0.0840129
-0.0737795
-0.0126277
0.0023976
-0.0200648
-0.0773744
-0.166495
-0.161988
-0.145027
-0.145307
-0.120255
-0.121508
-0.265518
-0.265704
-0.249644
-0.218157
-0.207855
-0.228347
-0.220927
-0.250266
-0.219208
-0.184638
-0.165701
-0.203964
-0.189972
-0.222606
-0.138014
-0.135832
-0.152941
-0.152078
-0.25186
-0.253312
-0.236605
-0.216455
-0.226321
-0.197765
-0.212315
-0.234832
-0.262763
-0.233054
-0.230099
-0.228862
-0.23283
-0.262668
-0.0905503
-0.0805681
-0.09121
-0.105482
-0.073966
-0.088914
-0.076169
-0.111817
-0.107423
-0.107518
-0.141282
-0.14464
-0.195762
-0.176985
-0.192197
-0.155472
-0.171668
-0.19133
-0.00950083
0.000729977
-0.0411878
-0.0446293
-0.0712017
-0.0118426
-0.0389538
-0.0354451
-0.0379029
-0.0109301
-0.0403696
-0.0411685
-0.0164908
-0.0704274
-0.04369
-0.0465453
-0.0429015
0.0481431
0.0654685
0.0788627
0.0296699
0.0432993
0.0965251
0.0589407
0.040451
0.198331
0.00903568
0.0232378
0.00169948
0.0176324
0.0294558
0.0113463
0.0640972
0.0454702
0.0485893
0.171759
0.00715014
-0.0167343
-0.0184155
0.00617628
0.00751004
0.0825613
0.0650437
0.0787932
0.00908614
0.0180989
0.0695618
0.063062
0.0828714
0.239419
0.174031
0.132195
0.122867
0.169907
0.240518
-0.117404
-0.0977343
-0.108686
-0.234651
-0.223367
-0.214363
-0.146457
-0.125277
-0.123842
-0.124466
-0.126518
-0.146897
-0.274889
-0.276504
-0.183294
-0.205184
0.0485442
0.0409616
0.00558928
0.0134545
0.0329664
0.0584374
0.0517802
0.0650444
0.0177356
-0.000524632
0.110671
-0.185821
-0.210644
-0.221878
-0.150279
-0.123977
-0.0909406
-0.158472
-0.1328
-0.161021
-0.140659
-0.119471
-0.124651
-0.110511
-0.118664
-0.138709
-0.140566
-0.154012
-0.145355
-0.163763
-0.1622
-0.1486
-0.143488
-0.139386
-0.128573
-0.27118
-0.250831
-0.247067
-0.229532
-0.228982
-0.248919
-0.244247
-0.255628
-0.121604
-0.117346
-0.133257
-0.143442
-0.152014
-0.155947
-0.152734
-0.165851
-0.164179
-0.159822
-0.164374
-0.150127
-0.231291
-0.262865
-0.24616
-0.239687
-0.24408
-0.205752
-0.215999
-0.228457
-0.261745
-0.252215
-0.248798
-0.246591
-0.249333
-0.259215
-0.128915
-0.130951
-0.122736
-0.181489
-0.16904
-0.157542
-0.144635
-0.133534
-0.149971
-0.111907
-0.12793
-0.137865
-0.00453231
-0.00225636
-0.0102959
0.0103242
0.00244846
-0.00145813
0.0490706
0.058495
0.0210922
0.0251612
0.0135458
0.0381138
0.046178
0.0583047
0.0517572
0.00394107
0.145347
0.0291829
0.0151913
0.00145488
0.0029586
0.0176714
-0.000184817
-0.00208375
0.0590165
0.0593805
0.161839
0.0326512
0.0403708
-0.0853631
-0.0811083
0.0037662
0.00560807
0.00500882
0.00484522
0.00217411
0.0109616
0.00565625
0.00636625
-0.0644545
-0.0596949
-0.0259034
-0.0291841
0.0180345
0.018104
0.0134386
0.0212759
0.0289705
-0.1133
-0.0906629
-0.051539
-0.131137
-0.101669
-0.12353
-0.23346
-0.217861
-0.276179
-0.278227
-0.186121
-0.202742
-0.0886137
-0.0836138
-0.0936991
-0.0701416
-0.0801757
-0.0830838
-0.108156
-0.117588
-0.0968265
-0.104903
0.0283076
0.0365843
0.0452209
0.0192425
0.0323276
0.025476
0.0320037
0.0196547
-0.0983509
-0.0821367
-0.0942612
-0.0609478
-0.0775198
-0.0943957
-0.1106
-0.117261
-0.0979092
-0.108074
-0.0508204
-0.0351375
-0.0554106
-0.051715
-0.059567
-0.184505
-0.207751
-0.182533
-0.197408
-0.16284
-0.140247
-0.193913
-0.168937
-0.143283
-0.163771
-0.180401
-0.158131
-0.155023
-0.141181
-0.155456
-0.161282
-0.148893
-0.154997
-0.166551
-0.167917
-0.16214
-0.164415
-0.148488
-0.161026
-0.158832
-0.130668
-0.136233
-0.119395
-0.128258
-0.144
-0.147235
-0.137806
-0.142783
-0.127532
-0.137955
-0.132948
-0.270873
-0.262826
-0.237497
-0.230818
-0.248706
-0.254704
-0.243962
-0.238159
-0.14734
-0.153648
-0.141881
-0.156277
-0.150509
-0.169428
-0.157109
-0.142809
-0.130432
-0.148648
-0.143778
-0.166406
-0.165925
-0.152245
-0.170571
-0.171699
-0.16829
-0.170575
-0.169694
-0.167916
-0.171211
-0.169894
-0.151429
-0.16479
-0.166158
-0.24203
-0.259382
-0.231127
-0.236863
-0.243198
-0.229894
-0.219929
-0.228071
-0.253215
-0.251567
-0.262669
-0.260524
-0.251336
-0.251891
-0.0963112
-0.0970625
-0.0896975
-0.0858303
-0.100637
-0.0915654
-0.102932
-0.0759616
-0.0713319
-0.0682718
-0.0831192
-0.074086
-0.078829
-0.126348
-0.118905
-0.127344
-0.128915
-0.111955
-0.108819
-0.103593
-0.116002
-0.108397
-0.114035
-0.143736
-0.134218
-0.132355
-0.141847
-0.15071
-0.120941
-0.137903
-0.157222
-0.154078
-0.165752
-0.149463
-0.00399101
-0.00255194
-0.00410504
0.001873
-0.00236266
-0.00205938
0.00323972
-0.0189275
-0.00515325
-0.0145622
-0.057377
-0.0575592
-0.0669155
-0.0443578
-0.0545403
-0.0538942
-0.0570747
-0.0601351
0.0622082
0.0752952
0.0318662
0.0362233
0.0749814
0.0606894
-0.00356648
-0.021672
0.00174546
0.00238999
0.0211833
0.0371007
0.32009
0.249103
0.222547
0.22021
0.257422
0.324936
0.0316769
0.0766579
0.042397
-0.0807723
-0.0948709
-0.113589
-0.237071
-0.251089
-0.252852
-0.273316
-0.27601
-0.104428
-0.0964367
-0.107681
-0.228525
-0.225372
-0.21116
-0.11982
-0.109969
-0.105975
-0.0769599
-0.0586878
-0.0766204
-0.113725
-0.106123
-0.0968224
-0.133017
-0.15681
-0.137662
-0.11211
-0.123908
-0.115947
-0.271943
-0.255475
-0.25791
-0.24293
-0.261146
-0.259964
-0.25731
-0.225111
-0.220565
-0.234416
-0.130399
-0.114403
-0.107813
-0.129236
-0.138021
-0.12878
-0.21879
-0.23301
-0.230404
-0.266421
-0.250338
-0.255048
-0.256722
-0.260705
-0.263121
-0.262259
-0.258516
-0.260121
-0.256633
-0.119058
-0.126168
-0.127974
-0.209243
-0.200339
-0.204322
-0.0940341
-0.0900519
-0.106406
0.0496526
0.0528096
0.0410916
0.0293045
0.0242243
0.04386
0.0465139
0.0383133
0.0523291
0.0361801
-0.0474718
-0.0431257
-0.0870169
-0.0747211
-0.0765188
-0.0769944
-0.0704671
-0.0712057
-0.0729163
-0.0459724
-0.053381
-0.0495609
-0.0414964
-0.0383714
-0.0366003
0.0290071
0.0209592
0.020131
0.0866661
0.14452
0.109847
-0.0907573
-0.0907692
-0.0794194
-0.0639221
-0.147516
-0.138844
-0.0386583
0.00122104
0.00680872
-0.234436
-0.245625
-0.231896
-0.22374
-0.224007
-0.226964
-0.279657
-0.278291
-0.192478
-0.188785
-0.191693
-0.198847
-0.209527
-0.200685
-0.0936693
-0.0964529
-0.0699929
-0.0730427
-0.076932
-0.0990855
-0.102547
-0.10268
-0.106265
-0.0954352
-0.0873592
-0.104832
-0.101377
-0.104949
-0.0719993
-0.0777642
-0.0845644
-0.123344
-0.125677
-0.107804
-0.113291
-0.115461
-0.00479698
-0.0290872
-0.0424181
-0.0315342
-0.0343591
-0.0314154
-0.0702608
-0.16523
-0.156943
-0.131334
-0.126135
-0.113558
-0.128149
-0.129736
-0.266516
-0.26581
-0.204334
-0.198394
-0.21041
-0.23211
-0.215581
-0.210107
-0.131051
-0.14012
-0.145432
-0.249053
-0.254696
-0.265246
-0.265291
-0.262964
-0.262975
-0.265072
-0.26506
-0.0924268
-0.0934741
-0.0925083
-0.0903483
-0.10515
-0.102827
-0.104377
-0.1162
-0.123572
-0.115989
-0.125328
-0.123715
-0.134039
-0.131891
-0.109194
-0.109352
-0.10707
-0.122913
-0.122419
-0.188968
-0.194948
-0.206179
-0.180752
-0.175994
-0.182481
-0.056589
-0.0504077
-0.0438125
-0.0638339
-0.0574525
-0.060939
-0.0306088
-0.0324229
-0.0410749
-0.0197706
-0.0264373
-0.026993
-0.0646108
-0.0643762
-0.066919
-0.0496208
-0.0464102
-0.0693337
0.069601
0.0698078
0.0778671
0.0340295
0.039441
0.0353978
0.0315605
0.0455213
0.0373964
0.0392646
0.0910989
0.0732375
0.048505
0.0561119
0.0505382
0.134785
0.224635
0.0910883
0.00649201
0.00666212
0.0724268
0.0994784
0.105512
0.0128338
0.0137824
0.0117406
0.0192975
0.0158631
0.0150607
0.10357
0.0937953
0.0773303
0.154796
0.229569
0.194193
-0.249976
-0.250137
-0.235716
-0.22849
-0.218107
-0.210783
-0.232645
-0.22876
-0.27487
-0.27582
-0.189129
-0.191093
-0.180663
-0.185341
-0.208036
-0.221639
-0.21839
0.0449641
0.0475109
0.0509751
0.0406001
0.0448374
0.0422574
-0.213917
-0.200611
-0.197544
-0.207724
-0.204125
-0.21779
-0.271046
-0.244512
-0.258216
-0.263196
-0.256283
-0.258961
-0.257892
-0.249168
-0.237713
-0.221531
-0.265909
-0.251351
-0.253339
-0.248729
-0.264259
-0.263619
-0.261062
-0.258242
-0.261461
-0.262388
-0.174367
-0.165647
-0.172091
-0.159546
-0.162287
-0.170662
0.0555604
0.057923
0.0386013
0.040512
0.0405803
0.0399132
0.0377161
0.0614871
0.0591075
0.0567501
0.0598603
0.0604959
0.0536576
0.056035
0.054568
-0.00545958
-0.0202296
-0.020557
0.00643186
0.115781
0.0975305
0.135243
0.035313
0.0540502
0.0756426
0.00649656
0.00763263
0.00367453
0.0151623
0.0117017
0.0104216
-0.00740675
-0.00515026
-0.0117133
-5.30093e-05
-0.00320626
-0.00349187
0.0756855
0.0818738
0.053892
-0.00184903
-0.0171033
0.0248767
0.0166353
-0.0862478
-0.0784336
-0.0781791
-0.0803434
0.00428694
0.00494103
0.00188542
0.00268981
0.00308619
-0.0688223
-0.0698046
-0.0680658
-0.0530011
-0.0440819
-0.0634959
-0.0543566
-0.0635619
-0.0678509
-0.0244552
-0.021729
-0.0232377
-0.0226282
-0.0274985
-0.0156331
-0.01907
-0.033003
-0.0351452
-0.0312141
0.0240492
0.025581
0.0228074
0.0287463
0.0275522
0.0264699
-0.105641
-0.0931858
-0.100783
-0.136297
-0.129855
-0.116512
-0.246692
-0.232204
-0.247075
-0.249134
-0.235815
-0.235031
-0.239317
-0.237256
-0.278212
-0.279148
-0.198779
-0.203219
-0.193499
-0.196104
-0.188848
-0.185644
-0.182748
-0.215616
-0.212589
-0.200739
-0.212459
-0.0834489
-0.0903225
-0.0796413
-0.0761882
-0.0794043
-0.111456
-0.117943
-0.114057
-0.123206
-0.121208
-0.114658
-0.0997577
-0.0979786
-0.0947778
-0.109853
-0.102455
-0.10223
-0.108424
0.0227808
0.0210619
0.0175409
0.0272872
0.0233088
-0.0930483
-0.0943114
-0.0980657
-0.10169
-0.0911967
-0.0841655
-0.0895911
-0.11979
-0.121571
-0.122602
-0.120571
-0.115046
-0.113998
-0.117584
-0.053568
-0.0455254
-0.0429138
-0.0297958
-0.0680034
-0.0692147
-0.0612623
-0.189183
-0.185957
-0.180633
-0.195325
-0.191303
-0.197868
-0.209846
-0.200975
-0.156257
-0.166985
-0.175279
-0.146655
-0.157479
-0.14901
-0.188887
-0.180179
-0.186049
-0.178207
-0.157496
-0.1602
-0.149892
-0.155928
-0.154634
-0.161573
-0.160192
-0.167085
-0.167459
-0.163018
-0.163756
-0.133013
-0.134989
-0.132591
-0.138424
-0.136874
-0.134742
-0.121671
-0.126098
-0.124483
-0.133762
-0.127681
-0.124125
-0.131217
-0.135089
-0.145205
-0.148468
-0.147078
-0.151226
-0.149981
-0.14636
-0.139283
-0.141347
-0.140186
-0.145913
-0.144493
-0.141305
-0.267977
-0.26395
-0.154211
-0.155255
-0.15524
-0.152836
-0.154532
-0.152277
-0.167929
-0.155982
-0.157783
-0.159427
-0.140613
-0.145073
-0.1454
-0.143131
-0.144954
-0.135992
-0.146856
-0.149423
-0.151084
-0.146249
-0.147559
-0.145135
-0.170429
-0.170496
-0.168529
-0.170408
-0.168608
-0.167946
-0.170635
-0.169528
-0.245535
-0.256768
-0.263217
-0.265328
-0.264834
-0.26349
-0.264418
-0.261993
-0.0940654
-0.0910022
-0.0919557
-0.0946624
-0.103935
-0.0990772
-0.0941375
-0.128954
-0.127121
-0.123911
-0.12566
-0.127395
-0.129296
-0.132703
-0.135016
-0.129699
-0.131851
-0.130644
-0.130936
-0.130564
-0.112542
-0.111724
-0.110732
-0.12189
-0.114346
-0.140428
-0.142515
-0.145306
-0.136254
-0.139502
-0.137457
-0.145236
-0.147343
-0.126052
-0.132953
-0.126794
-0.133668
-0.161671
-0.153253
-0.156439
-0.147804
-0.150178
-0.157346
-0.00287881
-0.0045378
-0.00349642
-0.00640561
-0.00541264
-0.00345491
0.000861926
0.00272128
0.00244718
-0.0017481
0.000757025
-0.00183488
0.00210097
-0.0185074
-0.0147271
-0.0339064
-0.0248011
-0.00541862
-0.00800459
-0.00752829
-0.012095
-0.00947095
-0.0061797
-0.0587137
-0.0618655
-0.0608294
-0.0536138
-0.063868
0.060578
0.0639871
0.0343866
0.0327067
0.030004
0.0359504
0.0347367
0.0354507
0.0357793
0.0373283
0.0671964
0.0628219
0.0270127
0.0363627
0.0284766
0.0399085
0.0442231
0.0320838
0.0430206
0.0324304
0.0263184
0.0270371
0.0144873
0.0144497
0.0148754
0.0217428
0.0222751
0.0264596
0.0461708
0.038998
0.0561058
0.0863943
0.0497853
0.0854021
0.0437804
0.0350653
0.0310092
0.00615987
0.0119483
0.000664056
-0.00636549
-0.00122957
0.00523808
0.00710624
0.0195776
0.00998013
0.0286683
0.0466391
0.0563943
0.0890828
0.0760098
0.136009
0.0930427
0.0758832
0.0274499
0.0114554
0.0178593
-0.0238925
-0.022811
-0.0132706
-0.0110589
-0.0206175
0.000883602
-0.00629164
-0.00676522
0.00434108
0.0124827
0.0158524
0.0302976
-0.0618732
-0.0555323
-0.0281268
-0.0643023
-0.0472017
-0.0345619
-0.0256174
-0.041782
-0.0271816
-0.0394257
-0.0482021
-0.0396097
-0.0750625
-0.0842567
-0.0758023
-0.157566
-0.123319
-0.100787
-0.094034
-0.067653
-0.0588227
-0.0300869
-0.0441792
-0.0441143
-0.0535135
-0.064092
-0.063007
-0.106093
-0.117023
-0.116229
-0.181222
-0.143581
-0.140939
-0.0958284
-0.0728943
-0.072497
-0.0236224
-0.0302447
-0.041794
-0.0445483
-0.0516261
-0.0568134
-0.0852851
-0.0921598
-0.0973618
-0.135736
-0.114419
-0.128337
-0.0732507
-0.0617936
-0.0690486
-0.0112118
-0.00998981
-0.0252956
-0.0378638
-0.0395205
-0.0471421
-0.0674161
-0.0631513
-0.0829893
-0.0416376
-0.041833
-0.0523038
0.000723384
0.00629459
-0.00525137
-0.00784776
-0.0182842
-0.0294145
-0.0151095
-0.0222388
-0.0315181
0.00812757
0.011726
0.00865674
0.0168353
0.028493
0.0271776
0.0350231
0.0468777
0.0511253
0.0639325
0.0693515
0.0679344
0.0185319
0.00277381
-0.00668724
-0.00392002
-0.00864342
-0.0146291
0.0105937
0.0139888
0.0134396
0.0173523
0.0219189
0.0268802
0.023448
0.0240352
0.0403254
0.0244539
0.0174988
0.023243
0.0150514
0.00743507
0.00394455
0.00248078
-0.00219245
-0.0047988
0.0143569
0.0173252
0.0192588
0.0150705
0.0193107
0.019353
0.0201231
0.011713
0.0156083
0.0115972
0.00687881
0.00772097
-0.0662174
-0.0553129
-0.04871
-0.113881
-0.127695
-0.15091
-0.00541877
-0.0251104
-0.029801
-0.114487
-0.11176
-0.100876
-0.189697
-0.210543
-0.216521
-0.15758
-0.175938
-0.153146
-0.1022
-0.106548
-0.0977582
-0.180205
-0.200068
-0.189362
-0.217418
-0.218774
-0.19607
-0.0543874
-0.0610759
-0.0572803
-0.115756
-0.125011
-0.110013
-0.185047
-0.171257
-0.159842
-0.0420933
-0.0407688
-0.031731
-0.100874
-0.0902669
-0.0876939
0.0487626
0.0351465
0.0210102
0.10175
0.0958763
0.0907941
0.0914512
0.0814695
0.0992598
-0.0229814
-0.0143253
-0.0176672
0.0685922
0.0911367
0.0539291
0.375745
0.335972
0.346028
0.0832536
0.102951
0.137376
0.36716
0.386443
0.0152654
0.0264423
0.0127328
0.0667283
0.076373
0.0366207
-0.0295377
-0.0183629
-0.0153158
-0.0224144
-0.0206482
-0.0348331
0.00849597
-0.00573111
-0.011807
-0.0877967
-0.0954627
-0.124202
0.0459113
0.0222882
0.0154609
-0.0935174
-0.0647219
-0.0770598
-0.0595556
-0.0637882
-0.0798137
-0.0315973
-0.0473081
-0.0465781
-0.0600016
-0.0550319
-0.0451617
-0.0835954
-0.0661433
-0.0719656
-0.0474118
-0.0579275
-0.0788964
-0.0980614
-0.0916317
-0.0819058
-0.124376
-0.117746
-0.120985
-0.0932511
-0.0981273
-0.104173
-0.2099
-0.213182
-0.206213
-0.140474
-0.127284
-0.164379
-0.101559
-0.116489
-0.12353
-0.0943216
-0.106702
-0.0936505
-0.060796
-0.0632903
-0.0531869
-0.0944766
-0.0750569
-0.0716932
-0.0753525
-0.0763483
-0.0960133
-0.115546
-0.116775
-0.105987
-0.144302
-0.137157
-0.135776
-0.138369
-0.139044
-0.146626
-0.133638
-0.140716
-0.178777
-0.110861
-0.127274
-0.123006
-0.127656
-0.128908
-0.112088
-0.0385772
-0.0454569
-0.0396402
-0.0646927
-0.0523336
-0.0438437
-0.0665622
-0.0600068
-0.0698528
-0.0806051
-0.0865355
-0.0802421
-0.103844
-0.0927861
-0.0837024
-0.113215
-0.110238
-0.115035
-0.176936
-0.175058
-0.172112
-0.0899465
-0.107828
-0.127509
-0.0879112
-0.0979845
-0.0871338
-0.116384
-0.107898
-0.0957897
-0.0767429
-0.0796186
-0.0702829
-0.116896
-0.113789
-0.112573
-0.0420566
-0.0538463
-0.0592131
-0.051019
-0.0529843
-0.0421395
-0.0757409
-0.0641564
-0.0604767
0.0155932
0.0193055
0.0242647
-0.0151797
-0.00911042
-0.0110055
0.0379077
0.0446617
0.0351043
0.0563826
0.0486717
0.0429627
0.0766633
0.0743374
0.0664782
0.0372279
0.0428474
0.0560292
0.0256451
0.0378719
0.0318522
0.0400895
0.0391347
0.0240115
-0.0895132
-0.0825464
-0.0881445
-0.0304389
-0.0528341
-0.0697651
-0.0380289
-0.043066
-0.0294355
-0.0591124
-0.0727745
-0.0574864
0.0490628
0.0538709
0.0722293
-0.0445778
-0.0317536
-0.0262902
-0.194435
-0.202406
-0.206476
-0.121727
-0.130258
-0.124921
-0.089699
-0.10832
-0.099649
-0.125575
-0.117536
-0.104174
-0.176284
-0.169056
-0.179649
-0.143848
-0.136312
-0.137527
-0.12392
-0.126778
-0.13378
-0.0974864
-0.10813
-0.103534
-0.137288
-0.140641
-0.138681
-0.155216
-0.154597
-0.149929
-0.137047
-0.135351
-0.131785
-0.198158
-0.208186
-0.184868
-0.244638
-0.23588
-0.232413
-0.207698
-0.192005
-0.184729
-0.231243
-0.228568
-0.238423
-0.163043
-0.180956
-0.194621
-0.124148
-0.119438
-0.116377
-0.13401
-0.132202
-0.137943
-0.100932
-0.110315
-0.11333
-0.145301
-0.147564
-0.149255
-0.125484
-0.127358
-0.124966
-0.152062
-0.156117
-0.155586
-0.151116
-0.152566
-0.148315
-0.211818
-0.203623
-0.185528
-0.21402
-0.217878
-0.223041
-0.195334
-0.218019
-0.214248
-0.0880561
-0.0905972
-0.098114
-0.0665926
-0.0701462
-0.0664471
-0.119723
-0.1229
-0.123865
-0.100733
-0.105742
-0.099959
-0.122378
-0.123096
-0.120011
-0.169841
-0.167392
-0.164986
-0.146169
-0.130515
-0.125076
-0.156055
-0.152006
-0.157806
-0.116413
-0.122289
-0.124655
-0.214878
-0.207588
-0.210412
-0.163719
-0.169762
-0.177517
-0.151695
-0.166214
-0.151387
-0.0115034
-0.00975006
-0.0136858
0.00916138
0.0060583
0.00469372
-0.0523423
-0.0552339
-0.0613971
-0.0178712
-0.0227222
-0.0243609
-0.0285101
-0.0276021
-0.0213412
-0.0671314
-0.0576863
-0.0584823
-0.106203
-0.104536
-0.110491
-0.0684866
-0.0845221
-0.0882124
-0.0782194
-0.0799318
-0.0698792
0.0473952
0.060437
0.0457521
0.0719775
0.063075
0.0493032
0.0142477
0.0155488
0.0122166
0.0384064
0.0561984
0.0618121
-0.0146644
0.000665829
-0.000797201
0.00404313
0.00213848
-0.0227959
0.0387214
0.021224
0.017601
0.118003
0.0884181
0.078707
-0.0188555