/*--------------------------------*- C++ -*----------------------------------*\
| =========                 |                                                 |
| \\      /  F ield         | OpenFOAM: The Open Source CFD Toolbox           |
|  \\    /   O peration     | Version:  5.x                                   |
|   \\  /    A nd           | Web:      www.OpenFOAM.org                      |
|    \\/     M anipulation  |                                                 |
\*---------------------------------------------------------------------------*/
FoamFile
{
    version     2.0;
    format      ascii;
    class       surfaceScalarField;
    location    "500";
    object      phi;
}
// * * * * * * * * * * * * * * * * * * * * * * * * * * * * * * * * * * * * * //

dimensions      [0 3 -1 0 0 0 0];

internalField   nonuniform List<scalar> 
13181
(
8.72027e-06
0.00915665
8.41508e-06
0.00916731
7.30892e-06
0.00916761
6.12398e-06
0.00916768
4.22862e-06
0.0091689
-3.1192e-06
0.00917385
-7.56232e-06
0.00917109
-7.92929e-06
0.00916707
-6.20062e-06
0.00916492
-8.27722e-07
0.00916128
8.59969e-06
0.00915727
2.02335e-05
0.00915502
3.06917e-05
0.00915619
3.67768e-05
0.00916061
3.7518e-05
0.00916591
3.39466e-05
0.00917022
2.77765e-05
0.00917287
2.0393e-05
0.00917403
8.85698e-06
0.00917804
-1.00713e-06
0.00917686
-1.36142e-05
0.00917911
-1.87347e-05
0.00917162
-1.97363e-05
0.009168
0.00914525
1.24376e-05
0.00914132
3.5303e-05
0.00914444
3.5689e-05
0.00916722
3.5247e-05
0.00916813
2.9377e-05
0.00917477
1.04527e-05
0.00919277
-1.42215e-05
0.00919577
-2.15e-05
0.00917435
-1.94169e-05
0.00916284
-8.89483e-06
0.00457527
0.00457548
1.02176e-05
0.00456902
0.00456914
3.47048e-05
0.00456505
0.00456548
5.67675e-05
0.00456657
0.00456756
6.94617e-05
0.00457336
0.00457456
7.07721e-05
0.00458172
0.00458288
5.56154e-05
0.00918538
3.29997e-05
0.00919549
1.06822e-05
0.00919635
-1.26036e-05
0.00920132
-2.08417e-05
0.0091851
-2.15527e-05
0.00917982
-2.25936e-05
0.00917266
-5.64487e-07
0.00914597
0.00914089
-3.75719e-06
0.00914038
-5.93245e-07
0.00914128
1.93952e-05
0.00914723
1.7628e-05
0.00916989
1.89654e-05
0.00917343
2.06999e-05
0.00919104
-1.14966e-05
0.00922796
-3.21804e-05
0.00919503
-1.65499e-05
0.00916813
-2.09214e-05
0.00457184
-1.31243e-05
0.00456342
-3.10676e-06
8.70485e-06
-4.19592e-06
0.00455671
1.25302e-05
-2.15414e-05
0.0045581
3.00077e-05
-3.71779e-05
0.00456805
4.24907e-05
-4.51582e-05
0.00458185
4.50269e-05
4.50711e-05
0.00461152
-3.5221e-05
-4.62945e-05
0.00461031
5.90923e-06
0.00923465
-7.54477e-06
0.0092098
-6.7148e-06
0.00920049
-8.41553e-06
0.0091868
-1.00778e-05
0.00918148
7.31586e-06
0.00915527
8.20495e-06
0.00914508
0.00914305
-9.64523e-06
0.00914357
-1.24665e-05
0.0091441
-1.2754e-05
0.00914752
1.2039e-06
0.00915594
-3.00521e-06
0.00917764
-2.16808e-06
0.0091902
-5.69968e-06
0.0092315
-2.4628e-05
0.00921396
-3.14212e-05
0.0046132
-3.41552e-05
0.00459587
0.00456583
-2.73012e-05
-0.00456995
0.0045482
-1.35834e-05
-0.00455649
2.18761e-05
1.5017e-06
0.00452991
1.39022e-05
-0.00454531
-3.11037e-05
0.00452993
4.74511e-05
-0.00454628
-5.94275e-05
0.00456382
5.80039e-05
-0.0045624
-4.06081e-05
0.00461304
1.89983e-05
-0.00459143
-4.53649e-06
0.00461488
1.17472e-06
3.37639e-05
0.00461439
-1.50435e-05
-3.63376e-06
0.00460517
2.62935e-05
0.00921728
1.73753e-05
0.00920941
6.35074e-06
0.00919783
1.76696e-05
0.00917016
1.69185e-05
0.00915602
1.16517e-05
0.00915035
0.00914673
-1.1511e-05
0.00914709
-1.60309e-05
0.00914862
-2.13008e-05
0.00915279
-2.29942e-05
0.00915763
-1.61723e-05
0.00917082
-1.90214e-05
0.00919305
1.50906e-05
0.00919738
2.27278e-05
0.00458778
1.06336e-05
0.00460791
0.0046402
-4.26749e-06
0.00457203
-2.9159e-05
-0.00456613
2.32643e-05
0.0045441
-3.47031e-05
-0.0045409
3.15078e-05
1.77506e-05
9.73004e-06
-0.00450934
0.00224065
0.00224121
-4.30619e-05
7.5368e-05
-0.00450754
0.00223767
0.00223756
-8.55362e-05
4.90264e-05
-0.00458197
0.00230316
0.00231532
-5.87336e-05
0.0046147
5.91949e-05
-0.00461517
-5.00543e-05
0.00462379
4.95217e-05
-0.00462325
-4.69165e-05
0.00461589
4.54172e-05
5.1557e-05
0.00924607
-4.29869e-05
-3.73677e-05
3.11125e-05
0.00922985
3.27823e-05
0.00919616
2.72939e-05
0.00917565
1.91565e-05
0.00916416
1.33962e-05
0.00915611
0.00915087
-1.26211e-05
0.0091506
-1.74118e-05
0.00915341
-2.36399e-05
0.00915902
-3.23365e-05
0.00916633
-3.72394e-05
0.00917572
-3.96343e-05
0.00919544
-2.47796e-05
0.00921593
-3.34004e-05
0.00459659
-3.35882e-05
0.00460124
4.58959e-06
-0.00463386
2.80308e-05
0.00457687
2.53381e-05
-0.00458049
-2.17172e-05
-0.00228069
-3.62573e-06
0.00228564
-1.3271e-06
-0.00222723
9.58767e-06
0.00222862
-1.09796e-05
-0.00221436
-2.74507e-05
0.0022013
4.05153e-05
-0.00229295
-3.35564e-05
0.00226494
6.15643e-05
-4.5073e-05
0.000110109
-0.00462277
-4.90952e-05
0.00229919
0.00230764
-0.000104963
0.00464155
8.96967e-05
-0.00462628
-7.3077e-05
-0.00462672
0.00464078
5.90212e-05
6.46889e-05
0.00928319
-5.29717e-05
-4.88332e-05
5.08991e-05
0.00924364
3.95101e-05
0.00920755
2.75206e-05
0.00918764
1.95342e-05
0.00917214
1.36026e-05
0.00916204
0.00915479
-1.32989e-05
0.0091542
-1.83144e-05
0.00915842
-2.42585e-05
0.00916496
-3.23794e-05
0.00917445
-4.41509e-05
0.00918749
-5.52099e-05
0.0092065
-3.61562e-05
0.0092332
-3.63216e-05
-0.00460533
0.00461485
-4.5675e-05
-0.00460233
0.00461695
-7.22379e-05
5.76187e-05
-0.00458664
0.00461034
9.10553e-05
-5.39744e-05
-6.07829e-05
-0.00227205
5.44719e-05
0.00227252
-5.49336e-05
-0.00110918
1.70135e-05
0.00110493
-1.27721e-05
-1.77294e-05
-0.00105631
0.00105068
2.33566e-05
-5.09271e-05
-0.00228554
9.90277e-05
-3.73437e-05
0.00112443
0.00115036
-0.000108687
-0.00231447
0.00232724
9.59153e-05
-0.000142738
-0.00466648
0.00469654
0.000112687
-8.83977e-05
-0.00465686
0.0046765
6.87548e-05
7.27249e-05
0.00931488
-5.15904e-05
-5.28216e-05
5.32882e-05
0.00926308
3.54278e-05
0.00922541
2.37797e-05
0.00919929
1.61965e-05
0.00917973
1.10398e-05
0.0091672
0.00915681
-1.24755e-05
0.00915701
-1.71416e-05
0.00916309
-2.24763e-05
0.0091703
-3.06738e-05
0.00918264
-4.16136e-05
0.00919843
-5.7581e-05
0.00922247
-3.52917e-05
0.00925129
-4.03774e-05
-0.00462506
0.00463583
-4.60621e-05
-0.00463609
0.00465498
-7.91943e-05
6.03047e-05
-0.004644
0.00468158
0.000105493
-6.99323e-05
-7.31351e-05
-0.00230691
9.78338e-05
0.00232708
-0.00011801
-0.00112106
0.000103452
0.00113454
-0.000116927
-0.000147759
-0.00116474
0.00117911
0.00013339
-0.000148777
-0.0023751
0.00239753
0.000126338
-0.000162862
-0.00473542
0.00477326
0.000125015
-9.68539e-05
-0.0046997
0.00472016
7.64016e-05
6.62039e-05
0.00936071
-5.25536e-05
-5.94872e-05
3.73418e-05
0.00929194
2.40403e-05
0.00923871
1.54314e-05
0.0092079
1.0623e-05
0.00918453
8.19396e-06
0.00916963
0.00915785
-1.12442e-05
0.00915926
-1.40585e-05
0.0091659
-1.80336e-05
0.00917427
-2.2991e-05
0.0091876
-2.98695e-05
0.00920531
-3.96332e-05
0.00923223
-3.0575e-05
0.00926717
-2.49418e-05
-0.00463873
0.00464757
-3.9412e-05
-0.00467744
0.00469246
-6.97526e-05
5.47403e-05
-0.00471864
0.00474604
8.92229e-05
-6.13172e-05
-5.53047e-05
-0.00238598
8.6242e-05
0.00240161
-0.00010187
-0.0012233
9.03567e-05
0.00123217
-9.9234e-05
-0.00012109
-0.00128175
0.00129258
0.000110252
-0.000110922
-0.00245962
0.00247756
9.29896e-05
-0.000108592
-0.00480834
0.00483437
8.25615e-05
-6.25876e-05
-0.00473813
0.00475144
4.92845e-05
4.36183e-05
0.00937931
-2.51509e-05
-3.70597e-05
1.98479e-05
0.00931571
7.25973e-06
0.0092513
4.13357e-06
0.00921102
2.7328e-06
0.00918594
2.29036e-06
0.00917007
0.00915599
-8.86647e-06
0.00916035
-1.10615e-05
0.0091681
-1.27674e-05
0.00917598
-1.52682e-05
0.0091901
-1.68523e-05
0.00920689
-1.87899e-05
0.00923417
-1.36004e-05
0.00926889
-6.90628e-06
-0.00465547
0.00466336
-2.14982e-05
-0.00470201
0.00470568
-2.85391e-05
2.48689e-05
-0.00476246
0.00476633
3.1921e-05
-2.20181e-05
-1.37769e-05
-0.0024306
2.88678e-05
0.00243351
-3.17717e-05
-0.00126609
2.39418e-05
0.0012671
-2.49518e-05
-2.08619e-05
-0.00133353
0.00133455
1.98421e-05
-2.08589e-05
-0.00250861
0.00251128
1.81853e-05
-1.42813e-05
-0.00484882
0.00485027
1.28338e-05
-1.15442e-05
-0.00475961
0.00476178
9.37456e-06
5.77532e-06
0.00937449
5.13882e-06
-6.09681e-06
9.31662e-06
0.00931217
-5.95907e-06
0.00926657
-9.66686e-06
0.00921473
-6.08882e-06
0.00918236
-3.66124e-06
0.00916764
0.00915208
-6.72515e-06
0.00916085
-7.32133e-06
0.0091687
-7.32746e-06
0.00917598
-5.97801e-06
0.00918875
-4.53993e-06
0.00920545
1.56073e-06
0.00922807
2.9471e-06
0.00926083
6.66837e-06
-0.00466594
0.00466645
2.4386e-06
-0.00470355
0.00469602
1.47531e-05
-7.22884e-06
-0.00475822
0.00474075
-2.68395e-05
1.85495e-05
2.57632e-05
-0.00242337
-2.94553e-05
0.00241487
3.79584e-05
-0.00124986
-3.73781e-05
0.00124499
4.22574e-05
7.29071e-05
-0.00130693
0.00129916
-6.51401e-05
6.79159e-05
-0.00249531
0.00248404
-5.66392e-05
7.60024e-05
-0.00483955
0.00481939
-5.58416e-05
3.96166e-05
-0.00475697
0.00474696
-2.96034e-05
-3.11977e-05
0.00935074
3.14354e-05
2.35102e-05
-1.46031e-05
0.00929558
-4.76001e-06
0.00925673
-2.30147e-05
0.00923299
-1.61715e-05
0.00917551
-9.99038e-06
0.00916146
0.00914634
-4.21174e-06
0.00916051
-3.00996e-06
0.00916749
-1.31693e-06
0.00917429
1.99872e-06
0.00918544
8.44929e-06
0.009199
2.0028e-05
0.00921649
1.48023e-05
0.00924805
1.80053e-05
-0.00466078
0.00465452
2.10629e-05
-0.00468492
0.00467174
4.38481e-05
-3.0667e-05
-0.00471652
0.00468977
-6.27712e-05
4.3659e-05
4.58709e-05
-0.00238024
-6.32698e-05
0.00236717
7.6333e-05
-0.00120173
-6.77392e-05
0.00119465
7.48216e-05
0.000113088
-0.00123585
0.00122677
-0.000104003
0.000116158
-0.00243739
0.00242022
-9.89946e-05
0.000131456
-0.00479034
0.00475632
-9.7444e-05
7.42999e-05
-0.00473242
0.00471558
-5.74672e-05
-5.57062e-05
0.00931343
4.82785e-05
4.47346e-05
-3.23828e-05
0.00927225
-1.65795e-05
0.00924093
-8.47754e-06
0.00922488
-2.48857e-05
0.00919192
-1.65203e-05
0.0091531
0.00913871
-2.14252e-06
0.00915965
-1.23737e-07
0.00916547
2.52597e-06
0.00917164
7.57583e-06
0.00918039
1.49596e-05
0.00919162
2.78448e-05
0.00920361
2.25641e-05
0.00923004
2.3292e-05
-0.00464658
0.00463876
3.03848e-05
-0.00465772
0.00464455
5.28833e-05
-3.97067e-05
-0.00466298
0.00463945
-7.03612e-05
4.7819e-05
4.60737e-05
-0.00232959
-6.58028e-05
0.00231893
7.64617e-05
-0.00114999
-6.24425e-05
0.00114522
6.72072e-05
0.000104522
-0.00116401
0.00115593
-9.64499e-05
0.000115458
-0.00237026
0.0023558
-0.000101
0.000136592
-0.00471957
0.00468916
-0.000106177
8.34981e-05
-0.00469836
0.00468181
-6.69528e-05
-6.48641e-05
0.00927561
5.10753e-05
5.16145e-05
-3.99577e-05
0.00924735
-2.24646e-05
0.00922343
-1.82148e-05
0.00922063
-2.8426e-05
0.00920213
-2.22178e-05
0.00914689
0.00912981
-1.85949e-07
0.00915812
1.6405e-06
0.00916365
5.01324e-06
0.00916827
9.63742e-06
0.00917576
1.66766e-05
0.00918458
2.69506e-05
0.00919333
4.04757e-05
0.00921652
3.57075e-05
0.00924533
2.64118e-05
-0.00463185
-0.00463513
-0.0046335
0.00462593
4.32724e-05
-0.00462084
0.00462704
3.94738e-05
-4.56686e-05
-0.00230311
-8.47085e-06
0.00232803
-1.64516e-05
-0.0011483
3.33609e-05
0.00112969
-1.47519e-05
-0.000330287
1.0905e-05
0.000341424
-2.2042e-05
4.06497e-05
-0.00112252
0.00225692
-8.27244e-05
3.53124e-05
-0.00112764
-0.00232477
8.12183e-05
0.00232005
-7.6497e-05
0.000104072
-0.00466579
0.00464806
-8.63514e-05
7.12582e-05
-0.00466933
0.00466458
-6.65006e-05
-6.07379e-05
0.00924713
4.21868e-05
4.70249e-05
-3.92767e-05
0.00922589
-2.3543e-05
0.0092077
-3.36588e-05
0.00923075
-5.37532e-06
0.00917385
-2.42647e-05
0.00916578
0.00912276
1.22883e-07
0.00915722
1.83373e-06
0.00916194
4.36003e-06
0.00916574
7.76111e-06
0.00917236
1.33623e-05
0.00917898
1.87696e-05
0.00918793
1.29874e-05
0.0092223
-6.91439e-06
0.00929442
-2.91849e-05
-0.00463528
0.00465299
-2.46241e-05
-0.0046369
0.00461682
-2.67097e-06
2.2753e-05
-0.00229371
-1.68789e-05
0.0022898
2.07952e-05
-0.00225867
-1.16924e-05
0.00226568
4.68232e-06
-0.000936144
3.59292e-05
0.00197862
-5.98107e-05
-0.0010186
-0.00228427
6.93522e-05
0.00227877
-6.38589e-05
-0.00461171
7.51901e-05
0.00462184
-0.00013666
5.13433e-05
0.000127294
-0.00463825
0.00462586
-0.000114911
-0.000143658
0.00923669
7.30406e-05
0.000105259
-0.00467943
-0.0045919
-0.000114596
0.00921807
-9.23905e-05
0.00920368
-7.23252e-05
0.00918763
-1.63386e-05
0.00917476
-5.35191e-06
0.00916286
3.42056e-06
0.00915701
0.00914661
3.5959e-07
0.00915664
1.16128e-06
0.00916114
2.49863e-06
0.0091644
4.77884e-06
0.00917008
6.98958e-06
0.00917677
5.28868e-06
0.00918963
-1.88408e-05
0.00924643
-2.9652e-05
0.00929701
8.21849e-06
-0.00464947
0.0046205
-6.75537e-07
-0.00460419
0.0046038
1.48631e-05
-1.44739e-05
-0.00458713
0.00459599
2.36441e-06
-1.12287e-05
-0.00228163
4.14805e-06
0.00228492
-7.43635e-06
-0.00202428
2.65519e-05
0.00203976
-4.20287e-05
-0.00227846
4.31408e-05
0.00457122
-9.54484e-05
-0.00228164
4.11867e-05
-0.00461264
0.000105195
0.00460605
-9.86072e-05
-0.0046182
9.36949e-05
0.00461173
-8.72223e-05
-0.000108545
0.00919861
6.86692e-05
7.79609e-05
-7.82162e-05
0.00918774
-6.64269e-05
0.00919189
-5.93669e-05
0.00918057
-5.19921e-05
0.00916739
-4.37321e-05
0.0091546
-3.26794e-05
0.00914595
0.00913682
-3.58771e-07
0.00915699
3.80169e-07
0.0091604
8.88249e-07
0.0091639
1.4493e-06
0.00916952
1.29105e-06
0.00917693
-9.74167e-06
0.00920066
-2.62157e-05
0.0092629
4.14245e-06
0.00926665
3.24654e-06
0.00923304
-0.00461917
-0.00461271
-2.63037e-07
-0.0046065
0.004608
1.74846e-06
-0.00460346
0.00460978
-8.27308e-06
1.95462e-06
-0.00458193
1.69685e-05
0.00458601
-2.1054e-05
-0.00428305
4.097e-05
0.0043037
-6.16256e-05
-0.00458105
6.77843e-05
0.0045853
-7.20398e-05
-0.00460079
7.21119e-05
0.00459832
-6.96445e-05
-0.0046074
6.78659e-05
0.00460425
-6.47089e-05
-0.000104907
0.00918622
5.71917e-05
6.01038e-05
-8.78537e-05
0.00917069
-7.01265e-05
0.00917417
-5.18384e-05
0.00916229
-3.54165e-05
0.00915097
-2.79032e-05
0.00914709
-2.49459e-05
0.009143
0.00913661
-8.97723e-07
0.00915781
-1.27022e-06
0.00916077
-2.08682e-06
0.00916471
-2.63529e-06
0.00917007
-6.86277e-06
0.00918115
-2.90024e-05
0.0092228
-2.84435e-05
0.00926234
-6.92703e-06
0.00924514
-1.31296e-05
0.00923924
-1.12526e-05
0.00923409
-0.00461035
-0.00461116
-1.44475e-05
-0.00461543
0.00462007
-1.58964e-05
-0.004586
2.37613e-05
0.00457644
-1.42057e-05
-0.00432029
3.78012e-05
0.00433817
-5.56755e-05
-0.00458959
4.89956e-05
0.00459367
-5.30746e-05
-0.000102808
0.00919816
-0.00459832
-0.00459893
4.90538e-05
5.28439e-05
-9.88753e-05
0.00919879
-0.00460197
-0.00460075
-9.06371e-05
0.00917798
-8.29478e-05
0.009163
-6.75991e-05
0.00915882
-5.41201e-05
0.00914881
-4.26634e-05
0.00913951
-3.31857e-05
0.00913761
-2.02491e-05
0.00913006
0.00914219
-1.64191e-06
0.00915909
-3.09519e-06
0.00916222
-4.13768e-06
0.00916576
-5.59069e-06
0.00917152
-8.97234e-06
0.00918454
-2.58912e-05
0.00923972
-1.80035e-05
0.00925445
-1.01811e-05
0.00923731
-1.85531e-05
0.00924761
-3.00843e-05
0.00924562
-3.86006e-05
0.00925726
-0.00462706
-0.00462168
-6.22403e-05
0.00885594
-0.0045341
-0.0042982
-8.31509e-05
0.00892126
-0.00437187
-0.00452848
-8.73291e-05
0.00921026
-0.00459953
-0.00460656
-8.71027e-05
0.00919794
-8.48312e-05
0.00919652
-7.90935e-05
0.00917224
-7.30735e-05
0.00915698
-6.20532e-05
0.0091478
-5.24343e-05
0.00913919
-4.52614e-05
0.00913234
-3.42598e-05
0.00912661
-2.49154e-05
0.00912071
0.00914367
-2.50139e-06
0.00916078
-3.96136e-06
0.00916368
-6.10529e-06
0.0091679
-8.25284e-06
0.00917367
-1.19492e-05
0.00918823
-2.16375e-05
0.00924941
-1.74276e-05
0.00925024
-1.5146e-05
0.00923503
-2.15022e-05
0.00925397
-3.09753e-05
0.00925509
-3.82642e-05
0.00926455
-5.33911e-05
0.00887107
-6.72136e-05
0.00893508
-7.18608e-05
0.00921491
-7.44967e-05
0.00920057
-7.34737e-05
0.00919549
-6.97044e-05
0.00916847
-6.48623e-05
0.00915214
-5.69592e-05
0.00913989
-4.92335e-05
0.00913146
-4.2138e-05
0.00912524
-3.39267e-05
0.0091184
-2.61654e-05
0.00911295
0.00914405
-3.41372e-06
0.00916282
-5.79635e-06
0.00916607
-8.41019e-06
0.00917051
-1.10696e-05
0.00917633
-1.38052e-05
0.00919097
-1.74537e-05
0.00925306
-1.74678e-05
0.00925026
-1.83105e-05
0.00923588
-2.37873e-05
0.00925944
-3.18432e-05
0.00926315
-3.70135e-05
0.00926972
-4.80983e-05
0.00888215
-5.819e-05
0.00894518
-6.15923e-05
0.00921831
-6.47402e-05
0.00920372
-6.42187e-05
0.00919497
-6.16711e-05
0.00916592
-5.82599e-05
0.00914873
-5.24597e-05
0.00913409
-4.62264e-05
0.00912523
-3.99626e-05
0.00911898
-3.28904e-05
0.00911133
-2.61317e-05
0.00910619
0.00914426
-4.33839e-06
0.00916515
-7.05227e-06
0.00916878
-9.51222e-06
0.00917297
-1.25315e-05
0.00917935
-1.56029e-05
0.00919404
-1.7011e-05
0.00925446
-1.91189e-05
0.00925237
-2.35482e-05
0.0092403
-2.51332e-05
0.00926103
-3.18617e-05
0.00926987
-3.60313e-05
0.00927389
-4.42244e-05
0.00889034
-5.1226e-05
0.00895218
-5.41925e-05
0.00922128
-5.68993e-05
0.00920643
-5.66886e-05
0.00919476
-5.50432e-05
0.00916428
-5.27308e-05
0.00914642
-4.76324e-05
0.00912899
-4.3556e-05
0.00912115
-3.73879e-05
0.00911281
-3.17871e-05
0.00910573
-2.64132e-05
0.00910082
0.00914374
-5.75364e-06
0.00916819
-7.71121e-06
0.00917074
-1.0916e-05
0.00917618
-1.3671e-05
0.0091821
-1.69236e-05
0.00919729
-1.8452e-05
0.00925599
-2.06942e-05
0.00925461
-2.48505e-05
0.00924446
-2.57484e-05
0.00926193
-3.13873e-05
0.00927551
-3.47846e-05
0.00927729
-4.09894e-05
0.00889655
-4.58967e-05
0.00895708
-4.83393e-05
0.00922372
-5.0637e-05
0.00920873
-5.05256e-05
0.00919465
-4.93865e-05
0.00916314
-4.71777e-05
0.00914421
-4.39645e-05
0.00912578
-4.02897e-05
0.00911748
-3.4994e-05
0.00910751
-3.02065e-05
0.00910094
-2.51037e-05
0.00909572
0.00914389
-6.1433e-06
0.00917088
-9.27679e-06
0.00917387
-1.21349e-05
0.00917904
-1.50351e-05
0.009185
-1.83592e-05
0.00920062
-1.94066e-05
0.00925704
-2.17166e-05
0.00925692
-2.55423e-05
0.00924829
-2.84313e-05
0.00926482
-3.08142e-05
0.0092779
-3.34631e-05
0.00927993
-3.82576e-05
0.00890134
-4.17141e-05
0.00896054
-4.37135e-05
0.00922572
-4.55827e-05
0.0092106
-4.55021e-05
0.00919457
-4.46531e-05
0.00916229
-4.29739e-05
0.00914253
-3.9916e-05
0.00912272
-3.6919e-05
0.00911448
-3.33192e-05
0.00910391
-2.91908e-05
0.00909681
-2.52361e-05
0.00909176
0.0091431
-7.00886e-06
0.00917367
-9.75066e-06
0.00917661
-1.31962e-05
0.00918248
-1.61713e-05
0.00918798
-1.89914e-05
0.00920344
-1.99958e-05
0.00925804
-2.23992e-05
0.00925932
-2.58781e-05
0.00925177
-2.94439e-05
0.00926838
-3.00532e-05
0.00927851
-3.21791e-05
0.00928206
-3.57503e-05
0.00890491
-3.83962e-05
0.00896319
-3.97016e-05
0.00922703
-4.13998e-05
0.00921229
-4.13191e-05
0.00919449
-4.07575e-05
0.00916173
-3.94938e-05
0.00914126
-3.74064e-05
0.00912064
-3.49238e-05
0.009112
-3.08852e-05
0.00909988
-2.72894e-05
0.00909322
-2.38681e-05
0.00908834
0.0091428
-7.84966e-06
0.0091765
-1.06491e-05
0.00917941
-1.36226e-05
0.00918546
-1.66207e-05
0.00919098
-1.98962e-05
0.00920671
-2.08213e-05
0.00925897
-2.27612e-05
0.00926126
-2.59553e-05
0.00925496
-2.91777e-05
0.0092716
-3.50962e-05
0.00928442
-3.52218e-05
0.00928219
-3.74628e-05
0.00890716
-3.83392e-05
0.00896406
-3.93111e-05
0.009228
-4.02441e-05
0.00921323
-4.00834e-05
0.00919433
-3.98126e-05
0.00916146
-3.90961e-05
0.00914055
-3.83481e-05
0.00911989
-3.37665e-05
0.00910742
-3.017e-05
0.00909628
-2.64961e-05
0.00908954
-2.30122e-05
0.00908486
0.00914237
-8.66876e-06
0.00917934
-1.14832e-05
0.00918223
-1.39445e-05
0.00918792
-1.74314e-05
0.00919446
-2.01275e-05
0.00920941
-2.14564e-05
0.0092603
-2.29991e-05
0.0092628
-2.59284e-05
0.00925789
-3.13447e-05
0.00927702
-3.64012e-05
0.00928948
-3.77061e-05
0.00928349
-4.02403e-05
0.00890969
-4.15269e-05
0.00896535
-4.26194e-05
0.00922909
-4.34458e-05
0.00921405
-4.31957e-05
0.00919408
-4.26987e-05
0.00916096
-4.12148e-05
0.00913906
-3.97158e-05
0.00911839
-3.78682e-05
0.00910557
-3.50844e-05
0.0090935
-3.27125e-05
0.00908717
-2.9568e-05
0.00908171
0.00913432
-9.46694e-06
0.00918215
-1.22639e-05
0.00918502
-1.51863e-05
0.00919084
-1.763e-05
0.00919691
-2.02358e-05
0.00921201
-2.14594e-05
0.00926152
-2.31797e-05
0.00926453
-2.82922e-05
0.009263
-3.2994e-05
0.00928172
-3.58907e-05
0.00929238
-3.67844e-05
0.00928438
-3.89005e-05
0.00891181
-3.97456e-05
0.00896619
-4.04766e-05
0.00922982
-4.10945e-05
0.00921467
-4.08155e-05
0.0091938
-4.03119e-05
0.00916046
-3.93524e-05
0.0091381
-3.75266e-05
0.00911656
-3.58684e-05
0.00910391
-3.38239e-05
0.00909145
-3.11888e-05
0.00908453
-2.87934e-05
0.00907932
0.009126
-1.02456e-05
0.0091849
-1.24959e-05
0.00918727
-1.53544e-05
0.0091937
-1.77456e-05
0.0091993
-2.07565e-05
0.00921503
-2.18811e-05
0.00926265
-2.56612e-05
0.00926831
-3.06325e-05
0.00926797
-3.292e-05
0.00928401
-3.53972e-05
0.00929485
-3.61456e-05
0.00928513
-3.78384e-05
0.0089135
-3.8298e-05
0.00896665
-3.88662e-05
0.00923039
-3.92663e-05
0.00921507
-3.89017e-05
0.00919344
-3.83617e-05
0.00915992
-3.73894e-05
0.00913713
-3.61646e-05
0.00911534
-3.41345e-05
0.00910188
-3.17722e-05
0.00908909
-3.02863e-05
0.00908305
-2.75813e-05
0.00907661
0.00911783
-1.0499e-05
0.00918706
-1.36903e-05
0.00919046
-1.59649e-05
0.00919597
-1.87996e-05
0.00920213
-2.07116e-05
0.00921694
-2.47651e-05
0.0092667
-2.88696e-05
0.00927241
-3.07769e-05
0.00926988
-3.29081e-05
0.00928614
-3.51475e-05
0.00929709
-3.56025e-05
0.00928559
-3.70442e-05
0.00891494
-3.71456e-05
0.00896676
-3.75247e-05
0.00923077
-3.78373e-05
0.00921538
-3.73282e-05
0.00919293
-3.67857e-05
0.00915938
-3.57644e-05
0.00913611
-3.46047e-05
0.00911418
-3.26464e-05
0.00909992
-3.08999e-05
0.00908734
-2.8521e-05
0.00908067
-2.64339e-05
0.00907453
0.00910974
-1.17263e-05
0.00918961
-1.38344e-05
0.00919257
-1.60171e-05
0.00919815
-1.87927e-05
0.00920491
-2.41409e-05
0.00922229
-3.06366e-05
0.0092732
-2.91069e-05
0.00927088
-3.09077e-05
0.00927168
-3.28825e-05
0.00928812
-3.50079e-05
0.00929922
-3.53709e-05
0.00928595
-3.65128e-05
0.00891608
-3.64139e-05
0.00896666
-3.66196e-05
0.00923098
-3.66586e-05
0.00921542
-3.61472e-05
0.00919241
-3.55429e-05
0.00915877
-3.44423e-05
0.00913501
-3.28172e-05
0.00911255
-3.18782e-05
0.00909898
-2.97128e-05
0.00908518
-2.78765e-05
0.00907883
-2.586e-05
0.00907251
0.00910119
-1.19044e-05
0.00919151
-1.44309e-05
0.0091951
-1.7011e-05
0.00920073
-1.87301e-05
0.00920663
-3.4064e-05
0.00923762
-3.04462e-05
0.00926958
-2.9398e-05
0.00926983
-3.1148e-05
0.00927343
-3.30656e-05
0.00929003
-3.5051e-05
0.0093012
-3.53288e-05
0.00928623
-3.62485e-05
0.008917
-3.58946e-05
0.0089663
-3.59692e-05
0.00923105
-3.58989e-05
0.00921535
-3.52125e-05
0.00919173
-3.45404e-05
0.0091581
-3.33857e-05
0.00913386
-3.22686e-05
0.00911144
-3.0329e-05
0.00909705
-2.92016e-05
0.00908405
-2.68694e-05
0.0090765
-2.48826e-05
0.00907052
0.00909261
-1.30201e-05
0.00919375
-1.44603e-05
0.00919654
-1.69252e-05
0.0092032
-2.76759e-05
0.00921738
-3.48665e-05
0.00924481
-3.12445e-05
0.00926596
-2.96314e-05
0.00926822
-3.13972e-05
0.0092752
-3.33061e-05
0.00929194
-3.53112e-05
0.00930321
-3.55309e-05
0.00928645
-3.62718e-05
0.00891774
-3.57933e-05
0.00896582
-3.56021e-05
0.00923086
-3.5371e-05
0.00921512
-3.45871e-05
0.00919094
-3.38548e-05
0.00915737
-3.25634e-05
0.00913256
-3.14592e-05
0.00911033
-2.9969e-05
0.00909555
-2.78841e-05
0.00908196
-2.6006e-05
0.00907462
-2.35275e-05
0.00906804
0.00908444
-1.30348e-05
0.00919529
-1.54163e-05
0.00919892
-1.72489e-05
0.00920503
-3.05225e-05
0.00923065
-3.40858e-05
0.00924837
-3.10114e-05
0.00926288
-2.98918e-05
0.0092671
-3.17019e-05
0.00927701
-3.36494e-05
0.00929389
-3.58084e-05
0.00930537
-3.61973e-05
0.00928684
-3.66087e-05
0.00891815
-3.59759e-05
0.00896519
-3.54908e-05
0.00923037
-3.50993e-05
0.00921473
-3.41247e-05
0.00918997
-3.33585e-05
0.0091566
-3.19423e-05
0.00913115
-3.08719e-05
0.00910926
-2.92957e-05
0.00909398
-2.77489e-05
0.00908042
-2.52936e-05
0.00907217
-2.3302e-05
0.00906605
0.00907564
-1.33804e-05
0.00919661
-1.52634e-05
0.0092008
-1.69159e-05
0.00920668
-2.72663e-05
0.009241
-3.26678e-05
0.00925377
-3.17646e-05
0.00926198
-3.0004e-05
0.00926534
-3.20932e-05
0.0092791
-3.40828e-05
0.00929588
-3.66814e-05
0.00930797
-3.74723e-05
0.00928763
-3.73626e-05
0.00891804
-3.65531e-05
0.00896438
-3.56416e-05
0.00922946
-3.51043e-05
0.00921419
-3.38013e-05
0.00918867
-3.31595e-05
0.00915596
-3.19805e-05
0.00912997
-3.05372e-05
0.00910782
-2.87953e-05
0.00909224
-2.68625e-05
0.00907848
-2.52476e-05
0.00907055
-2.27995e-05
0.0090636
0.00906666
-1.40973e-05
-1.60084e-05
-1.69822e-05
-2.2419e-05
-2.56272e-05
-3.1972e-05
-3.01173e-05
-3.2416e-05
-3.43894e-05
-3.76974e-05
-3.92815e-05
-3.84024e-05
-3.74319e-05
-3.58988e-05
-3.51334e-05
-3.36074e-05
-3.3056e-05
-3.11608e-05
-3.03569e-05
-2.84385e-05
-2.71227e-05
-2.43632e-05
-2.29529e-05
9.72952e-05
-0.000107144
-0.00121345
0.00128867
0.000130865
-0.001275
-7.10574e-05
-7.34832e-05
-0.00115524
-0.000163748
0.00117123
3.29466e-05
-3.48017e-05
-0.00126424
0.00134374
3.43299e-05
-0.00134186
-1.67398e-05
-1.94624e-05
0.0013006
-6.5425e-05
-6.75886e-05
-3.11518e-05
3.56711e-05
-0.00125438
0.00131229
-6.37798e-05
-0.00131973
3.664e-05
3.4585e-05
0.00134414
-9.29538e-06
-1.19701e-05
-6.58447e-05
7.27291e-05
-0.00120862
0.00123623
-0.000111525
-0.00124652
0.00012182
0.00130417
4.14372e-05
3.95844e-05
-6.43841e-05
6.99384e-05
-0.00115554
0.00115767
-0.000107935
-0.00116679
0.000117057
0.000123882
0.00122543
3.4912e-05
-4.93451e-05
-0.00113387
-1.07521e-05
0.000310411
-2.00987e-06
-0.000157125
-0.000140524
-2.76842e-05
-0.000135157
-0.000178198
0.00111442
-5.90156e-05
-0.00111364
5.82364e-05
0.000112052
0.00115014
9.69249e-05
-0.000107081
-0.00111091
-0.00104882
-5.21818e-06
0.00103631
0.000137434
-0.00114148
-0.000151192
-0.00111393
-5.69808e-05
0.00111998
9.58612e-05
-0.000114495
-0.00236734
0.00121863
-0.00120986
8.85245e-05
-0.00113318
9.30085e-05
0.00114362
0.000311466
0.000125221
-0.000615037
0.000312737
-6.64047e-05
-6.7983e-05
0.000115298
-0.000541196
-0.000125223
0.000551121
0.00011865
-0.00126953
0.00247545
0.0001279
-0.00245097
-0.000152383
-0.00237023
-0.00017547
0.00239692
4.48826e-05
-5.11311e-05
-0.00242435
0.00125851
-0.00125671
3.11504e-05
8.22023e-05
0.00122679
0.00125254
6.76224e-05
-7.33767e-05
-0.00124679
0.000640618
-2.34139e-05
-0.000638821
4.38586e-05
-2.22423e-05
-0.00062616
-6.60981e-05
6.35356e-05
0.000628722
0.000330055
8.89388e-06
-0.000338525
-4.23621e-07
-0.000332498
5.10106e-05
-5.61252e-05
0.000337612
3.20859e-05
-0.00133129
0.00253265
4.55793e-05
-0.00252577
-5.24635e-05
-0.000132397
0.00249693
-1.64055e-05
2.28162e-05
-0.00242978
0.00124543
-0.0012494
-2.71836e-05
2.27117e-05
0.00125974
0.00126449
-1.94631e-06
3.5949e-06
-0.00126613
0.000657071
7.07664e-06
-0.000658388
-7.16183e-06
1.40268e-06
-0.000655632
-8.64291e-06
1.49698e-05
0.000655473
-6.16818e-06
0.000308827
-1.04234e-06
-0.000308329
5.44404e-07
-0.000309434
-6.53514e-07
0.00030984
2.4741e-07
-5.66048e-05
-0.0013141
0.00251259
-4.79194e-05
-0.00252402
5.93528e-05
-2.28581e-05
0.00253465
-5.79682e-05
7.05545e-05
-0.00239282
0.00120157
-0.00120793
-5.94871e-05
-3.30823e-05
0.00124113
0.00122799
-5.27865e-05
5.88231e-05
-0.00123403
4.12347e-05
0.00062089
-0.000622907
-3.92181e-05
-0.000637052
1.54616e-05
-2.85664e-05
0.000634121
1.60355e-05
0.000340682
-4.43391e-05
-0.000349274
5.29304e-05
-0.000322353
-1.04835e-05
2.94158e-06
0.000329894
-0.000101596
-0.00124578
0.00244213
-0.000107296
-0.00246231
0.000127472
8.22216e-05
0.00249828
0.000588785
-8.05861e-05
-0.000591694
4.20781e-05
4.14176e-05
-0.000308451
-4.01286e-05
4.10365e-05
0.000307543
-9.9582e-05
-0.00117236
0.0023637
-0.000119387
-0.00238209
0.000137776
0.000136278
0.00242201
0.000540108
-5.89019e-05
-0.000542409
6.12028e-05
-0.000562633
-7.2945e-05
7.60651e-05
0.000559513
-1.92847e-05
1.1489e-05
-0.00225088
-2.0703e-05
0.000866165
-0.000838889
-6.57302e-06
5.06728e-07
0.000320809
-4.32588e-05
-0.000913588
-7.60649e-05
0.00227487
-0.00228355
8.47456e-05
3.67006e-05
0.00111837
-6.73579e-05
-0.000624693
6.58914e-05
-8.99005e-05
-0.00059445
8.42588e-05
0.000600092
-0.00117743
0.000111231
0.00119021
-0.000124018
-0.000595418
0.000601922
-4.85533e-05
-4.78513e-05
0.000627221
-0.000628528
-3.32982e-05
-3.27522e-05
8.42369e-05
-0.000533367
0.00054037
-9.12393e-05
9.1807e-05
-9.76824e-05
-0.000589542
4.52875e-05
-0.000334628
-4.31568e-05
6.2299e-05
-6.41121e-05
0.000313279
-0.00122702
0.000152609
-0.00016963
0.00124405
-0.000620378
-6.147e-05
0.000628081
0.000116066
0.000333995
4.53859e-05
-0.000334094
-7.41499e-06
-0.000655929
1.79506e-05
-1.0238e-05
-2.37092e-05
4.26807e-05
0.000646306
-2.46595e-05
5.91239e-05
0.00125746
-6.40406e-05
-0.000318626
0.000321418
-2.65017e-05
0.000333705
-7.92051e-06
-0.0003332
0.000315564
0.000315808
-3.38624e-05
-3.63873e-05
-2.39357e-05
-0.000318104
-2.34191e-06
-0.000311195
4.10314e-06
1.5252e-05
-4.87655e-06
0.000319679
-0.00132727
7.38124e-05
0.00133358
-3.87781e-05
-4.13465e-05
-0.000334168
0.000327591
2.18283e-05
0.00033902
4.27337e-07
-0.00034179
0.000337754
4.72519e-05
1.65406e-05
-0.000341814
8.65311e-05
-0.00131985
-4.56821e-05
-4.82626e-05
1.56628e-05
-0.000639837
-2.65478e-05
1.36704e-05
6.1956e-06
-1.17445e-05
0.000651334
1.12857e-05
-9.78524e-06
0.00126167
1.25973e-05
-0.000338911
0.000334929
1.01779e-05
0.000320931
1.71777e-05
-0.000322446
0.000332577
-7.51496e-06
6.38629e-06
-0.000338221
-1.6993e-05
-0.000313302
7.94269e-06
-1.77135e-06
0.000309026
1.57251e-06
-0.00133694
-3.1072e-05
0.00133213
1.9064e-05
1.68236e-05
-0.000338261
0.000339951
-3.46076e-06
0.000327498
-2.25818e-05
-0.000321909
0.000337615
7.51836e-07
-2.95604e-06
-0.000336348
-1.87516e-05
-0.00134061
1.23647e-05
1.00499e-05
-0.000619267
-4.22652e-05
0.000618348
2.07497e-05
2.24348e-05
0.000601445
-4.99327e-05
5.19763e-05
-0.000603489
0.000318481
1.7911e-05
-0.000620469
2.12439e-05
2.11925e-05
-4.157e-05
-0.000310426
4.3545e-05
-4.82673e-05
6.09264e-05
0.000328023
-0.0012765
-9.97757e-05
0.00126656
5.52088e-05
5.45129e-05
-0.000335535
0.000328328
-4.10603e-05
0.000616483
4.10751e-05
-7.73384e-05
-0.00062179
0.000334144
-1.71301e-05
-3.92969e-05
-0.000340578
-9.45436e-05
-0.00128615
5.27018e-05
5.14935e-05
-0.000579423
-4.92942e-05
0.000577387
5.13304e-05
0.00056529
-4.46891e-05
4.64729e-05
-0.000567074
-5.09769e-05
0.00059991
5.25118e-05
-5.00654e-05
5.25083e-05
-0.000581866
-7.37723e-05
-0.000566164
7.73035e-05