/*--------------------------------*- C++ -*----------------------------------*\
| =========                 |                                                 |
| \\      /  F ield         | OpenFOAM: The Open Source CFD Toolbox           |
|  \\    /   O peration     | Version:  5.x                                   |
|   \\  /    A nd           | Web:      www.OpenFOAM.org                      |
|    \\/     M anipulation  |                                                 |
\*---------------------------------------------------------------------------*/
FoamFile
{
    version     2.0;
    format      ascii;
    class       volScalarField;
    location    "500";
    object      pSat;
}
// * * * * * * * * * * * * * * * * * * * * * * * * * * * * * * * * * * * * * //

dimensions      [0 2 -2 0 0 0 0];

internalField   nonuniform List<scalar> 
6584
(
697.948
697.948
697.948
697.948
697.948
697.948
697.948
697.948
697.948
697.948
697.948
697.948
697.948
697.948
697.948
697.948
697.948
697.948
697.948
697.948
697.948
697.948
697.948
697.948
697.948
697.948
697.948
697.948
697.948
697.948
697.948
697.948
697.948
697.948
697.948
697.948
697.948
697.948
697.948
697.948
697.948
697.948
697.948
697.948
697.948
697.948
697.948
697.948
697.948
697.948
697.948
697.948
697.948
697.948
697.948
697.948
697.948
697.948
697.948
697.948
697.948
697.948
697.948
697.948
697.948
697.948
697.948
697.948
697.948
697.948
697.948
697.948
697.948
697.948
697.948
697.948
697.948
697.948
697.948
697.948
697.948
697.948
697.948
697.948
697.948
697.948
697.948
697.948
697.948
697.948
697.948
697.948
697.948
697.948
697.948
697.948
697.948
697.948
697.948
697.948
697.948
697.948
697.948
697.948
697.948
697.948
697.948
697.948
697.948
697.948
697.948
697.948
697.948
697.948
697.948
697.948
697.948
697.948
697.948
697.948
697.948
697.948
697.948
697.948
697.948
697.948
697.948
697.948
697.948
697.948
697.948
697.948
697.948
697.948
697.948
697.948
697.948
697.948
697.948
697.948
697.948
697.948
697.948
697.948
697.948
697.948
697.948
697.948
697.948
697.948
697.948
697.948
697.948
697.948
697.948
697.948
697.948
697.948
697.948
697.948
697.948
697.948
697.948
697.948
697.948
697.948
697.948
697.948
697.948
697.948
697.948
697.948
697.948
697.948
697.948
697.948
697.948
697.948
697.948
697.948
697.948
697.948
697.948
697.948
697.948
697.948
697.948
697.948
697.948
697.948
697.948
697.948
697.948
697.948
697.948
697.948
697.948
697.948
697.948
697.948
697.948
697.948
697.948
697.948
697.948
697.948
697.948
697.948
697.948
697.948
697.948
697.948
697.948
697.948
697.948
697.948
697.948
697.948
697.948
697.948
697.948
697.948
697.948
697.948
697.948
697.948
697.948
697.948
697.948
697.948
697.948
697.948
697.948
697.948
697.948
697.948
697.948
697.948
697.948
697.948
697.948
697.948
697.948
697.948
697.948
697.948
697.948
697.948
697.948
697.948
697.948
697.948
697.948
697.948
697.948
697.948
697.948
697.948
697.948
697.948
697.948
697.948
697.948
697.948
697.948
697.948
697.948
697.948
697.948
697.948
697.948
697.948
697.948
697.948
697.948
697.948
697.948
697.948
697.948
697.948
697.948
697.948
697.948
697.948
697.948
697.948
697.948
697.948
697.948
697.948
697.948
697.948
697.948
697.948
697.948
697.948
697.948
697.948
697.948
697.948
697.948
697.948
697.948
697.948
697.948
697.948
697.948
697.948
697.948
697.948
697.948
697.948
697.948
697.948
697.948
697.948
697.948
697.948
551.466
697.948
697.948
697.948
697.948
697.948
697.948
697.948
697.948
697.948
697.948
697.948
697.948
697.948
697.948
697.948
697.948
697.948
697.948
697.948
697.948
697.948
697.948
697.947
658.09
697.948
697.948
697.948
697.948
697.948
697.948
697.948
697.948
697.948
697.948
697.948
697.948
697.948
697.948
697.948
697.948
697.948
697.948
697.948
697.948
697.948
697.948
697.945
661.154
697.948
697.948
697.948
697.948
697.948
697.948
697.948
697.948
697.948
697.948
697.948
697.948
697.948
697.948
697.948
697.948
697.948
697.948
697.948
697.948
697.948
697.948
697.305
680.358
697.948
697.948
697.948
697.948
697.948
697.948
697.948
697.948
697.948
697.948
697.948
697.948
697.948
697.948
697.948
697.948
697.948
697.948
697.948
697.948
697.948
697.948
696.93
680.783
697.948
697.948
697.948
697.948
697.948
697.948
697.948
697.948
697.948
697.948
697.948
697.948
697.948
697.948
697.948
697.948
697.948
697.948
697.948
697.948
697.948
697.838
674.986
689.662
697.947
697.948
697.948
697.948
697.948
697.948
697.948
697.948
697.948
697.948
697.948
697.948
697.948
697.948
697.948
697.948
697.948
697.948
697.948
697.948
697.947
697.74
675.073
689.721
697.946
697.948
697.948
697.948
697.948
697.948
697.948
697.948
697.948
697.948
697.948
697.948
697.948
697.948
697.948
697.948
697.948
697.948
697.948
697.948
697.946
697.646
675.152
689.771
697.945
697.948
697.948
697.948
697.948
697.948
697.948
697.948
697.948
697.948
697.948
697.948
697.948
697.948
697.948
697.948
697.948
697.948
697.948
697.948
697.945
697.555
675.224
689.815
697.944
697.948
697.948
697.948
697.948
697.948
697.948
697.948
697.948
697.948
697.948
697.948
697.948
697.948
697.948
697.948
697.948
697.948
697.948
697.948
697.943
697.467
675.291
689.854
697.943
697.948
697.948
697.948
697.948
697.948
697.948
697.948
697.948
697.948
697.948
697.948
697.948
697.948
697.948
697.948
697.948
697.948
697.948
697.948
697.941
697.383
675.354
689.889
697.942
697.948
697.948
697.948
697.948
697.948
697.948
697.948
697.948
697.948
697.948
697.948
697.948
697.948
697.948
697.948
697.948
697.948
697.948
697.948
697.939
697.303
675.412
689.922
697.941
697.948
697.948
697.948
697.948
697.948
697.948
697.948
697.948
697.948
697.948
697.948
697.948
697.948
697.948
697.948
697.948
697.948
697.948
697.948
697.936
697.216
675.473
689.954
697.94
697.948
697.948
697.948
697.948
697.948
697.948
697.948
697.948
697.948
697.948
697.948
697.948
697.948
697.948
697.948
697.948
697.948
697.948
697.948
697.933
697.125
675.538
689.988
697.939
697.948
697.948
697.948
697.948
697.948
697.948
697.948
697.948
697.948
697.948
697.948
697.948
697.948
697.948
697.948
697.948
697.948
697.948
697.948
697.929
697.035
675.6
690.021
697.938
697.948
697.948
697.948
697.948
697.948
697.948
697.948
697.948
697.948
697.948
697.948
697.948
697.948
697.948
697.948
697.948
697.948
697.948
697.948
697.926
696.949
675.661
690.053
697.937
697.948
697.948
697.948
697.948
697.948
697.948
697.948
697.948
697.948
697.948
697.948
697.948
697.948
697.948
697.948
697.948
697.948
697.948
697.948
697.921
696.864
675.72
690.084
697.936
697.948
697.948
697.948
697.948
697.948
697.948
697.948
697.948
697.948
697.948
697.948
697.948
697.948
697.948
697.948
697.948
697.948
697.948
697.948
697.917
696.78
675.778
690.114
697.936
697.948
697.948
697.948
697.948
697.948
697.948
697.948
697.948
697.948
697.948
697.948
697.948
697.948
697.948
697.948
697.948
697.948
697.948
697.948
697.912
696.697
675.835
690.143
697.935
697.948
697.948
697.948
697.948
697.948
697.948
697.948
697.948
697.948
697.948
697.948
697.948
697.948
697.948
697.948
697.948
697.948
697.948
697.948
697.907
696.614
675.891
690.172
697.934
697.948
697.948
697.948
697.948
697.948
697.948
697.948
697.948
697.948
697.948
697.948
697.948
697.948
697.948
697.948
697.948
697.948
697.948
697.947
697.902
696.531
675.948
690.201
697.933
697.948
697.948
697.948
697.948
697.948
697.948
697.948
697.948
697.948
697.948
697.948
697.948
697.948
697.948
697.948
697.948
697.948
697.948
697.947
697.896
696.445
676.005
690.231
697.932
697.948
697.948
697.948
697.948
697.948
697.948
697.948
697.948
697.948
697.948
697.948
697.948
697.948
697.948
697.948
697.948
697.948
697.948
697.947
697.89
696.356
676.064
690.261
697.931
697.948
697.948
697.948
697.948
697.948
697.948
697.948
697.948
697.948
697.948
697.948
697.948
697.948
697.948
697.948
697.948
697.948
697.948
697.948
697.948
697.948
697.948
697.948
697.948
697.948
697.948
531.054
545.63
697.948
697.948
697.948
697.948
697.948
697.948
697.948
697.948
697.948
697.948
697.948
697.948
697.948
697.948
697.948
697.948
697.948
697.948
697.677
697.896
697.527
697.891
697.948
697.948
697.948
697.948
697.948
697.948
697.948
696.717
696.922
693.357
695.433
697.948
697.948
697.948
697.948
697.948
697.948
697.948
697.125
696.903
696.748
694.734
697.948
697.948
697.948
697.729
697.668
697.948
697.948
697.948
697.895
697.854
697.947
571.035
531.947
626.443
697.948
697.948
697.914
697.948
697.948
697.946
697.802
697.948
697.947
697.902
697.948
697.948
697.948
697.931
696.993
697.609
697.948
696.823
694.203
697.735
696.948
695.557
697.511
697.948
697.729
697.257
697.926
697.74
697.948
696.872
696.727
697.948
693.319
694.536
694.078
693.271
694.649
693.226
697.948
697.135
697.35
697.252
697.143
697.948
694.06
695.313
694.633
693.859
697.645
696.861
697.948
697.684
697.856
697.362
697.665
697.948
696.431
696.929
695.467
696.337
697.845
697.75
697.863
697.901
697.948
697.32
696.973
696.989
697.29
697.912
697.899
697.948
697.948
697.948
697.931
697.948
697.948
697.948
697.948
697.948
697.583
697.411
691.834
688.469
697.948
697.948
697.948
697.948
697.93
697.948
697.948
697.948
697.382
697.158
697.948
502.2
528.351
626.439
643.668
530.059
566.813
687.81
681.538
697.948
697.905
697.924
645.848
657.245
697.926
697.935
697.948
697.948
697.948
697.948
697.948
697.948
697.948
697.923
697.948
697.937
697.948
697.94
697.948
697.658
697.754
694.465
694.583
696.054
695.827
697.655
681.896
697.783
694.349
692.208
692.63
694.557
697.875
694.344
697.93
687.456
696.707
685.497
697.914
696.975
697.929
697.948
697.873
695.321
697.938
697.94
695.384
695.219
697.529
697.474
696.341
696.45
697.285
697.943
697.945
697.942
697.943
697.283
697.859
697.947
697.948
697.946
697.947
697.828
693.885
693.954
693.405
693.338
691.829
692.001
697.082
697.942
697.941
697.943
697.942
697.082
697.206
697.941
697.941
697.941
697.941
697.2
504.389
694.638
532.026
503.622
569.222
533.922
694.813
693.021
506.301
693.225
697.405
697.352
697.506
697.944
697.943
697.945
697.944
697.537
603.13
622.968
695.887
604.627
572.058
631.772
608.433
696.012
570.815
600.081
697.813
688.805
692.256
682.682
688.106
697.799
679.978
658.063
662.044
549.56
658.559
656.501
579.34
694.305
694.548
697.946
697.948
697.948
697.948
697.948
697.826
697.806
616.422
697.707
697.859
697.947
697.708
697.602
697.948
527.912
532.722
519.342
658.383
658.37
538.692
550.066
693.032
694.23
479.262
697.948
697.948
697.948
697.948
697.948
697.948
697.803
697.946
697.944
697.536
697.38
697.832
696.741
697.929
697.929
697.932
697.929
696.768
693.849
695.08
696.457
694.945
664.98
658.776
697.881
694.76
696.084
695.839
695.897
564.522
697.948
697.943
697.948
697.918
697.617
697.451
697.946
697.948
697.948
697.948
697.948
697.945
697.243
697.937
697.933
697.943
697.939
697.331
696.197
670.266
686.114
657.731
660.822
694.611
687.736
689.492
697.209
695.895
696.803
697.472
697.91
697.913
697.883
697.888
697.271
697.929
697.929
696.775
693.6
648.329
638.935
693.745
653.205
656.819
637.301
639.705
693.19
693.555
692.515
697.108
697.887
697.884
697.879
697.901
697.247
697.234
697.88
697.882
697.883
697.88
697.168
697.558
692.334
693.543
690.666
689.879
697.103
697.82
697.945
697.945
697.946
697.946
697.83
696.674
649.043
634.266
665.654
660.545
696.744
583.457
589.476
697.14
671.567
667.28
576.129
581.668
672.489
666.583
697.945
697.947
697.947
659.174
690.602
663.483
666.343
665.606
690.17
697.948
697.938
697.948
697.911
697.947
505.093
513.611
531.517
528.891
634.493
547.9
544.101
558.637
549.147
636.741
539.627
546.572
685.5
684.444
651.463
574.514
563.808
551.648
558.039
697.903
697.945
697.948
697.931
697.943
697.886
697.543
697.821
693.974
694.957
696.384
695.072
683.297
694.14
693.26
695.061
694.415
683.029
691.238
690.385
692.983
691.711
693.596
675.369
678.91
668.872
673.598
693.281
655.367
657.659
691.965
697.617
697.305
697.89
697.706
693.148
695.273
694.597
697.055
695.567
697.766
697.942
697.912
697.646
697.413
697.833
697.657
697.923
697.692
697.879
697.924
697.732
697.859
697.945
697.906
697.845
664.949
667.882
695.957
642.961
631.42
672.751
645.542
614.867
604.71
627.877
619.185
694.761
661.897
664.173
686.158
683.275
694.244
688.603
679.662
676.169
682.746
680.554
697.281
689.888
690.96
696.011
696.743
697.898
697.906
697.363
697.274
697.89
697.895
650.293
649.931
693.684
590.246
589.615
552.846
585.684
584.991
596.846
588.65
585.704
647.91
651.996
693.647
588.818
578.951
602.187
591.922
561.081
551.4
575.237
565.354
693.216
641.622
646.322
692.808
692.373
697.892
697.888
697.1
697.183
697.899
697.894
697.879
697.879
697.227
697.176
697.88
697.879
507.118
515.872
651.936
658.559
643.44
649.612
506.046
554.807
667.577
657.565
660.396
665.858
547.442
616.72
619.967
604.056
615.517
514.127
635.31
641.746
621.858
631.932
513.82
691.253
692.033
697.525
687.957
689.51
689.987
687.891
689.519
697.163
689.432
690.607
611.006
527.218
529.932
541.219
527.615
613.866
531.764
582.122
530.421
586.918
685.527
695.789
695.259
696.415
695.965
685.999
677.571
678.551
592.118
598.636
562.095
573.837
676.453
673.837
697.948
697.948
697.948
697.948
697.94
697.942
697.948
697.948
697.948
697.948
697.948
697.948
697.948
697.948
697.948
697.948
697.947
697.833
697.53
696.817
696.722
693.496
695.312
697.931
697.933
696.992
692.182
691.841
694.797
693.813
694.437
697.726
697.941
697.948
697.948
696.462
696.901
697.849
697.938
697.917
697.946
697.704
694.261
696.263
695.669
696.622
696.516
697.451
697.634
697.635
697.262
697.919
697.923
697.756
696.795
697.93
697.931
653.567
649.436
694.254
694.501
692.665
692.498
693.096
697.127
697.638
697.636
697.246
697.632
697.633
697.634
697.632
697.151
692.639
660.054
655.704
697.395
697.886
697.882
697.883
697.947
697.946
541.219
541.677
676.141
672.845
697.183
540.692
540.892
696.209
696.498
697.908
697.935
697.924
500.565
505.168
506.516
526.039
531.965
502.652
503.799
532.217
527.202
561.531
676.252
675.122
682.519
583.938
576.65
653.036
697.948
697.948
697.948
697.898
697.921
697.938
697.943
697.86
697.877
697.948
697.948
697.947
697.278
697.231
697.591
697.793
697.633
697.547
694.24
694.702
693.247
693.538
696.205
695.545
692.023
692.668
684.513
684.645
688.317
687.814
681.881
684.962
685.339
697.742
694.683
695.355
693.446
689.597
694.96
694.332
697.469
697.217
696.124
679.095
676.834
692.738
688.255
681.924
697.947
697.945
697.847
697.811
697.551
697.683
696.085
697.765
697.834
691.304
693.117
697.671
673.927
671.272
696.234
696.556
697.937
697.94
697.894
697.764
697.928
697.932
694.176
649.037
649.786
691.846
692.121
697.627
697.628
697.213
697.192
697.628
697.627
506.478
529.645
575.485
578.659
543.031
545.364
501.015
663.117
660.853
692.828
513.73
510.286
531.56
532.017
509.095
540.963
541.901
507.374
507.881
697.893
697.889
697.413
697.596
697.899
697.896
588.667
664.907
667.239
660.014
662.453
583.161
690.408
696.13
696.538
696.454
696.301
690.939
683.854
689.635
688.96
678.279
676.684
680.323
552.105
554.372
556.133
540.493
662.058
597.221
587.34
606.213
599.711
654.837
649.641
650.31
679.851
682.787
695.039
697.945
697.945
697.936
527.352
528.5
593.089
593.083
513.738
544.592
536.392
535.256
536.402
536.565
547.974
480.784
674.21
676.246
697.948
697.948
697.948
696.999
696.909
697.532
697.201
697.497
697.694
697.404
697.459
693.707
695.194
690.374
690.818
690.903
690.388
694.861
691.61
691.449
663.611
652.884
652.768
654.926
654.442
661.86
697.567
697.782
697.79
697.755
697.775
697.512
695.78
697.275
696.397
696.094
697.267
697.637
697.639
692.67
692.765
694.199
692.733
697.642
697.64
697.117
697.63
697.631
697.24
697.16
697.631
697.63
690.672
692.234
691.602
692.77
692.567
690.499
542.332
543.538
540.967
540.68
578.059
555.629
554.219
654.037
654.245
670.695
658.036
660.568
653.504
655.381
668.597
697.941
697.937
697.943
697.934
697.946
697.947
697.948
697.942
697.945
697.941
662.572
678.009
677.125
680.454
679.188
663.541
669.463
673.816
671.995
676.409
675.48
667.869
697.942
697.946
697.944
697.839
697.749
697.93
697.914
500.638
521.806
507.309
506.411
530.794
529.886
568.764
571.198
545.728
504.01
502.242
534.841
517.495
518.324
515.592
554.479
518.739
510.394
677.052
678.691
686.421
672.465
672.963
671.185
671.527
683.412
674.64
675.321
553.192
535.961
536.169
537.055
536.143
555.142
697.929
697.933
697.914
697.84
697.888
697.922
696.87
697.557
697.164
697.085
697.266
697.338
697.098
697.188
694.104
694.827
691.425
691.555
691.017
691.227
696.306
693.695
693.807
691.382
691.561
695.274
691.501
685.899
684.875
682.417
687.389
686.843
690.888
685.928
685.787
687.56
686.621
690.637
692.654
688.303
688.827
686.384
687.388
692.217
685.441
670.439
682.449
681.568
654.303
655.42
691.366
695.496
695.232
690.786
694.151
696.531
695.912
682.872
680.866
690.47
690.923
694.838
687.174
685.048
696.844
697.183
697.734
697.388
696.419
695.038
696.335
697.802
697.877
697.892
697.806
697.836
697.685
697.509
697.642
697.891
697.826
697.801
697.896
697.843
697.906
697.764
697.767
697.674
697.785
639.833
635.398
665.055
631.768
635.667
623.533
647.804
611.039
607.661
624.752
622.043
684.694
671.271
674.328
665.102
668.096
683.865
693.58
688.228
689.723
676.123
684.71
691.999
668.81
664.017
678.741
645.4
648.535
639.921
642.628
677.707
682.195
659.961
662.393
652.005
655.821
681.414
696.128
696.658
591.279
556.056
560.754
546.614
551.114
590.537
561.308
563.335
563.097
574.238
586.528
522.699
527.085
530.035
522.908
590.438
587.694
538.759
542.506
531.578
535.375
586.746
586.18
583.192
599.59
595.503
557.269
553.809
572.014
569.263
692.164
692.242
697.22
697.628
697.629
697.629
697.628
697.183
507.835
564.339
570.94
525.092
500.843
549.786
556.61
521.069
517.29
617.67
557.816
558.447
609.949
552.619
541.823
558.644
557.26
613.55
529.557
525.132
534.317
538.923
512.028
513.594
524.368
691.6
694.581
694.341
694.934
694.763
691.817
688.495
689.251
689.248
687.818
687.826
688.441
689.409
693.244
692.969
694.008
693.614
689.905
528.108
545.919
547.814
543.274
544.582
529.119
535.904
560.72
565.377
550.922
555.491
530.57
530.681
520.178
522.576
518.8
519.286
530.924
538.388
541.485
527.062
532.708
530.237
690.653
690.215
684.92
677.372
679.656
546.094
550.195
566.658
544.801
540.004
552.456
549.664
570.767
541.415
541.336
650.999
651.918
697.948
697.948
697.948
697.948
697.948
697.948
697.948
697.948
697.948
697.948
697.948
697.948
697.948
697.948
697.948
697.948
697.948
697.948
697.948
697.948
697.948
697.948
697.948
697.948
697.948
697.948
697.948
697.948
697.948
697.948
697.948
697.948
697.948
697.948
697.948
697.948
697.948
697.948
697.948
697.948
697.948
697.948
697.948
697.948
697.948
697.948
697.948
697.948
697.948
697.948
697.948
697.948
697.948
697.948
697.948
697.948
697.948
697.948
697.948
697.948
697.948
697.948
697.948
697.948
697.948
697.948
697.948
697.948
697.948
697.948
697.948
697.948
697.948
697.948
697.948
697.948
697.948
697.948
697.948
697.948
697.948
697.948
697.948
697.948
697.948
697.946
697.946
697.948
697.948
697.948
697.948
697.948
697.948
697.948
697.948
697.948
697.948
697.948
697.948
697.948
697.946
697.946
697.948
697.948
697.948
697.948
697.948
697.948
697.948
697.948
697.948
697.948
697.947
697.947
697.948
697.948
697.948
697.948
697.948
697.948
697.948
697.948
697.948
697.948
697.948
697.948
697.948
697.948
697.948
697.948
697.948
697.948
697.948
697.948
697.948
697.948
697.773
697.77
568.873
690.58
691.301
697.948
697.948
697.948
697.948
697.948
697.948
697.948
697.948
697.948
697.948
697.948
697.948
697.946
611.034
608.584
660.457
697.948
697.948
697.948
697.948
697.948
697.948
697.948
697.948
697.948
697.947
697.948
697.536
651.086
611.753
680.119
697.939
697.948
697.948
697.948
697.948
697.948
697.948
697.948
697.948
697.948
697.948
697.948
697.948
697.948
697.946
697.947
697.948
697.948
697.947
697.946
697.948
697.948
697.948
697.946
697.946
697.948
697.948
697.946
697.947
697.946
697.946
697.948
697.947
697.946
697.948
697.948
697.948
697.948
697.947
697.947
697.948
697.948
697.948
697.948
697.948
697.948
697.948
697.769
697.831
697.948
513.085
583.369
584.249
643.837
644.028
481.948
697.948
697.948
697.948
697.948
697.948
697.948
697.948
697.948
697.947
697.948
697.948
697.948
697.948
697.948
697.948
697.948
697.948
697.948
697.948
697.948
697.948
697.948
697.948
697.948
697.948
697.948
697.948
697.948
697.948
697.948
697.946
697.941
697.948
697.948
697.948
697.948
697.948
697.948
697.948
697.948
697.948
697.948
697.948
697.948
697.948
697.948
697.948
697.948
697.948
697.948
697.948
697.948
697.948
697.948
697.948
697.948
697.727
697.887
697.873
697.937
697.931
697.879
697.827
697.759
697.87
697.948
697.948
697.948
697.948
697.948
697.948
697.948
697.948
697.948
697.948
697.948
697.948
697.948
697.948
697.948
697.948
697.948
697.948
697.946
697.946
697.948
696.714
697.639
697.639
697.685
697.669
696.86
697.948
697.948
697.948
697.948
697.948
697.948
697.948
697.948
697.948
697.948
697.948
697.948
697.948
697.948
697.948
697.948
697.948
697.948
697.946
697.946
697.948
697.025
697.933
697.935
697.682
697.689
696.932
696.636
694.292
694.609
697.948
697.948
697.948
697.948
697.948
697.948
697.948
697.948
697.948
697.707
696.168
696.534
697.101
697.166
697.689
697.948
697.948
697.948
697.948
697.948
697.948
697.948
697.948
697.948
697.891
697.723
697.739
697.572
697.604
697.862
697.85
697.773
697.947
566.1
695.899
695.836
658.805
659.607
535.844
697.733
697.713
619.097
697.948
697.932
697.94
697.942
697.932
697.948
697.926
697.944
697.941
697.948
697.948
697.944
697.948
697.948
697.948
697.944
697.875
697.934
697.948
697.948
697.948
697.942
697.946
697.948
697.908
697.863
697.853
697.947
697.946
697.947
697.948
697.948
697.948
697.948
697.948
697.948
697.945
697.946
697.939
697.072
697.724
697.704
697.856
697.836
697.519
697.948
697.947
697.948
696.658
694.884
695.364
689.258
689.499
694.331
695.674
695.891
697.047
697.948
697.947
697.948
697.705
697.828
697.841
697.901
697.942
697.944
697.848
697.853
697.746
697.948
697.948
697.948
696.844
697.668
697.675
697.641
697.644
696.742
697.948
697.946
697.946
693.417
687.296
687.064
689.683
689.45
694.435
693.962
688.804
689.029
686.907
686.817
693.212
697.946
697.946
697.948
697.741
697.732
697.331
697.948
697.946
697.946
694.259
676.078
673.252
687.311
686.662
695.153
694.729
690.153
689.923
672.365
669.296
693.653
697.619
696.945
697.029
694.946
695.227
696.96
697.947
697.948
697.948
697.73
697.911
697.908
697.924
697.923
697.848
697.372
697.755
697.748
697.905
697.902
697.612
697.948
697.947
697.947
696.518
692.274
691.92
693.946
693.711
696.872
695.614
688.535
687.932
691.537
691.123
696.237
697.836
697.495
697.535
696.64
696.915
697.768
697.87
697.928
697.926
697.947
697.947
697.888
697.948
697.948
697.948
697.389
679.385
677.082
676.297
678.642
697.372
697.043
694.37
694.165
697.91
696.544
696.604
697.948
697.948
697.948
697.948
697.948
697.948
697.948
697.948
697.948
697.948
697.948
697.948
697.948
697.948
697.948
697.948
697.948
697.948
697.947
697.947
697.948
697.517
697.927
697.929
697.925
697.926
697.492
691.432
686.685
687.396
681.857
683.008
689.109
697.948
697.948
697.948
697.948
697.948
697.948
697.891
697.922
697.94
697.948
697.948
697.948
697.948
697.948
697.948
697.948
697.948
697.948
697.29
697.937
697.923
697.935
697.937
697.257
697.948
697.946
697.946
629.422
599.594
596.768
615.687
612.484
641.33
687.151
679.748
680.726
697.948
697.948
697.948
697.915
697.948
697.947
697.947
697.948
697.918
647.915
622.006
618.915
635.882
633.767
655.896
697.931
697.947
697.947
697.947
697.947
697.932
697.948
697.948
697.948
697.948
697.948
697.948
697.948
697.948
697.948
697.948
697.948
697.948
697.948
697.948
697.948
697.948
697.948
697.948
697.948
697.948
697.948
697.948
697.947
697.948
697.948
697.948
697.948
697.945
697.946
697.943
697.948
697.948
697.948
695.527
696.02
697.682
697.771
697.428
697.469
694.128
691.04
691.415
688.05
688.617
692.544
693.597
696.714
696.592
696.921
696.824
693.859
697.869
697.634
697.66
697.699
697.841
697.939
697.886
697.063
697.606
697.202
697.701
697.596
697.943
697.937
697.907
697.948
697.948
697.948
697.923
697.915
697.934
697.942
697.933
697.928
691.444
691.786
695.555
695.064
690.849
691.136
696.925
697.064
697.581
697.414
696.652
696.789
697.656
697.664
697.292
697.944
697.934
697.932
697.938
697.936
697.945
697.942
697.928
697.927
697.931
697.929
697.942
697.28
697.647
697.651
697.909
697.916
697.876
697.948
697.946
697.945
697.947
697.946
697.948
697.946
697.941
697.94
697.944
697.942
697.947
697.797
697.887
697.899
688.386
688.269
693.821
694.025
688.63
688.505
687.592
687.779
693.477
693.286
687.254
687.415
697.655
697.651
697.086
697.942
697.927
697.928
697.926
697.927
697.941
697.942
697.93
697.931
697.928
697.929
697.942
697.094
697.668
697.66
697.941
697.925
697.925
697.926
697.926
697.941
697.941
697.926
697.926
697.925
697.925
697.941
684.51
677.047
694.456
565.844
607.847
611.871
581.403
584.457
536.525
694.986
685.954
685.231
693.439
667.978
664.068
696.343
696.467
697.451
697.29
696.021
696.191
697.803
697.793
697.472
697.943
697.933
697.934
697.931
697.932
697.943
697.944
697.936
697.937
697.934
697.935
697.944
697.561
697.819
697.812
605.806
573.021
570.658
593.421
589.508
620.03
689.678
689.122
695.754
600.042
637.479
640.588
615.26
618.743
575.037
622.175
673.027
674.667
669.319
671.229
618.631
696.128
690.673
690.194
574.321
538.276
535.502
567.774
563.751
596.365
697.399
697.449
697.825
689.362
692.992
692.649
694.892
694.661
691.862
692.254
691.828
687.311
697.785
697.28
697.343
659.547
614.559
608.255
622.263
616.854
660.954
659.797
640.044
637.988
694.117
683.564
685.243
691.765
692.099
694.728
697.948
697.948
697.948
697.948
697.948
697.948
697.82
697.935
697.935
697.933
697.934
697.813
684.961
684.526
613.311
697.709
696.138
696.172
696.195
696.15
697.729
697.668
697.932
697.933
697.93
697.931
697.653
697.948
697.947
697.947
550.437
545.743
515.167
657.984
625.02
615.959
626.532
625.651
657.997
693.92
679.072
677.14
684.815
687.575
694.26
479.562
583.593
607.363
697.948
697.948
697.948
697.948
697.948
697.948
697.948
697.948
697.948
697.948
697.948
697.948
697.948
697.948
697.948
697.948
697.948
697.948
697.909
697.899
697.768
697.946
697.936
697.939
697.929
697.933
697.945
697.848
697.711
697.685
697.641
697.639
696.722
697.929
697.87
697.87
697.87
697.869
697.929
697.931
697.877
697.881
697.871
697.874
697.93
696.808
697.656
697.646
693.918
694.064
696.538
697.683
697.704
697.886
695.792
697.085
697.008
697.215
697.154
695.945
695.869
683.015
676.629
683.2
683.139
695.887
562.868
644.01
643.468
697.948
697.948
697.948
697.948
697.948
697.948
697.948
697.948
697.948
697.877
697.87
697.913
697.948
697.948
697.947
697.948
697.948
697.948
697.948
697.948
697.948
697.948
697.948
697.947
697.948
697.948
697.948
697.942
697.947
697.947
697.769
697.746
697.156
697.936
697.897
697.903
697.886
697.891
697.934
697.941
697.92
697.925
697.909
697.914
697.94
697.422
697.814
697.791
693.377
694.169
696.442
675.053
688.484
686.169
692.277
690.876
682.317
658.696
679.286
678.862
680.206
679.736
659.733
694.469
689.755
690.022
688.54
693.421
692.996
693.99
693.728
689.063
697.132
696.065
696.221
697.757
697.804
697.636
697.912
697.901
697.886
697.885
697.815
697.813
697.82
697.818
697.886
697.929
697.871
697.87
697.872
697.871
697.929
696.758
697.648
697.652
687.799
687.555
693.506
645.455
674.649
675.458
672.919
673.724
641.932
688.363
688.578
693.848
654.502
677.556
677.086
678.453
678.027
655.816
636.861
672.186
672.406
672.628
672.209
638.001
693.211
686.793
686.835
697.886
697.814
697.816
697.811
697.813
697.885
697.844
697.848
697.903
697.299
697.719
697.706
697.88
697.808
697.807
697.811
697.809
697.881
697.882
697.809
697.81
697.807
697.808
697.881
696.76
696.854
697.59
692.74
695.333
695.123
695.737
695.545
693.174
697.039
695.425
695.57
697.916
697.914
697.81
697.945
697.939
697.939
697.937
697.938
697.945
697.946
697.941
697.941
697.94
697.94
697.946
697.839
697.921
697.918
692.91
692.602
696.599
642.886
678.769
679.943
676.15
677.509
640.787
663.979
682.925
683.801
681.007
681.998
662.291
696.81
693.461
693.194
585.291
561.272
559.802
564.992
562.913
587.245
694.739
694.561
697.094
670.222
686.088
686.742
684.624
685.382
668.798
558.393
557.004
579.876
697.948
697.947
697.946
685.346
685.986
691.019
689.683
683.988
684.722
697.947
697.948
697.948
697.948
697.948
697.947
697.944
697.936
697.942
604.495
602.09
632.033
546.862
573.167
575.028
554.123
582.645
586.496
577.042
579.499
551.03
639.099
609.576
606.921
627.25
624.78
649.789
571.949
597.828
600.588
590.632
594.528
568.476
697.946
697.942
697.94
697.946
697.944
697.947
697.935
697.916
697.909
697.936
697.926
697.94
697.672
697.66
697.81
693.838
690.276
690.889
689.229
689.692
693.538
694.86
692.148
692.488
691.415
691.813
694.65
690.161
690.627
693.88
676.872
685.671
684.914
686.877
686.309
677.982
684.085
683.255
671.887
692.925
689.144
689.663
697.532
696.851
697.01
696.41
696.687
697.439
697.856
697.677
697.775
697.215
697.466
697.792
695.047
691.261
691.614
696.544
694.108
695.747
692.094
692.893
695.993
697.888
697.806
697.462
697.937
697.908
697.93
697.831
697.874
697.927
697.929
697.902
697.887
697.941
697.937
697.944
697.879
697.92
697.929
697.901
697.91
697.859
665.773
682.972
682.434
684.603
683.644
666.692
695.746
692.19
692.702
690.298
690.571
694.909
662.713
681.109
680.676
681.962
681.527
663.433
696.369
696.513
697.349
690.268
694.474
694.235
694.936
694.707
690.628
697.9
697.847
697.84
697.869
697.856
697.903
697.312
697.68
697.71
697.642
697.645
697.278
697.891
697.827
697.824
697.835
697.831
697.893
650.717
676.568
676.735
676.02
676.355
650.595
693.753
688.144
687.996
649.539
675.73
675.211
676.637
676.199
650.848
693.561
687.968
688.16
686.958
687.103
693.237
643.4
673.709
673.168
674.695
674.202
644.845
697.891
697.822
697.824
697.818
697.82
697.889
697.092
697.648
697.645
697.692
697.678
697.127
697.897
697.834
697.839
697.827
697.83
697.895
697.879
697.805
697.805
697.806
697.806
697.879
697.879
697.806
697.806
697.805
697.805
697.879
654.131
616.495
612.296
622.791
619.94
656.478
645.264
599.854
597.278
607.671
603.323
647.327
598.045
602.691
561.188