/*--------------------------------*- C++ -*----------------------------------*\
| =========                 |                                                 |
| \\      /  F ield         | OpenFOAM: The Open Source CFD Toolbox           |
|  \\    /   O peration     | Version:  5.x                                   |
|   \\  /    A nd           | Web:      www.OpenFOAM.org                      |
|    \\/     M anipulation  |                                                 |
\*---------------------------------------------------------------------------*/
FoamFile
{
    version     2.0;
    format      ascii;
    class       volScalarField;
    location    "500";
    object      T;
}
// * * * * * * * * * * * * * * * * * * * * * * * * * * * * * * * * * * * * * //

dimensions      [0 0 0 1 0 0 0];

internalField   nonuniform List<scalar> 
6584
(
275
275
275
275
275
275
275
275
275
275
275
275
275
275
275
275
275
275
275
275
275
275
275
275
275
275
275
275
275
275
275
275
275
275
275
275
275
275
275
275
275
275
275
275
275
275
275
275
275
275
275
275
275
275
275
275
275
275
275
275
275
275
275
275
275
275
275
275
275
275
275
275
275
275
275
275
275
275
275
275
275
275
275
275
275
275
275
275
275
275
275
275
275
275
275
275
275
275
275
275
275
275
275
275
275
275
275
275
275
275
275
275
275
275
275
275
275
275
275
275
275
275
275
275
275
275
275
275
275
275
275
275
275
275
275
275
275
275
275
275
275
275
275
275
275
275
275
275
275
275
275
275
275
275
275
275
275
275
275
275
275
275
275
275
275
275
275
275
275
275
275
275
275
275
275
275
275
275
275
275
275
275
275
275
275
275
275
275
275
275
275
275
275
275
275
275
275
275
275
275
275
275
275
275
275
275
275
275
275
275
275
275
275
275
275
275
275
275
275
275
275
275
275
275
275
275
275
275
275
275
275
275
275
275
275
275
275
275
275
275
275
275
275
275
275
275
275
275
275
275
275
275
275
275
275
275
275
275
275
275
275
275
275
275
275
275
275
275
275
275
275
275
275
275
275
275
275
275
275
275
275
275
275
275
275
275
275
275
275
275
275
275
275
275
275
275
275
275
275
275
275
275
275
275
275
275
275
275
275
275
275
275
275
275
275
275
275
275
271.746
275
275
275
275
275
275
275
275
275
275
275
275
275
275
275
275
275
275
275
275
275
275
275
274.179
275
275
275
275
275
275
275
275
275
275
275
275
275
275
275
275
275
275
275
275
275
275
275
274.244
275
275
275
275
275
275
275
275
275
275
275
275
275
275
275
275
275
275
275
275
275
275
274.987
274.643
275
275
275
275
275
275
275
275
275
275
275
275
275
275
275
275
275
275
275
275
275
275
274.98
274.652
275
275
275
275
275
275
275
275
275
275
275
275
275
275
275
275
275
275
275
275
275
274.998
274.533
274.833
275
275
275
275
275
275
275
275
275
275
275
275
275
275
275
275
275
275
275
275
275
274.996
274.534
274.834
275
275
275
275
275
275
275
275
275
275
275
275
275
275
275
275
275
275
275
275
275
274.994
274.536
274.835
275
275
275
275
275
275
275
275
275
275
275
275
275
275
275
275
275
275
275
275
275
274.992
274.537
274.836
275
275
275
275
275
275
275
275
275
275
275
275
275
275
275
275
275
275
275
275
275
274.99
274.539
274.837
275
275
275
275
275
275
275
275
275
275
275
275
275
275
275
275
275
275
275
275
275
274.989
274.54
274.838
275
275
275
275
275
275
275
275
275
275
275
275
275
275
275
275
275
275
275
275
275
274.987
274.541
274.838
275
275
275
275
275
275
275
275
275
275
275
275
275
275
275
275
275
275
275
275
275
274.985
274.543
274.839
275
275
275
275
275
275
275
275
275
275
275
275
275
275
275
275
275
275
275
275
275
274.983
274.544
274.84
275
275
275
275
275
275
275
275
275
275
275
275
275
275
275
275
275
275
275
275
275
274.982
274.545
274.84
275
275
275
275
275
275
275
275
275
275
275
275
275
275
275
275
275
275
275
275
275
274.98
274.546
274.841
275
275
275
275
275
275
275
275
275
275
275
275
275
275
275
275
275
275
275
275
274.999
274.978
274.548
274.841
275
275
275
275
275
275
275
275
275
275
275
275
275
275
275
275
275
275
275
275
274.999
274.977
274.549
274.842
275
275
275
275
275
275
275
275
275
275
275
275
275
275
275
275
275
275
275
275
274.999
274.975
274.55
274.843
275
275
275
275
275
275
275
275
275
275
275
275
275
275
275
275
275
275
275
275
274.999
274.973
274.551
274.843
275
275
275
275
275
275
275
275
275
275
275
275
275
275
275
275
275
275
275
275
274.999
274.972
274.552
274.844
275
275
275
275
275
275
275
275
275
275
275
275
275
275
275
275
275
275
275
275
274.999
274.97
274.554
274.844
275
275
275
275
275
275
275
275
275
275
275
275
275
275
275
275
275
275
275
275
274.999
274.968
274.555
274.845
275
275
275
275
275
275
275
275
275
275
275
275
275
275
275
275
275
275
275
275
275
275
275
275
275
275
275
271.233
271.601
275
275
275
275
275
275
275
275
275
275
275
275
275
275
275
275
275
275
274.995
274.999
274.992
274.999
275
275
275
275
275
275
275
274.975
274.979
274.908
274.949
275
275
275
275
275
275
275
274.983
274.979
274.976
274.935
275
275
275
274.996
274.994
275
275
275
274.999
274.998
275
272.222
271.256
273.496
275
275
274.999
275
275
275
274.997
275
275
274.999
275
275
275
275
274.981
274.993
275
274.977
274.925
274.996
274.98
274.952
274.991
275
274.996
274.986
275
274.996
275
274.978
274.975
275
274.907
274.931
274.922
274.906
274.934
274.905
275
274.984
274.988
274.986
274.984
275
274.922
274.947
274.933
274.918
274.994
274.978
275
274.995
274.998
274.988
274.994
275
274.97
274.98
274.95
274.968
274.998
274.996
274.998
274.999
275
274.987
274.98
274.981
274.987
274.999
274.999
275
275
275
275
275
275
275
275
275
274.993
274.989
274.877
274.809
275
275
275
275
275
275
275
275
274.989
274.984
275
270.477
271.164
273.496
273.872
271.207
272.121
274.795
274.667
275
274.999
275
273.919
274.162
275
275
275
275
275
275
275
275
275
274.999
275
275
275
275
275
274.994
274.996
274.93
274.932
274.962
274.957
274.994
274.675
274.997
274.928
274.884
274.893
274.932
274.999
274.928
275
274.788
274.975
274.748
274.999
274.98
275
275
274.998
274.947
275
275
274.948
274.945
274.992
274.99
274.968
274.97
274.987
275
275
275
275
274.987
274.998
275
275
275
275
274.998
274.918
274.92
274.909
274.907
274.877
274.88
274.983
275
275
275
275
274.983
274.985
275
275
275
275
274.985
270.536
274.933
271.258
270.515
272.179
271.306
274.937
274.901
270.587
274.905
274.989
274.988
274.991
275
275
275
275
274.992
272.973
273.419
274.959
273.007
272.247
273.613
273.093
274.961
272.217
272.903
274.997
274.816
274.885
274.691
274.801
274.997
274.635
274.179
274.263
271.699
274.189
274.146
272.42
274.927
274.932
275
275
275
275
275
274.998
274.997
273.273
274.995
274.998
275
274.995
274.993
275
271.152
271.275
270.931
274.186
274.185
271.427
271.711
274.901
274.925
269.848
275
275
275
275
275
275
274.997
275
275
274.992
274.989
274.998
274.976
275
275
275
275
274.976
274.918
274.942
274.97
274.94
274.324
274.194
274.999
274.936
274.963
274.958
274.959
272.065
275
275
275
274.999
274.993
274.99
275
275
275
275
275
275
274.986
275
275
275
275
274.988
274.965
274.435
274.761
274.172
274.237
274.933
274.794
274.829
274.985
274.959
274.977
274.99
274.999
274.999
274.999
274.999
274.986
275
275
274.976
274.913
273.972
273.769
274.915
274.076
274.153
273.734
273.786
274.904
274.912
274.891
274.983
274.999
274.999
274.999
274.999
274.986
274.986
274.999
274.999
274.999
274.999
274.984
274.992
274.887
274.911
274.853
274.837
274.983
274.997
275
275
275
275
274.998
274.974
273.987
273.668
274.339
274.231
274.976
272.517
272.658
274.984
274.462
274.373
272.344
272.475
274.481
274.358
275
275
275
274.202
274.852
274.293
274.353
274.338
274.843
275
275
275
274.999
275
270.554
270.78
271.245
271.177
273.673
271.657
271.563
271.922
271.688
273.722
271.45
271.624
274.748
274.727
274.039
272.305
272.048
271.75
271.907
274.999
275
275
275
275
274.999
274.992
274.997
274.92
274.94
274.969
274.942
274.703
274.923
274.906
274.942
274.929
274.698
274.865
274.848
274.9
274.874
274.912
274.54
274.613
274.406
274.504
274.906
274.122
274.17
274.88
274.993
274.987
274.999
274.995
274.903
274.946
274.933
274.982
274.952
274.996
275
274.999
274.994
274.989
274.998
274.994
274.999
274.995
274.999
275
274.996
274.998
275
274.999
274.998
274.324
274.385
274.96
273.856
273.606
274.486
273.912
273.238
273.009
273.528
273.335
274.936
274.26
274.308
274.762
274.703
274.926
274.811
274.629
274.557
274.692
274.647
274.987
274.837
274.859
274.961
274.976
274.999
274.999
274.988
274.986
274.999
274.999
274.014
274.006
274.914
272.676
272.661
271.78
272.569
272.553
272.829
272.639
272.57
273.963
274.05
274.913
272.642
272.411
272.951
272.715
271.982
271.744
272.322
272.085
274.905
273.828
273.929
274.897
274.888
274.999
274.999
274.983
274.985
274.999
274.999
274.999
274.999
274.986
274.984
274.999
274.999
270.609
270.84
274.049
274.189
273.867
273.999
270.58
271.828
274.379
274.168
274.228
274.343
271.646
273.28
273.352
272.994
273.253
270.794
273.691
273.83
273.395
273.617
270.786
274.865
274.881
274.992
274.798
274.83
274.839
274.797
274.83
274.984
274.828
274.852
273.151
271.135
271.204
271.49
271.145
273.216
271.251
272.486
271.217
272.598
274.749
274.957
274.946
274.969
274.96
274.758
274.586
274.606
272.719
272.87
272.006
272.289
274.563
274.509
275
275
275
275
275
275
275
275
275
275
275
275
275
275
275
275
275
274.998
274.992
274.977
274.975
274.91
274.947
275
275
274.981
274.884
274.877
274.937
274.917
274.929
274.996
275
275
275
274.97
274.979
274.998
275
274.999
275
274.995
274.926
274.966
274.954
274.973
274.971
274.99
274.994
274.994
274.986
274.999
274.999
274.996
274.977
275
275
274.084
273.996
274.926
274.931
274.894
274.89
274.902
274.984
274.994
274.994
274.986
274.994
274.994
274.994
274.994
274.984
274.893
274.221
274.129
274.989
274.999
274.999
274.999
275
275
271.49
271.502
274.556
274.488
274.985
271.477
271.482
274.965
274.971
274.999
275
275
270.433
270.556
270.592
271.104
271.256
270.489
270.52
271.263
271.134
271.993
274.559
274.535
274.687
272.528
272.356
274.072
275
275
275
274.999
274.999
275
275
274.998
274.999
275
275
275
274.987
274.986
274.993
274.997
274.994
274.992
274.925
274.935
274.905
274.911
274.965
274.952
274.881
274.894
274.728
274.731
274.806
274.795
274.674
274.737
274.745
274.996
274.934
274.948
274.909
274.832
274.94
274.927
274.99
274.985
274.963
274.617
274.571
274.895
274.804
274.675
275
275
274.998
274.997
274.992
274.995
274.963
274.996
274.998
274.866
274.903
274.994
274.511
274.456
274.966
274.972
275
275
274.999
274.996
275
275
274.924
273.987
274.003
274.877
274.883
274.994
274.994
274.985
274.985
274.994
274.994
270.591
271.197
272.328
272.404
271.536
271.594
270.445
274.285
274.238
274.897
270.784
270.693
271.246
271.257
270.661
271.484
271.508
270.615
270.629
274.999
274.999
274.989
274.993
274.999
274.999
272.639
274.323
274.372
274.22
274.271
272.51
274.848
274.963
274.972
274.97
274.967
274.859
274.715
274.832
274.819
274.6
274.568
274.642
271.762
271.818
271.861
271.472
274.263
272.837
272.608
273.043
272.894
274.111
274
274.014
274.633
274.693
274.942
275
275
275
271.138
271.167
272.742
272.742
270.784
271.575
271.369
271.34
271.369
271.373
271.659
269.891
274.517
274.559
275
275
275
274.981
274.979
274.992
274.985
274.991
274.995
274.989
274.99
274.915
274.945
274.847
274.856
274.858
274.848
274.938
274.872
274.869
274.296
274.069
274.067
274.113
274.102
274.259
274.992
274.997
274.997
274.996
274.997
274.991
274.956
274.986
274.969
274.963
274.986
274.994
274.994
274.894
274.896
274.925
274.895
274.994
274.994
274.983
274.994
274.994
274.986
274.984
274.994
274.994
274.853
274.885
274.872
274.896
274.892
274.85
271.518
271.549
271.484
271.477
272.39
271.848
271.814
274.094
274.098
274.444
274.178
274.232
274.082
274.122
274.4
275
275
275
275
275
275
275
275
275
275
274.274
274.595
274.577
274.645
274.619
274.294
274.418
274.508
274.471
274.562
274.543
274.385
275
275
275
274.998
274.996
275
274.999
270.435
270.995
270.614
270.59
271.226
271.203
272.168
272.226
271.603
270.526
270.478
271.329
270.882
270.904
270.832
271.82
270.915
270.695
274.575
274.609
274.767
274.48
274.491
274.454
274.461
274.706
274.525
274.539
271.788
271.358
271.363
271.385
271.362
271.836
275
275
274.999
274.998
274.999
274.999
274.978
274.992
274.984
274.983
274.986
274.988
274.983
274.985
274.923
274.937
274.869
274.871
274.86
274.865
274.967
274.914
274.917
274.868
274.871
274.946
274.87
274.756
274.736
274.685
274.787
274.776
274.858
274.757
274.754
274.79
274.771
274.853
274.893
274.805
274.816
274.766
274.787
274.885
274.747
274.438
274.686
274.668
274.099
274.123
274.867
274.951
274.945
274.856
274.924
274.972
274.959
274.695
274.654
274.849
274.858
274.937
274.782
274.739
274.978
274.985
274.996
274.989
274.969
274.942
274.968
274.997
274.999
274.999
274.997
274.998
274.995
274.991
274.994
274.999
274.998
274.997
274.999
274.998
274.999
274.996
274.996
274.994
274.997
273.789
273.692
274.326
273.613
273.698
273.432
273.961
273.152
273.076
273.459
273.399
274.732
274.456
274.519
274.327
274.39
274.715
274.912
274.804
274.834
274.556
274.732
274.88
274.404
274.304
274.61
273.909
273.976
273.791
273.849
274.589
274.681
274.219
274.27
274.05
274.131
274.665
274.963
274.974
272.7
271.859
271.974
271.625
271.737
272.683
271.987
272.036
272.031
272.299
272.589
271.018
271.131
271.207
271.023
272.68
272.616
271.429
271.523
271.246
271.343
272.594
272.581
272.511
272.892
272.798
271.889
271.804
272.246
272.18
274.884
274.885
274.985
274.994
274.994
274.994
274.994
274.985
270.628
272.061
272.22
271.08
270.44
271.704
271.872
270.975
270.877
273.301
271.902
271.917
273.128
271.774
271.506
271.922
271.888
273.209
271.195
271.081
271.316
271.433
270.739
270.78
271.061
274.872
274.932
274.927
274.939
274.936
274.877
274.809
274.825
274.825
274.795
274.796
274.808
274.828
274.905
274.9
274.921
274.913
274.838
271.157
271.608
271.655
271.542
271.575
271.183
271.356
271.973
272.086
271.732
271.845
271.22
271.223
270.952
271.015
270.916
270.929
271.23
271.419
271.497
271.13
271.275
271.212
274.853
274.844
274.736
274.582
274.629
271.612
271.714
272.117
271.58
271.46
271.77
271.701
272.216
271.495
271.493
274.029
274.049
275
275
275
275
275
275
275
275
275
275
275
275
275
275
275
275
275
275
275
275
275
275
275
275
275
275
275
275
275
275
275
275
275
275
275
275
275
275
275
275
275
275
275
275
275
275
275
275
275
275
275
275
275
275
275
275
275
275
275
275
275
275
275
275
275
275
275
275
275
275
275
275
275
275
275
275
275
275
275
275
275
275
275
275
275
275
275
275
275
275
275
275
275
275
275
275
275
275
275
275
275
275
275
275
275
275
275
275
275
275
275
275
275
275
275
275
275
275
275
275
275
275
275
275
275
275
275
275
275
275
275
275
275
275
275
275
274.996
274.996
272.17
274.851
274.866
275
275
275
275
275
275
275
275
275
275
275
275
275
273.152
273.097
274.229
275
275
275
275
275
275
275
275
275
275
275
274.992
274.031
273.168
274.638
275
275
275
275
275
275
275
275
275
275
275
275
275
275
275
275
275
275
275
275
275
275
275
275
275
275
275
275
275
275
275
275
275
275
275
275
275
275
275
275
275
275
275
275
275
275
275
274.996
274.998
275
270.767
272.515
272.536
273.875
273.879
269.923
275
275
275
275
275
275
275
275
275
275
275
275
275
275
275
275
275
275
275
275
275
275
275
275
275
275
275
275
275
275
275
275
275
275
275
275
275
275
275
275
275
275
275
275
275
275
275
275
275
275
275
275
275
275
275
275
274.996
274.999
274.998
275
275
274.999
274.998
274.996
274.998
275
275
275
275
275
275
275
275
275
275
275
275
275
275
275
275
275
275
275
275
275
274.975
274.994
274.994
274.995
274.994
274.978
275
275
275
275
275
275
275
275
275
275
275
275
275
275
275
275
275
275
275
275
275
274.981
275
275
274.995
274.995
274.98
274.974
274.926
274.933
275
275
275
275
275
275
275
275
275
274.995
274.964
274.972
274.983
274.984
274.995
275
275
275
275
275
275
275
275
275
274.999
274.995
274.996
274.992
274.993
274.998
274.998
274.996
275
272.103
274.959
274.958
274.195
274.212
271.355
274.996
274.995
273.333
275
275
275
275
275
275
275
275
275
275
275
275
275
275
275
275
274.999
275
275
275
275
275
275
275
274.999
274.998
274.998
275
275
275
275
275
275
275
275
275
275
275
275
274.982
274.996
274.995
274.998
274.998
274.991
275
275
275
274.974
274.938
274.948
274.825
274.83
274.927
274.954
274.959
274.982
275
275
275
274.995
274.998
274.998
274.999
275
275
274.998
274.998
274.996
275
275
275
274.978
274.994
274.995
274.994
274.994
274.976
275
275
275
274.909
274.785
274.78
274.833
274.829
274.929
274.92
274.815
274.82
274.777
274.775
274.905
275
275
275
274.996
274.996
274.988
275
275
275
274.926
274.555
274.497
274.785
274.772
274.944
274.935
274.843
274.838
274.478
274.415
274.914
274.993
274.98
274.982
274.94
274.945
274.98
275
275
275
274.996
274.999
274.999
275
274.999
274.998
274.988
274.996
274.996
274.999
274.999
274.993
275
275
275
274.971
274.886
274.879
274.92
274.915
274.978
274.953
274.81
274.798
274.871
274.862
274.966
274.998
274.991
274.992
274.974
274.979
274.996
274.998
275
275
275
275
274.999
275
275
275
274.989
274.623
274.576
274.56
274.608
274.988
274.982
274.928
274.924
274.999
274.972
274.973
275
275
275
275
275
275
275
275
275
275
275
275
275
275
275
275
275
275
275
275
275
274.991
275
275
275
275
274.991
274.869
274.772
274.787
274.674
274.697
274.822
275
275
275
275
275
275
274.999
274.999
275
275
275
275
275
275
275
275
275
275
274.987
275
274.999
275
275
274.986
275
275
275
273.562
272.892
272.827
273.257
273.185
273.821
274.782
274.631
274.651
275
275
275
274.999
275
275
275
275
274.999
273.963
273.398
273.329
273.703
273.657
274.133
275
275
275
275
275
275
275
275
275
275
275
275
275
275
275
275
275
275
275
275
275
275
275
275
275
275
275
275
275
275
275
275
275
275
275
275
275
275
275
274.951
274.961
274.995
274.996
274.99
274.99
274.923
274.861
274.868
274.8
274.812
274.891
274.912
274.975
274.973
274.979
274.977
274.918
274.998
274.994
274.994
274.995
274.998
275
274.999
274.982
274.993
274.985
274.995
274.993
275
275
274.999
275
275
275
274.999
274.999
275
275
275
275
274.869
274.876
274.952
274.942
274.857
274.863
274.979
274.982
274.993
274.989
274.974
274.977
274.994
274.994
274.987
275
275
275
275
275
275
275
275
275
275
275
275
274.987
274.994
274.994
274.999
274.999
274.999
275
275
275
275
275
275
275
275
275
275
275
275
274.997
274.999
274.999
274.807
274.805
274.917
274.921
274.812
274.809
274.791
274.795
274.91
274.906
274.784
274.787
274.994
274.994
274.983
275
275
275
275
275
275
275
275
275
275
275
275
274.983
274.994
274.994
275
275
275
275
275
275
275
275
275
275
275
275
274.728
274.575
274.93
272.097
273.08
273.171
272.469
272.54
271.372
274.94
274.758
274.743
274.909
274.387
274.305
274.968
274.97
274.99
274.987
274.961
274.965
274.997
274.997
274.99
275
275
275
275
275
275
275
275
275
275
275
275
274.992
274.997
274.997
273.034
272.27
272.213
272.749
272.659
273.354
274.833
274.822
274.956
272.902
273.738
273.805
273.247
273.325
272.318
273.402
274.492
274.526
274.415
274.455
273.323
274.963
274.853
274.844
272.301
271.416
271.346
272.144
272.047
272.818
274.989
274.99
274.998
274.827
274.9
274.893
274.939
274.934
274.877
274.885
274.877
274.785
274.997
274.987
274.988
274.21
273.231
273.089
273.403
273.283
274.24
274.216
273.793
273.749
274.923
274.709
274.743
274.875
274.882
274.935
275
275
275
275
275
275
274.997
275
275
275
275
274.997
274.737
274.728
273.203
274.995
274.964
274.964
274.965
274.964
274.996
274.994
275
275
275
275
274.994
275
275
275
271.72
271.604
270.821
274.177
273.465
273.263
273.498
273.479
274.178
274.919
274.617
274.577
274.734
274.791
274.926
269.856
272.52
273.069
275
275
275
275
275
275
275
275
275
275
275
275
275
275
275
275
275
275
274.999
274.999
274.996
275
275
275
275
275
275
274.998
274.995
274.995
274.994
274.994
274.975
275
274.998
274.998
274.998
274.998
275
275
274.999
274.999
274.998
274.999
275
274.977
274.994
274.994
274.919
274.922
274.972
274.995
274.995
274.999
274.957
274.983
274.981
274.985
274.984
274.96
274.958
274.698
274.566
274.701
274.7
274.959
272.025
273.879
273.867
275
275
275
275
275
275
275
275
275
274.999
274.998
274.999
275
275
275
275
275
275
275
275
275
275
275
275
275
275
275
275
275
275
274.996
274.996
274.984
275
274.999
274.999
274.999
274.999
275
275
274.999
275
274.999
274.999
275
274.989
274.997
274.997
274.908
274.924
274.97
274.534
274.809
274.762
274.886
274.857
274.683
274.192
274.621
274.612
274.64
274.63
274.214
274.93
274.835
274.84
274.81
274.909
274.9
274.92
274.915
274.821
274.984
274.962
274.965
274.996
274.997
274.994
274.999
274.999
274.999
274.999
274.997
274.997
274.997
274.997
274.999
275
274.998
274.998
274.998
274.998
275
274.976
274.994
274.994
274.795
274.79
274.911
273.91
274.526
274.542
274.49
274.506
273.834
274.807
274.811
274.918
274.103
274.586
274.576
274.604
274.595
274.131
273.724
274.475
274.479
274.484
274.475
273.749
274.905
274.775
274.775
274.999
274.997
274.997
274.997
274.997
274.999
274.998
274.998
274.999
274.987
274.995
274.995
274.999
274.997
274.997
274.997
274.997
274.999
274.999
274.997
274.997
274.997
274.997
274.999
274.976
274.978
274.993
274.895
274.947
274.943
274.956
274.952
274.904
274.982
274.949
274.952
274.999
274.999
274.997
275
275
275
275
275
275
275
275
275
275
275
275
274.998
274.999
274.999
274.899
274.892
274.973
273.855
274.611
274.635
274.557
274.585
273.81
274.303
274.696
274.714
274.656
274.677
274.268
274.977
274.91
274.904
272.56
271.986
271.951
272.077
272.026
272.606
274.935
274.932
274.983
274.434
274.76
274.774
274.73
274.746
274.404
271.916
271.882
272.433
275
275
275
274.745
274.758
274.86
274.833
274.717
274.732
275
275
275
275
275
275
275
275
275
273.004
272.949
273.619
271.632
272.273
272.317
271.811
272.498
272.588
272.365
272.424
271.735
273.773
273.119
273.059
273.514
273.459
274.003
272.244
272.851
272.915
272.685
272.775
272.161
275
275
275
275
275
275
275
274.999
274.999
275
275
275
274.994
274.994
274.997
274.917
274.845
274.858
274.824
274.834
274.911
274.938
274.883
274.89
274.868
274.876
274.934
274.843
274.852
274.918
274.571
274.752
274.736
274.776
274.765
274.594
274.719
274.702
274.468
274.899
274.822
274.833
274.992
274.978
274.981
274.969
274.975
274.99
274.998
274.995
274.997
274.985
274.99
274.997
274.942
274.865
274.872
274.972
274.923
274.956
274.882
274.898
274.961
274.999
274.997
274.99
275
274.999
275
274.998
274.999
275
275
274.999
274.999
275
275
275
274.999
274.999
275
274.999
274.999
274.998
274.341
274.697
274.686
274.73
274.71
274.36
274.956
274.884
274.894
274.846
274.851
274.939
274.277
274.659
274.65
274.676
274.667
274.292
274.968
274.971
274.988
274.845
274.93
274.925
274.939
274.935
274.852
274.999
274.998
274.998
274.998
274.998
274.999
274.987
274.995
274.995
274.994
274.994
274.987
274.999
274.998
274.997
274.998
274.998
274.999
274.023
274.565
274.569
274.554
274.561
274.02
274.916
274.802
274.799
273.998
274.548
274.537
274.567
274.558
274.026
274.912
274.799
274.802
274.778
274.781
274.905
273.866
274.506
274.495
274.527
274.516
273.897
274.999
274.997
274.998
274.997
274.997
274.999
274.983
274.994
274.994
274.995
274.995
274.984
274.999
274.998
274.998
274.998
274.998
274.999
274.999
274.997
274.997
274.997
274.997
274.999
274.999
274.997
274.997
274.997
274.997
274.999
274.096
273.275
273.181
273.415
273.352
274.145
273.906
272.898
272.839
273.076
272.977
273.95
272.856
272.963
271.984
274.412
273.802
273.734
274.267
273.531
273.472
273.664
273.595
274.304
271.483
272.631
272.74
271.899
271.89
273.323
273.748
272.679
272.578
272.791
272.743
273.792
273.456
272.063
271.953
272.422
272.233
273.534
274.991
274.972
274.974
274.955
274.958
274.986
272.388
272.325
273.092
273.285
272.56
272.466
271.605
271.495
272.387
272.713
271.91
271.751
274.953
274.911
274.917
274.897
274.905
274.95
274.966
274.932
274.937
274.922
274.927
274.963
274.77
274.868
274.861
272.789
272.236
272.146
272.349
272.326
272.856
274.553
274.316
274.312
274.264
274.291
274.532
275
275
275
275
275
275
275
275
275
275
275
275
275
275
275
275
275
275
275
275
275
275
275
275
275
275
275
275
275
275
275
275
275
275
275
275
274.998
275
274.999
274.98
274.995
274.995
274.921
274.961
274.959
274.966
274.964
274.925
274.995
274.985
274.987
275
275
275
274.973
274.989
274.987
274.992
274.991
274.976
275
275
275
275
275
275
275
275
275
274.991
274.994
274.996
274.948
274.978
274.971
274.985
274.983
274.96
274.996
274.998
274.998
274.994
274.994
274.977
275
274.999
274.998
274.999
274.999
275
274.042
274.607
274.619
274.589
274.597
274.013
274.928
274.824
274.821
274.199
274.658
274.669
274.632
274.645
274.169
274.996
274.996
274.989
275
275
274.999
275
275
275
274.535
274.808
274.817
274.786
274.797
274.513
274.985
274.942
274.939
274.967
274.987
274.986
274.989
274.988
274.969
272.461
273.08
273.139
272.971
273.025
272.406
274.103
273.611
273.564
275
275
275
275
275
275
275
275
275
275
275
275
275
275
275
275
275
275
274.988
274.989
274.996
274.939
274.971
274.969
274.976
274.974
274.944
275
275
275
274.999
275
274.999
274.874
274.949
274.944
274.963
274.956
274.886
274.994
274.985
274.988
274.999
274.999
275
274.998
274.999
274.997
274.818
274.815
274.923
273.988
274.579
274.584
274.572
274.575
273.994
274.268
274.695
274.705
274.678
274.687
274.253
274.99
274.997
274.997
274.998
274.998
274.993
273.571
273.66
272.777
272.401
273.398
273.486
274.916
274.908
274.837
274.942
274.946
274.974
274.869
274.929
274.923
273.877
273.836
274.241
272.771
273.327
273.382
273.203
273.266
272.692
272.995
273.556
273.605
273.448
273.505
272.946
274.654
274.798
274.787
274.819
274.809
274.674
274.939
274.889
274.894
272.689
272.169
272.233
272.207
272.182
272.708
270.798
271.582
271.586
272.23
272.332
269.872
274.57
273.988
273.7
274.256
274.166
274.561
275
275
275
275
275
275
275
275
275
275
275
275
275
275
275
275
275
275
275
275
275
275
275
275
275
275
275
275
275
275
275
275
275
275
275
275
275
275
275
275
275
275
275
275
275
275
275
275
275
275
275
275
275
275
275
275
275
275
275
275
275
275
275
275
275
275
275
275
275
275
275
275
275
275
275
275
275
275
275
275
275
275
275
275
275
275
275
275
275
275
275
275
275
275
275
275
275
275
275
275
275
275
275
275
275
275
275
275
275
275
275
275
275
275
275
275
275
271.889
273.885
273.871
275
275
275
275
275
275
275
275
275
275
274.997
274.998
274.198
274.982
274.982
275
275
275
275
275
275
275
275
275
275
275
275
275
275
275
274.983
274.043
274.037
274.648
275
275
275
275
275
275
275
275
275
275
275
275
275
275
275
275
275
275
275
275
275
275
275
275
275
275
275
275
275
275
275
275
275
275
275
275
275
275
275
275
275
275
275
275
274.983
274.996
274.996
275
275
275
272.545
272.546
271.283
275
275
275
275
275
275
275
275
275
274.999
275
275
274.995
274.998
274.998
274.998
274.998
274.994
275
275
274.999
274.988
274.952
274.95
274.947
274.945
274.986
274.996
274.996
274.999
275
275
275
275
275
275
275
275
275
274.992
274.998
274.998
274.997
274.997
274.99
275
275
275
275
275
275
275
275
275
275
275
275
274.988
274.997
274.997
274.996
274.996
274.985
274.999
275
275
275
275
274.999
275
275
275
275
275
275
275
275
275
275
275
275
275
275
275
274.9
274.947
274.943
274.963
274.961
274.927
273.551
274.141
274.177
273.863
273.915
273.171
275
275
275
275
275
275
275
275
275
274.94
274.967
274.965
275
275
275
275
275
275
273.944
274.37
274.393
274.21
274.239
273.717
275
275
275
275
275
275
275
275
275
275
275
275
275
275
275
275
275
275
275
274.999
274.999
274.999
274.999
275
275
275
275
275
275
275
275
275
275
274.999
274.997
274.997
275
275
275
275
275
275
275
275
275
275
275
275
275
275
275
275
275
275
275
275
275
275
275
275
275
275
275
275
275
275
275
275
275
275
275
275
275
275
275
275
275
275
275
275
275
275
275
275
275
275
275
275
275
275
275
275
275
275
275
275
275
275
275
275
275
275
275
275
275
274.996
275
275
275
275
274.996
273.947
273.917
272.026
274.847
274.566
274.58
274.565
274.564
274.848
275
275
275
275
275
275
275
275
275
275
275
275
274.995
274.996
275
273.135
274.79
274.782
274.812
274.801
273.117
274.982
274.982
274.215
275
275
275
275
275
275
275
275
275
275
275
275
275
275
275
275
275
275
275
275
275
275
275
275
275
275
275
275
275
275
275
275
275
275
275
275
275
275
275
274.997
275
275
275
275
274.998
275
275
275
271.588
271.591
270.774
270.216
272.295
272.223
275
275
275
275
275
275
275
275
275
275
275
275
275
275
275
275
275
275
275
275
275
275
275
275
275
275
275
275
275
275
275
275
275
275
275
275
275
275
275
275
275
275
275
275
275
275
275
275
275
275
275
275
275
275
275
275
275
275
275
275
275
275
275
275
275
275
274.995
274.995
274.982
275
274.999
274.999
274.999
274.999
275
275
275
275
274.967
274.986
274.985
274.988
274.987
274.969
273.854
273.842
272.14
274.959
274.696
274.7
274.202
273.524
273.513
273.533
273.531
274.207
271.313
272.542
272.542
274.965
274.966
274.995
273.387
274.752
274.745
275
275
275
275
275
275
275
275
275
275
275
275
274.999
275
275
275
275
274.999
275
275
275
275
275
275
275
275
274.999
275
275
275
275
275
275
275
275
275
275
275
275
275
275
275
275
275
275
274.535
274.808
274.816
274.793
274.801
274.515
274.459
274.776
274.785
274.758
274.768
274.438
275
275
275
274.998
274.998
274.995
274.994
274.998
274.998
275
275
275
275
275
275
274.976
274.99
274.989
274.991
274.991
274.978
275
275
275
275
275
275
274.999
275
275
274.955
274.954
274.988
274.61
274.841
274.847
274.826
274.834
274.594
274.554
274.802
274.804
274.845
274.812
274.566
274.997
274.997
274.999
274.972
274.989
274.989
274.99
274.99
274.972
275
275
275
275
275
275
274.998
274.998
274.992
274.99
274.998
274.998
275
275
275
275
275
275
275
275
275
275
275
275
274.997
274.997
274.987
274.985
274.996
274.996
275
275
274.999
274.999
275
275
275
275
275
275
275
275
275
275
275
275
275
275
275
275
275
275
275
275
275
275
275
275
275
275
275
275
275
275
275
275
275
275
275
275
275
275
275
275
275
275
275
275
275
275
275
275
275
275
274.955
274.98
274.978
274.983
274.982
274.958
274.953
274.95
274.907
274.923
274.959
274.956
274.996
274.999
274.998
274.999
274.999
274.997
274.986
274.995
274.994
274.998
274.997
274.99
274.824
274.831
274.594
274.358
274.736
274.747
274.714
274.725
274.33
274.056
274.1
273.479
273.245
273.963
274.011
273.182
273.73
273.77
273.648
273.691
273.136
273.387
273.876