/*--------------------------------*- C++ -*----------------------------------*\
| =========                 |                                                 |
| \\      /  F ield         | OpenFOAM: The Open Source CFD Toolbox           |
|  \\    /   O peration     | Version:  5.x                                   |
|   \\  /    A nd           | Web:      www.OpenFOAM.org                      |
|    \\/     M anipulation  |                                                 |
\*---------------------------------------------------------------------------*/
FoamFile
{
    version     2.0;
    format      ascii;
    class       volVectorField;
    location    "500";
    object      U;
}
// * * * * * * * * * * * * * * * * * * * * * * * * * * * * * * * * * * * * * //

dimensions      [0 1 -1 0 0 0 0];

internalField   nonuniform List<vector> 
6584
(
(1.00007 -0.00018862 4.46209e-27)
(1.00005 -0.000413818 2.16475e-25)
(1.00006 -0.000560584 1.93212e-30)
(1.00007 -0.000760653 -3.86024e-25)
(1.00007 -0.000968265 0)
(1.00007 -0.00119198 0)
(1.00006 -0.0014046 0)
(1.00001 -0.00152571 3.85505e-25)
(0.99994 -0.00148751 3.77256e-25)
(0.999827 -0.00114074 0)
(0.999711 -0.000298165 1.1192e-25)
(0.999636 0.000969595 -2.46997e-25)
(0.99967 0.00234342 -1.0468e-26)
(0.999802 0.00337282 2.51082e-26)
(0.999951 0.00379828 6.31385e-27)
(1.00011 0.00364763 9.09717e-25)
(1.00017 0.00317888 8.04359e-25)
(1.00019 0.00261035 6.55307e-26)
(1.00018 0.002045 5.50428e-25)
(1.00015 0.00154984 3.93162e-25)
(1.00012 0.00114873 0)
(1.0001 0.000806026 0)
(1.00008 0.00056893 5.77242e-25)
(1.0001 0.000251749 3.52713e-25)
(1.00029 -0.000396519 -2.11538e-25)
(1.00025 -0.000834012 -8.26495e-25)
(1.0003 -0.0011075 -1.10611e-24)
(1.00032 -0.00151243 0)
(1.00036 -0.00193257 -1.4304e-25)
(1.00035 -0.00239917 -1.22183e-24)
(1.0003 -0.00286774 -7.39706e-25)
(1.00006 -0.00316581 1.23845e-24)
(0.999748 -0.00314985 -9.75915e-26)
(0.998965 -0.00249763 -2.3422e-25)
(0.998065 -0.000778489 -6.43302e-29)
(0.99753 0.00189628 0)
(0.997754 0.00483288 5.7338e-25)
(0.998671 0.00699771 2.84548e-25)
(0.999824 0.00787391 -2.0592e-24)
(1.00057 0.00750304 -5.45086e-25)
(1.00086 0.00644222 -1.23358e-24)
(1.00094 0.00522836 -1.60467e-24)
(1.00086 0.00405198 -4.06233e-24)
(1.00073 0.00304705 -3.32509e-24)
(1.00059 0.00225217 -2.34722e-25)
(1.00049 0.00157036 -9.73791e-26)
(1.00038 0.0011309 0)
(1.0004 0.000521789 3.08806e-25)
(1.00064 -0.000609719 -5.35132e-25)
(1.00061 -0.00123648 0)
(1.00072 -0.0016162 -2.14797e-25)
(1.0008 -0.00222846 -1.44872e-24)
(1.0009 -0.00287631 -2.18483e-24)
(1.00093 -0.003637 0)
(1.00081 -0.00448851 0)
(1.0003 -0.00509649 -2.32603e-25)
(0.999374 -0.00570221 -1.87908e-25)
(0.998091 -0.00373584 1.1105e-25)
(0.996582 -0.00160797 -1.88512e-25)
(0.995496 0.00191572 -2.58161e-25)
(0.995781 0.00606535 0)
(0.997437 0.00921365 0)
(0.999461 0.0105547 2.71153e-26)
(1.00147 0.0120083 -2.23522e-24)
(1.00225 0.00988822 0)
(1.0024 0.00782799 -7.42437e-25)
(1.00216 0.00593468 0)
(1.0018 0.00439075 -5.41979e-25)
(1.00144 0.00321893 -1.41013e-24)
(1.00117 0.00222127 -8.30942e-25)
(1.00092 0.00162549 0)
(1.00087 0.000778548 2.39486e-25)
(1.00108 -0.000809487 -3.29096e-25)
(1.00109 -0.00158961 0)
(1.0013 -0.00205501 -2.9002e-25)
(1.00147 -0.00286536 0)
(1.00171 -0.00374899 0)
(1.00186 -0.004869 0)
(1.00177 -0.00626444 -2.26936e-25)
(1.00105 -0.00756794 4.21674e-24)
(0.999268 -0.0091819 -3.81987e-25)
(0.996781 -0.00708898 3.32622e-25)
(0.993447 -0.00448725 -2.03627e-25)
(0.990299 0.00124517 2.97159e-26)
(0.990351 0.00920469 4.74229e-26)
(0.994279 0.015169 0)
(0.998974 0.016718 -3.36267e-24)
(1.00221 0.0150443 0)
(1.00489 0.0134547 0)
(1.00472 0.0103572 5.0731e-24)
(1.00411 0.00756899 3.27286e-24)
(1.0033 0.0054656 -1.07968e-24)
(1.0026 0.0039556 -7.41677e-25)
(1.00206 0.00269293 0)
(1.00161 0.00199179 3.52019e-25)
(1.00143 0.000986537 2.81708e-25)
(1.00156 -0.00097678 -1.28213e-25)
(1.00167 -0.00186019 -8.53816e-27)
(1.00199 -0.00238036 -4.08465e-26)
(1.00235 -0.00336105 -6.23207e-26)
(1.00281 -0.00445376 1.54191e-25)
(1.00327 -0.00596788 3.306e-24)
(1.00343 -0.00803659 -4.77627e-24)
(1.00303 -0.01033 4.74943e-24)
(0.999646 -0.0110203 1.75805e-25)
(0.996182 -0.0120503 1.41467e-24)
(0.989583 -0.0101221 -2.83778e-25)
(0.980879 -0.00148782 2.18391e-25)
(0.979808 0.0139323 -8.51102e-26)
(0.989664 0.0248481 4.95831e-24)
(0.999785 0.025623 0)
(1.00532 0.0213041 3.19445e-24)
(1.00693 0.0158637 -6.71487e-25)
(1.00797 0.0119417 -3.87183e-24)
(1.00669 0.00868991 -2.20486e-24)
(1.00518 0.00607124 9.49164e-25)
(1.004 0.00434989 -4.88909e-26)
(1.00309 0.00290855 -2.65544e-26)
(1.0024 0.00217258 3.97695e-25)
(1.00201 0.001113 -1.47077e-25)
(1.00207 -0.00109256 6.39195e-26)
(1.0023 -0.00201384 -1.69341e-25)
(1.00278 -0.00254017 -9.91648e-27)
(1.00337 -0.00362654 0)
(1.00415 -0.00482294 -6.78781e-25)
(1.00515 -0.00667082 -2.53027e-25)
(1.00585 -0.008972 -1.98376e-24)
(1.00458 -0.0113848 -5.29668e-25)
(1.00242 -0.0150305 2.32593e-24)
(0.998379 -0.0196523 8.24642e-24)
(0.985898 -0.0193127 1.74401e-24)
(0.968971 -0.0102813 2.52034e-28)
(0.962394 0.0181233 -9.37422e-26)
(0.983569 0.0384869 6.05549e-25)
(1.00465 0.038726 -7.11676e-24)
(1.01188 0.0283693 0)
(1.01243 0.0197537 4.35018e-28)
(1.01217 0.0126598 6.53096e-25)
(1.00977 0.00903278 1.51398e-25)
(1.00732 0.00604183 1.10381e-24)
(1.00555 0.0042888 -3.8856e-25)
(1.00416 0.00279865 0)
(1.0032 0.00211826 -2.01273e-25)
(1.00255 0.0011283 -2.73743e-25)
(1.00255 -0.00114102 7.45599e-28)
(1.00293 -0.00202426 -7.93653e-26)
(1.00357 -0.00249364 1.00455e-25)
(1.00446 -0.00359019 7.75267e-27)
(1.00563 -0.00472923 1.31829e-26)
(1.0073 -0.00675284 -1.11334e-24)
(1.00889 -0.00906595 -1.55752e-24)
(1.00825 -0.0125698 -8.51453e-26)
(1.00831 -0.0184713 -3.46817e-25)
(1.00609 -0.0279169 1.18061e-24)
(0.990861 -0.0372273 0)
(0.952519 -0.0378844 1.2157e-24)
(0.910953 0.0268945 4.31283e-26)
(0.982429 0.076999 3.17286e-24)
(1.01482 0.0534748 2.27064e-26)
(1.02371 0.0337113 0)
(1.02038 0.0212489 2.18797e-24)
(1.01707 0.0116579 5.38868e-25)
(1.01309 0.0082098 4.32656e-25)
(1.00952 0.00520364 -1.08549e-25)
(1.00706 0.00367887 -8.38574e-25)
(1.00516 0.00231627 0)
(1.00392 0.00179655 -1.8068e-25)
(1.00298 0.00101075 -1.61227e-25)
(1.00296 -0.0011138 -7.92908e-26)
(1.00351 -0.00188255 7.01177e-26)
(1.00429 -0.00222686 3.70037e-26)
(1.00547 -0.00321548 2.78249e-26)
(1.00704 -0.00409669 -4.05089e-26)
(1.00941 -0.00597753 5.2678e-25)
(1.01209 -0.00776602 1.26029e-28)
(1.01294 -0.0118202 -1.94785e-25)
(1.01655 -0.0185371 2.07006e-28)
(1.02064 -0.0306613 -2.9745e-24)
(1.01521 -0.052734 -5.19143e-26)
(0.989219 -0.105351 1.93123e-26)
(1.02761 0.132772 5.48459e-25)
(1.04515 0.0637196 -5.77998e-25)
(1.04045 0.0325344 1.22362e-24)
(1.03 0.0186488 -2.63011e-25)
(1.02182 0.00840554 8.32352e-25)
(1.01609 0.00598287 8.50826e-25)
(1.01143 0.00347812 5.69762e-25)
(1.00831 0.00249069 -2.39211e-25)
(1.00593 0.00145896 0)
(1.00444 0.00120556 0)
(1.00322 0.000752916 -2.72884e-30)
(1.00328 -0.00101378 -1.47766e-26)
(1.00395 -0.00160474 -2.69517e-27)
(1.00485 -0.00176743 -1.16752e-26)
(1.00626 -0.00253351 5.98587e-26)
(1.00813 -0.00297395 7.12905e-26)
(1.011 -0.00435616 3.85856e-25)
(1.0146 -0.00508964 1.08591e-24)
(1.01735 -0.00865597 0)
(1.02452 -0.01354 0)
(1.0361 -0.0222084 0)
(1.04929 -0.042539 -1.08199e-25)
(1.07881 -0.0886375 1.34126e-26)
(1.13183 0.107924 0)
(1.08315 0.04567 0)
(1.05599 0.0206506 0)
(1.03841 0.0109362 2.34694e-25)
(1.02516 0.00310259 0)
(1.01806 0.00247061 -8.90307e-25)
(1.01266 0.000997799 -5.94628e-25)
(1.00905 0.000809693 -5.35076e-26)
(1.00633 0.000291381 0)
(1.00467 0.000384276 7.25586e-27)
(1.00321 0.000366241 -1.80615e-27)
(1.00346 -0.000856178 2.92336e-27)
(1.00424 -0.00123344 -4.42363e-27)
(1.00517 -0.00118927 5.03129e-27)
(1.00668 -0.00166109 2.66181e-26)
(1.00867 -0.00157533 -6.81829e-26)
(1.01169 -0.0022312 -5.34068e-27)
(1.01565 -0.00171965 -1.0673e-25)
(1.01984 -0.00378752 -7.10367e-27)
(1.02861 -0.00488683 0)
(1.04331 -0.00604633 -2.69386e-25)
(1.0665 -0.012179 1.3686e-30)
(1.11386 -0.0221282 -3.47156e-26)
(1.17505 0.0183603 -9.19395e-26)
(1.10221 0.00596994 -3.4122e-25)
(1.06239 0.00113694 -2.62595e-24)
(1.04223 -0.000295555 0)
(1.02601 -0.00314559 -1.69697e-24)
(1.01844 -0.00175122 0)
(1.01289 -0.00187371 -7.16152e-27)
(1.00912 -0.00115491 0)
(1.00625 -0.00105284 1.03867e-26)
(1.00454 -0.000587204 -4.14837e-27)
(1.00292 -0.000118036 -4.61679e-26)
(1.00352 -0.000665825 0)
(1.00433 -0.000828971 -2.48152e-26)
(1.00523 -0.000594013 -2.65058e-26)
(1.00671 -0.000766882 4.89539e-27)
(1.00861 -0.000204888 8.16829e-27)
(1.01137 -0.000133527 8.16047e-26)
(1.01504 0.00139426 3.545e-25)
(1.01963 0.00119504 1.66201e-25)
(1.02738 0.00384935 0)
(1.03954 0.00962736 1.35047e-24)
(1.06058 0.0181275 4.19723e-25)
(1.09766 0.0390329 -1.54962e-26)
(1.14948 -0.0645108 -4.47487e-26)
(1.09358 -0.0331864 5.58139e-25)
(1.05729 -0.0182074 1.17305e-25)
(1.04012 -0.0115587 1.51217e-24)
(1.02416 -0.0088841 7.53513e-24)
(1.01714 -0.00585984 4.18651e-24)
(1.01205 -0.0046511 -2.83368e-24)
(1.00845 -0.00312679 -2.01027e-24)
(1.00567 -0.0024028 1.47329e-25)
(1.00404 -0.00160308 6.43386e-26)
(1.00236 -0.000654946 -1.44066e-25)
(1.00346 -0.000470887 3.08544e-27)
(1.00426 -0.000452965 8.92597e-27)
(1.00507 -7.96136e-05 1.25778e-26)
(1.0064 -1.13242e-05 8.48673e-27)
(1.00805 0.00086791 -4.31599e-34)
(1.01028 0.00146748 1.73749e-25)
(1.01318 0.00351223 5.69495e-25)
(1.01716 0.0048101 1.93207e-25)
(1.02219 0.00962047 0)
(1.0285 0.0186972 -3.77518e-25)
(1.03995 0.034766 -9.03544e-26)
(1.05429 0.069045 -1.41803e-26)
(1.08785 -0.106177 -1.76777e-26)
(1.06657 -0.0556585 0)
(1.04439 -0.0309387 -2.29766e-24)
(1.03339 -0.0197479 1.87681e-24)
(1.02027 -0.0130388 1.06357e-23)
(1.01455 -0.0091328 7.0215e-24)
(1.01033 -0.00691986 0)
(1.00718 -0.00484841 -1.76164e-24)
(1.00465 -0.00360145 -9.69539e-25)
(1.0032 -0.002558 9.17415e-26)
(1.00156 -0.00119553 -1.1094e-25)
(1.00333 -0.0002959 0)
(1.00407 -0.000151947 4.7634e-27)
(1.00476 0.000289236 -5.83607e-27)
(1.00588 0.00050595 -1.63691e-26)
(1.00721 0.00150422 0)
(1.00884 0.00234181 -5.53418e-26)
(1.01085 0.00439347 9.12893e-26)
(1.01362 0.00639187 -3.05802e-26)
(1.01576 0.0113673 -5.09723e-26)
(1.01637 0.0196541 2.05776e-25)
(1.01735 0.0346803 4.03391e-26)
(1.00899 0.0630259 0)
(1.02689 -0.102187 -1.68003e-26)
(1.03644 -0.0585909 1.79409e-25)
(1.02967 -0.0350273 1.06359e-24)
(1.02475 -0.0235739 1.35845e-25)
(1.01546 -0.0152349 4.57801e-24)
(1.01129 -0.0112019 4.89281e-24)
(1.00806 -0.00845766 0)
(1.00549 -0.00615075 -2.6812e-26)
(1.00333 -0.0045395 4.08542e-25)
(1.0021 -0.00337323 2.22355e-25)
(1.00058 -0.00169683 7.99296e-27)
(1.00317 -0.000157363 0)
(1.00382 5.05966e-05 0)
(1.00438 0.000491388 0)
(1.00529 0.00076194 0)
(1.00632 0.00170641 -1.277e-26)
(1.00745 0.00253633 -1.22905e-26)
(1.00872 0.00417016 -1.90878e-25)
(1.00957 0.00660126 2.8738e-24)
(1.01053 0.00994155 0)
(1.00777 0.0150922 0)
(1.0031 0.0233403 6.54557e-25)
(0.982278 0.0324021 2.21356e-24)
(0.5787 -0.0363041 -7.07695e-26)
(0.990912 -0.0628817 -3.97173e-24)
(1.01494 -0.0482177 -7.55009e-25)
(1.01775 -0.0325259 -5.38336e-27)
(1.01667 -0.0236362 -3.02915e-26)
(1.01077 -0.015727 -1.14008e-24)
(1.00798 -0.0120879 2.03647e-25)
(1.00562 -0.0092508 3.45459e-27)
(1.00361 -0.00697963 -1.76019e-24)
(1.00184 -0.00517851 0)
(1.00085 -0.00400435 8.14206e-26)
(0.999499 -0.00212915 -2.20999e-25)
(1.003 -6.24393e-05 0)
(1.00356 0.000153179 -2.96124e-26)
(1.00401 0.000542511 1.5938e-27)
(1.00475 0.000793004 0)
(1.00555 0.00157922 0)
(1.00634 0.00223442 -1.04457e-24)
(1.00713 0.00343562 1.85808e-25)
(1.00759 0.00485547 3.74053e-24)
(1.00736 0.007116 4.21134e-24)
(1.00435 0.00921908 2.36453e-24)
(0.999312 0.0113324 0)
(0.9866 0.00661891 -2.40206e-25)
(0.855425 -0.028097 1.75535e-25)
(0.988761 -0.0365317 -4.34469e-25)
(1.0046 -0.0323924 3.90385e-25)
(1.01034 -0.0269849 -3.98344e-25)
(1.00845 -0.0191797 7.46454e-25)
(1.00685 -0.0149975 -1.69367e-25)
(1.00501 -0.0120209 4.3641e-28)
(1.00329 -0.0094212 -3.10677e-27)
(1.00177 -0.0073815 0)
(1.00033 -0.00553247 -7.47708e-25)
(0.999553 -0.0044427 -9.15091e-25)
(0.998381 -0.00247752 -2.85478e-25)
(1.00286 -1.07131e-05 8.12848e-28)
(1.00333 0.000169336 -2.94352e-26)
(1.00371 0.000477802 5.06856e-26)
(1.00432 0.000662273 6.32414e-30)
(1.00497 0.00124718 -1.87597e-25)
(1.00559 0.00166644 -7.61525e-25)
(1.00619 0.00239455 -2.10473e-24)
(1.00646 0.00314669 -2.91875e-24)
(1.00603 0.00421888 -9.78704e-25)
(1.00409 0.00432391 -1.39703e-25)
(1.0013 0.00261388 0)
(0.99519 -0.00151476 -9.52779e-26)
(0.885209 -0.0223522 -7.92402e-25)
(0.994736 -0.0225461 -1.28304e-25)
(1.00232 -0.0239115 -1.19687e-25)
(1.00639 -0.0216196 -2.05209e-25)
(1.00519 -0.0167116 -3.27704e-24)
(1.00393 -0.0138146 0)
(1.00257 -0.0114282 -5.63172e-25)
(1.00122 -0.0091806 -2.16073e-25)
(1.00004 -0.00744184 -2.02684e-26)
(0.99888 -0.00564765 1.52483e-25)
(0.998273 -0.004696 0)
(0.997285 -0.00273741 0)
(1.00276 3.0087e-06 -4.20286e-28)
(1.00316 0.000119661 1.59481e-27)
(1.0035 0.00033674 2.69921e-26)
(1.00402 0.000435622 0)
(1.00461 0.000814784 -9.02728e-26)
(1.00517 0.00101695 0)
(1.0058 0.00129937 -1.56111e-24)
(1.00617 0.00159626 5.72212e-25)
(1.00633 0.00117671 -3.11492e-26)
(1.00505 0.00109675 -7.65603e-26)
(1.00466 -0.00132623 3.2506e-25)
(0.999461 -0.00742066 -1.96369e-25)
(0.935448 -0.0174877 -1.06517e-24)
(0.997519 -0.01797 7.06901e-26)
(1.00216 -0.0184457 2.98981e-25)
(1.00442 -0.0173406 1.04069e-25)
(1.00281 -0.0144133 -1.54142e-24)
(1.0018 -0.0123181 1.8138e-24)
(1.00062 -0.0105529 0)
(0.999491 -0.00867789 6.35262e-25)
(0.998525 -0.00726825 -7.88928e-26)
(0.997556 -0.00558796 1.69038e-25)
(0.997069 -0.00480182 0)
(0.996243 -0.00291701 0)
(1.00271 -1.39607e-05 6.24065e-27)
(1.00306 2.57574e-05 2.9956e-27)
(1.00338 0.000154425 -2.32032e-26)
(1.00386 0.000168711 6.85634e-27)
(1.00445 0.000363489 0)
(1.00502 0.000403887 0)
(1.00578 0.000369473 -8.44816e-26)
(1.00641 0.000357556 -1.17817e-25)
(1.00713 -0.000419961 1.50683e-25)
(1.0066 -0.00128418 -6.00037e-25)
(1.00701 -0.00323572 0)
(0.998518 -0.0064881 -3.68439e-25)
(0.943911 -0.0162684 -2.06005e-24)
(1.00044 -0.0137835 5.42718e-25)
(1.00275 -0.0135535 9.98568e-25)
(1.00314 -0.0126257 2.62924e-24)
(1.00143 -0.0123129 1.47751e-24)
(1.00035 -0.0107397 1.49568e-24)
(0.999127 -0.00958442 -2.38649e-25)
(0.998088 -0.00803222 -1.59093e-25)
(0.997224 -0.00694666 -3.3128e-25)
(0.996386 -0.00540758 -1.19574e-24)
(0.995974 -0.00479132 6.34336e-28)
(0.995284 -0.00302529 -6.50605e-26)
(1.00272 -5.41626e-05 -6.02763e-28)
(1.00302 -9.36772e-05 3.80222e-27)
(1.00335 -4.28884e-05 -2.50825e-26)
(1.00381 -0.000100318 -2.18234e-26)
(1.00444 -5.82859e-05 0)
(1.00506 -0.000115768 0)
(1.00598 -0.000373784 1.20149e-24)
(1.0068 -0.000436973 2.06988e-25)
(1.00812 -0.00156609 -2.68513e-25)
(1.00779 -0.00133705 -8.92709e-25)
(1.00945 -0.00568781 0)
(0.964491 -0.00104895 -1.57114e-24)
(0.97139 -0.012679 1.22138e-25)
(1.0042 -0.00827164 2.66856e-25)
(1.00293 -0.0118569 2.11588e-25)
(1.003 -0.010412 -5.90997e-25)
(1.0007 -0.0106801 -4.52755e-25)
(0.999377 -0.00936226 2.46747e-25)
(0.998005 -0.00866621 -5.7906e-26)
(0.996975 -0.00734551 -1.13432e-24)
(0.996135 -0.00655174 -3.74167e-25)
(0.995379 -0.00515501 -1.5486e-24)
(0.995001 -0.00469709 0)
(0.994422 -0.00307518 -2.21147e-25)
(1.00277 -0.000111178 -8.90137e-27)
(1.00305 -0.000224664 -7.41234e-27)
(1.00339 -0.000238879 0)
(1.00385 -0.000350698 -9.73561e-27)
(1.00453 -0.000433785 0)
(1.0052 -0.000532134 -5.8981e-25)
(1.00629 -0.000975145 -1.52211e-25)
(1.00722 -0.000947053 8.4897e-26)
(1.00892 -0.00242136 -2.00594e-25)
(1.00884 -0.00159615 -2.58119e-25)
(1.00994 -0.0060977 -1.59908e-25)
(0.966483 -0.0018497 -1.98393e-24)
(0.97356 -0.0106436 1.07723e-24)
(1.00462 -0.00640886 -2.37628e-25)
(1.00325 -0.0103746 -1.05836e-25)
(1.0029 -0.00858987 -2.06775e-26)
(1.00019 -0.00937567 -2.60493e-25)
(0.998687 -0.00816033 -3.00607e-25)
(0.997153 -0.00783559 -6.40925e-25)
(0.996095 -0.00667212 -1.6749e-25)
(0.99523 -0.00613274 -1.02667e-25)
(0.994522 -0.00486541 -5.1148e-25)
(0.99415 -0.00454794 -2.18699e-25)
(0.993659 -0.00307873 -9.81226e-26)
(1.00287 -0.00018003 0)
(1.00312 -0.000357719 -1.94523e-26)
(1.00349 -0.000424674 -2.35718e-26)
(1.00395 -0.00057257 1.97165e-27)
(1.0047 -0.000759573 1.65012e-25)
(1.00541 -0.000853696 -7.74719e-25)
(1.00664 -0.00145765 0)
(1.00768 -0.00128439 -2.27808e-25)
(1.0096 -0.00300156 0)
(1.00983 -0.00179938 0)
(1.01064 -0.00608796 -8.71217e-29)
(0.968149 -0.0021045 3.4038e-27)
(0.975129 -0.0092832 3.97882e-25)
(1.00514 -0.00525069 -1.48451e-25)
(1.00366 -0.00917488 -4.48516e-26)
(1.00287 -0.00716015 -9.58411e-27)
(0.999853 -0.00832485 4.2559e-26)
(0.998192 -0.00711521 -1.30996e-25)
(0.996499 -0.00710187 -1.67655e-25)
(0.995397 -0.00603766 2.78982e-25)
(0.994481 -0.00571795 -1.01988e-25)
(0.9938 -0.00456221 0)
(0.993414 -0.00436562 4.79329e-30)
(0.992992 -0.00304629 0)
(1.003 -0.000257112 0)
(1.00324 -0.000486889 -2.98554e-26)
(1.00363 -0.000596092 -1.82735e-26)
(1.0041 -0.000762592 3.79086e-26)
(1.00491 -0.00103689 0)
(1.00566 -0.00109447 6.06487e-26)
(1.00701 -0.00183325 -6.48585e-25)
(1.00815 -0.00150018 -4.88413e-25)
(1.0102 -0.003364 -5.14828e-26)
(1.01069 -0.001904 -1.41796e-27)
(1.01125 -0.0059353 3.70339e-25)
(0.969254 -0.00220348 -2.73725e-25)
(0.976087 -0.00826887 5.02777e-25)
(1.00559 -0.00442699 -1.17843e-25)
(1.00403 -0.00822175 1.19058e-25)
(1.00288 -0.00604934 4.57989e-27)
(0.999647 -0.00747672 -1.05766e-25)
(0.997836 -0.00622248 8.91604e-26)
(0.995995 -0.00646733 2.22523e-25)
(0.994844 -0.00545609 -4.14498e-30)
(0.993862 -0.00532448 -4.84672e-26)
(0.993194 -0.00426059 -3.13907e-25)
(0.992782 -0.0041659 1.63544e-25)
(0.992412 -0.00298639 1.50388e-25)
(1.00316 -0.000339977 -2.02215e-26)
(1.00339 -0.000608958 -3.77887e-26)
(1.0038 -0.000752078 -8.86322e-34)
(1.00428 -0.000921803 9.17795e-26)
(1.00515 -0.00127004 2.41298e-25)
(1.00593 -0.00127099 4.43092e-26)
(1.00738 -0.00212031 -6.53537e-25)
(1.0086 -0.00163457 -4.40796e-25)
(1.01072 -0.00358434 2.5204e-25)
(1.01141 -0.00195961 0)
(1.01171 -0.00573595 7.32747e-26)
(0.970056 -0.00222308 -9.95707e-26)
(0.976749 -0.00747601 1.57712e-25)
(1.00593 -0.0038099 -9.17958e-26)
(1.00434 -0.00744807 -5.77678e-31)
(1.0029 -0.0051751 -1.69302e-25)
(0.999518 -0.00678577 -8.61293e-26)
(0.997571 -0.00546711 -1.71225e-26)
(0.995603 -0.00592467 1.18112e-25)
(0.994401 -0.00493296 -1.64258e-25)
(0.993349 -0.0049614 -2.65907e-25)
(0.992685 -0.00396999 -1.32344e-25)
(0.992241 -0.00396017 -1.40696e-25)
(0.991909 -0.00290585 1.30875e-25)
(1.00334 -0.000427014 -3.30241e-34)
(1.00356 -0.000722721 -2.17476e-26)
(1.004 -0.000893353 2.49443e-26)
(1.00449 -0.00105377 5.09103e-26)
(1.0054 -0.00146504 3.22463e-29)
(1.00621 -0.0013989 0)
(1.00772 -0.00233791 -2.74927e-26)
(1.00901 -0.00171698 -4.18847e-25)
(1.01116 -0.00371029 2.16032e-25)
(1.012 -0.00198529 0)
(1.01207 -0.00551851 -1.48144e-30)
(0.970678 -0.00219491 7.59608e-26)
(0.977226 -0.006848 -1.60063e-25)
(1.0062 -0.00334235 0)
(1.00459 -0.00681515 6.54415e-27)
(1.00291 -0.00448208 3.74092e-26)
(0.999434 -0.00621832 0)
(0.997368 -0.00483062 4.00001e-26)
(0.995294 -0.00546293 3.87314e-26)
(0.994042 -0.00446808 -4.32403e-25)
(0.992922 -0.00463217 -1.11375e-25)
(0.992256 -0.00369568 1.12127e-25)
(0.991777 -0.0037558 -1.46061e-25)
(0.991474 -0.00281004 0)
(1.00353 -0.000517265 2.44241e-26)
(1.00374 -0.000828188 -2.36486e-26)
(1.00421 -0.0010216 0)
(1.0047 -0.001163 2.75777e-26)
(1.00565 -0.00162824 8.25184e-26)
(1.00649 -0.00149137 2.30169e-26)
(1.00804 -0.002502 0)
(1.0094 -0.00176644 5.64571e-27)
(1.01156 -0.00377347 1.95002e-25)
(1.01251 -0.00199359 0)
(1.01236 -0.00530351 5.01182e-26)
(0.971165 -0.00214403 3.05028e-26)
(0.977563 -0.00634347 -1.0876e-25)
(1.00642 -0.00298235 1.49224e-26)
(1.00479 -0.00629525 -4.04715e-26)
(1.00292 -0.00393054 -2.71452e-27)
(0.999376 -0.00574973 2.9133e-26)
(0.997205 -0.00429607 -1.06489e-26)
(0.995045 -0.005071 2.32466e-28)
(0.993747 -0.00405858 -1.55043e-25)
(0.992562 -0.00433729 5.79771e-26)
(0.991892 -0.00344024 6.41479e-26)
(0.991378 -0.00355778 -2.40911e-26)
(0.991095 -0.00270314 -1.28576e-26)
(1.00373 -0.000610113 -2.9378e-27)
(1.00394 -0.000926085 -3.40704e-26)
(1.00443 -0.00113875 -7.40664e-27)
(1.00492 -0.00125404 0)
(1.00591 -0.00176561 5.04771e-25)
(1.00676 -0.00155895 0)
(1.00834 -0.00262575 -2.95912e-25)
(1.00975 -0.00179613 0)
(1.0119 -0.00379646 1.65688e-25)
(1.01293 -0.00199447 1.00666e-25)
(1.01257 -0.00510142 0)
(0.971551 -0.00209055 2.41512e-26)
(0.977799 -0.00593564 0)
(1.00658 -0.00270308 1.18865e-26)
(1.00495 -0.00586538 -1.0863e-26)
(1.00292 -0.00349057 0)
(0.999334 -0.00536106 0)
(0.997071 -0.00384897 -8.86695e-27)
(0.99484 -0.0047389 1.35146e-26)
(0.993499 -0.00370068 0)
(0.992256 -0.00407527 0)
(0.99158 -0.00320458 5.60109e-26)
(0.99103 -0.00336896 1.14752e-26)
(0.990762 -0.00258839 -4.41464e-26)
(1.00393 -0.000705111 3.00233e-27)
(1.00414 -0.00101739 2.89551e-27)
(1.00464 -0.00124668 0)
(1.00514 -0.00133105 -9.72143e-27)
(1.00615 -0.00188238 2.59556e-25)
(1.00702 -0.00160978 1.25414e-26)
(1.00862 -0.00271991 -2.60707e-25)
(1.01007 -0.00181552 1.9741e-27)
(1.0122 -0.00379589 0)
(1.0133 -0.00199233 9.69143e-26)
(1.01272 -0.00491975 0)
(0.971858 -0.00204691 0)
(0.977971 -0.00560227 0)
(1.00672 -0.00248487 5.63395e-26)
(1.00507 -0.00550774 9.23953e-26)
(1.00292 -0.00314018 0)
(0.999295 -0.00503782 -2.2005e-27)
(0.996953 -0.00347708 0)
(0.994666 -0.00445793 0)
(0.993286 -0.00339005 0)
(0.991991 -0.0038438 0)
(0.991306 -0.00298921 -5.31987e-26)
(0.990725 -0.00319103 -4.30425e-26)
(0.990466 -0.00246882 7.78212e-31)
(1.00413 -0.000801809 0)
(1.00433 -0.00110302 1.25824e-26)
(1.00485 -0.00134694 -2.61479e-26)
(1.00535 -0.00139741 2.70262e-26)
(1.00638 -0.00198292 2.47725e-25)
(1.00727 -0.00164997 4.93251e-25)
(1.00888 -0.00279308 0)
(1.01037 -0.00183139 0)
(1.01248 -0.00378398 1.5805e-26)
(1.01362 -0.00199294 7.47828e-27)
(1.01284 -0.00476365 -3.01245e-33)
(0.972105 -0.00201356 2.15767e-26)
(0.978086 -0.0053269 1.33105e-25)
(1.00682 -0.00231534 4.35559e-26)
(1.00516 -0.0052142 3.37277e-27)
(1.0029 -0.00286126 0)
(0.999258 -0.00476974 -6.77844e-26)
(0.996845 -0.00316829 -9.14324e-26)
(0.994513 -0.00422075 0)
(0.993096 -0.00312135 -9.20352e-26)
(0.991757 -0.00364057 -8.0733e-41)
(0.991062 -0.002793 1.29249e-25)
(0.990452 -0.00302508 7.99857e-26)
(0.990197 -0.00234631 6.55387e-26)
(1.00432 -0.000899628 -2.79828e-26)
(1.00453 -0.0011836 9.79952e-27)
(1.00506 -0.00144061 -1.30884e-26)
(1.00556 -0.0014557 5.27215e-26)
(1.00661 -0.00207061 2.24258e-25)
(1.00751 -0.00168393 9.39839e-25)
(1.00912 -0.00285177 0)
(1.01064 -0.00184761 0)
(1.01273 -0.00376856 1.41654e-26)
(1.0139 -0.00200031 0)
(1.01292 -0.00463374 0)
(0.972308 -0.0019938 0)
(0.978155 -0.00510235 0)
(1.0069 -0.00218766 -3.25408e-26)
(1.00522 -0.00497489 -5.81498e-26)
(1.00288 -0.00264121 -5.50002e-26)
(0.999218 -0.00454871 -1.0741e-25)
(0.996743 -0.00291366 -7.68701e-26)
(0.994375 -0.00402153 0)
(0.992924 -0.00289045 -2.31542e-26)
(0.991545 -0.00346337 0)
(0.990839 -0.0026153 0)
(0.990203 -0.00287172 3.6777e-26)
(0.989949 -0.00222271 2.96757e-26)
(1.00451 -0.000997736 -2.23226e-26)
(1.00472 -0.00125937 -1.55878e-26)
(1.00526 -0.00152816 -5.54066e-27)
(1.00576 -0.00150765 6.60296e-27)
(1.00682 -0.00214789 -6.2923e-34)
(1.00773 -0.00171481 4.4404e-25)
(1.00934 -0.00290081 0)
(1.01089 -0.00186668 -3.40147e-26)
(1.01296 -0.00375505 2.50559e-27)
(1.01415 -0.00201725 -6.68107e-27)
(1.01298 -0.00453057 4.86775e-26)
(0.972475 -0.0019903 4.14915e-27)
(0.978185 -0.00492351 4.19092e-26)
(1.00695 -0.00209698 0)
(1.00527 -0.00478248 0)
(1.00285 -0.00247069 6.78946e-28)
(0.999173 -0.00436842 4.33505e-26)
(0.996643 -0.00270596 3.07094e-31)
(0.994246 -0.00385577 -3.97207e-26)
(0.992761 -0.00269383 0)
(0.991349 -0.00331023 0)
(0.990629 -0.00245566 1.41357e-26)
(0.98997 -0.00273147 0)
(0.989713 -0.00209982 0)
(1.00469 -0.00109493 0)
(1.0049 -0.00132991 -2.29736e-26)
(1.00545 -0.00160944 -1.71321e-26)
(1.00596 -0.00155398 -2.76835e-26)
(1.00703 -0.00221632 0)
(1.00795 -0.00174426 0)
(1.00955 -0.00294328 0)
(1.01113 -0.0018905 -2.80899e-26)
(1.01317 -0.0037477 0)
(1.01438 -0.00204627 -3.23263e-27)
(1.01302 -0.00445554 1.70318e-26)
(0.972612 -0.00200592 -3.26358e-27)
(0.978186 -0.00478703 3.10181e-26)
(1.00699 -0.00204032 2.76057e-26)
(1.00529 -0.00463169 3.49666e-26)
(1.0028 -0.00234273 0)
(0.999121 -0.0042239 -3.42304e-26)
(0.996542 -0.00253931 -4.09538e-26)
(0.994122 -0.00371989 0)
(0.992604 -0.00252856 0)
(0.991164 -0.00317979 0)
(0.990428 -0.00231393 1.36412e-26)
(0.989747 -0.00260499 0)
(0.989483 -0.00197959 0)
(1.00485 -0.00118938 1.4835e-27)
(1.00507 -0.0013942 -1.67732e-26)
(1.00563 -0.00168349 4.6959e-27)
(1.00615 -0.00159468 0)
(1.00722 -0.0022763 3.1437e-26)
(1.00816 -0.00177174 1.38273e-26)
(1.00976 -0.00298083 0)
(1.01136 -0.0019194 -1.35216e-26)
(1.01338 -0.00374895 -1.50279e-27)
(1.01459 -0.00208928 -1.03749e-26)
(1.01305 -0.00441128 -2.356e-27)
(0.972725 -0.00204401 -9.40584e-27)
(0.978162 -0.00469118 4.1085e-26)
(1.00701 -0.00201606 5.19e-28)
(1.0053 -0.00451846 -3.2849e-28)
(1.00274 -0.00225189 2.19889e-26)
(0.999062 -0.00411119 8.75723e-28)
(0.996436 -0.00240884 -3.48955e-27)
(0.994 -0.00361085 0)
(0.992448 -0.00239226 -2.75731e-26)
(0.990985 -0.003071 -2.5214e-26)
(0.990228 -0.00219034 0)
(0.989529 -0.00249335 3.33772e-26)
(0.989252 -0.0018643 1.15343e-26)
(1.00499 -0.00127827 0)
(1.00523 -0.00145037 -1.21066e-26)
(1.00579 -0.00174868 -6.21374e-27)
(1.00634 -0.00162941 -2.21564e-27)
(1.00741 -0.00232736 0)
(1.00837 -0.00179683 2.04683e-25)
(1.00995 -0.00301419 -5.61905e-26)
(1.01159 -0.00195244 -2.81669e-26)
(1.01358 -0.00376009 4.15585e-27)
(1.0148 -0.0021477 1.45678e-26)
(1.01307 -0.00440368 -2.7475e-27)
(0.972814 -0.00211031 -3.39099e-26)
(0.978119 -0.00463641 9.92766e-27)
(1.00701 -0.00202382 1.81196e-28)
(1.00529 -0.0044393 -1.7124e-26)
(1.00267 -0.00219337 -1.35932e-26)
(0.998997 -0.00402667 1.96243e-27)
(0.996323 -0.00231048 -3.69465e-27)
(0.993879 -0.00352644 0)
(0.99229 -0.00228335 -1.78128e-26)
(0.990811 -0.00298354 -1.9751e-26)
(0.990028 -0.00208585 0)
(0.989315 -0.00239826 1.09139e-26)
(0.989016 -0.00175708 -1.59638e-26)
(1.00512 -0.00135789 -8.22798e-27)
(1.00539 -0.00149617 1.00655e-26)
(1.00595 -0.00180293 -2.33137e-26)
(1.00652 -0.00165643 -1.73373e-27)
(1.00759 -0.00236843 2.21776e-26)
(1.00859 -0.00181823 2.25086e-25)
(1.01015 -0.00304287 -2.33489e-26)
(1.01183 -0.0019874 -7.07164e-27)
(1.01379 -0.0037809 6.75508e-27)
(1.01502 -0.00222041 3.36174e-26)
(1.0131 -0.00444027 1.18966e-26)
(0.972875 -0.00221164 2.61823e-26)
(0.978055 -0.00462387 9.77353e-28)
(1.00698 -0.00206388 0)
(1.00526 -0.00439043 -9.61318e-27)
(1.00258 -0.00216235 -6.4222e-27)
(0.998923 -0.00396685 1.10363e-27)
(0.996194 -0.00224036 0)
(0.993757 -0.0034643 2.0457e-27)
(0.992119 -0.00220023 2.85975e-27)
(0.990635 -0.00291674 -1.44255e-26)
(0.989814 -0.00200155 -1.92909e-26)
(0.989093 -0.00232137 7.49069e-27)
(0.98876 -0.00166172 0)
(1.00522 -0.00141941 -5.37325e-27)
(1.00552 -0.00152661 9.21386e-27)
(1.00607 -0.00184088 -8.14249e-27)
(1.00669 -0.00167278 0)
(1.00774 -0.00239591 0)
(1.00879 -0.00183271 -4.87387e-26)
(1.01031 -0.00306289 2.6011e-26)
(1.01205 -0.00201758 1.57768e-26)
(1.01397 -0.00380689 1.64246e-26)
(1.01524 -0.00230495 -3.12932e-27)
(1.01313 -0.00455418 -3.17362e-26)
(0.972908 -0.00237283 0)
(0.977987 -0.00465991 0)
(1.00692 -0.00213747 0)
(1.00522 -0.00436608 0)
(1.00248 -0.00215168 -1.39111e-27)
(0.998857 -0.0039285 0)
(0.996069 -0.00219617 0)
(0.993653 -0.00342357 1.76275e-27)
(0.99196 -0.00214423 0)
(0.990484 -0.00287204 0)
(0.989617 -0.00194203 0)
(0.988896 -0.00226743 6.69025e-27)
(0.988521 -0.00158719 0)
(1.00532 -0.00146339 0)
(1.00573 -0.00154499 -1.2191e-27)
(1.00623 -0.00186568 -3.2371e-27)
(1.00698 -0.00168154 -6.65341e-28)
(1.00793 -0.00241352 5.1644e-27)
(1.00913 -0.00184221 -8.22154e-26)
(1.01054 -0.00307676 4.73803e-27)
(1.01245 -0.00204215 4.47542e-30)
(1.01427 -0.00383408 3.45723e-33)
(1.0157 -0.00237687 -6.52339e-31)
(1.01332 -0.00472793 -4.72086e-26)
(0.972817 -0.00258401 0)
(0.977851 -0.00473458 -2.34009e-26)
(1.00672 -0.00224562 -2.9332e-26)
(1.00512 -0.00435819 1.40702e-27)
(1.00227 -0.00215472 -5.57424e-28)
(0.998776 -0.0039055 0)
(0.99583 -0.00217049 0)
(0.993524 -0.00339769 0)
(0.991678 -0.00210828 0)
(0.990279 -0.00284302 0)
(0.989282 -0.00190179 0)
(0.988605 -0.00223124 4.83151e-27)
(0.988114 -0.00153234 0)
(1.07047 -0.0953568 1.81524e-26)
(1.12769 0.127981 7.01543e-26)
(1.01914 0.148654 2.82834e-25)
(1.11248 -0.03105 -3.41048e-26)
(1.18304 0.0316453 -1.09085e-26)
(1.13908 0.117878 -5.72601e-26)
(1.10173 0.0329245 -1.38983e-26)
(1.16146 -0.0699466 -1.59321e-25)
(1.18438 0.0178111 -4.73684e-26)
(1.06047 0.0671734 -8.6667e-26)
(1.09776 -0.11347 2.24631e-25)
(1.15488 -0.0785284 0)
(1.01386 0.0652412 7.22893e-30)
(1.03003 -0.112437 -1.63403e-25)
(1.08877 -0.115859 1.58223e-25)
(0.98392 0.0369415 0)
(0.53079 0.0126255 -8.21134e-26)
(0.554999 -0.0405245 1.46035e-25)
(0.987359 -0.0745847 8.31015e-25)
(1.02262 -0.10937 -2.44024e-25)
(0.978148 -0.0988111 2.00219e-25)
(0.909247 0.00672535 4.37277e-26)
(1.00386 0.141238 4.21301e-25)
(0.962921 0.0696023 1.01887e-24)
(1.04162 -0.0477706 -1.27739e-25)
(1.06631 -0.0853662 5.19219e-27)
(0.998244 -0.0947768 -2.53455e-25)
(1.08545 0.242022 0)
(0.955907 0.23073 -2.30799e-25)
(1.12153 0.116707 0)
(1.08109 0.0650876 1.28048e-26)
(1.04445 0.0757657 -1.41489e-24)
(1.06446 -0.0205549 1.26104e-25)
(1.1053 -0.0284142 -3.27863e-26)
(1.07391 -0.0794414 6.10076e-27)
(1.09839 -0.0656189 -5.82851e-27)
(1.12866 -0.0817732 5.32772e-27)
(1.10286 -0.12101 -7.49754e-27)
(1.20051 0.0973183 8.36533e-26)
(1.17087 0.170378 3.11363e-26)
(1.17335 0.0303581 5.01432e-27)
(1.11126 0.0217321 -4.08638e-25)
(1.09151 0.0564776 1.48812e-25)
(1.0639 0.0114733 2.67694e-25)
(1.09686 0.0295779 1.21133e-26)
(1.1067 -0.0201798 -2.94399e-28)
(1.11289 0.00366299 2.17509e-30)
(1.14021 0.0141968 -3.35846e-26)
(1.1443 -0.0283892 -7.4936e-28)
(1.21511 -0.0221475 2.2601e-27)
(1.22253 0.0478453 -4.02726e-26)
(1.15586 -0.055973 -1.79372e-25)
(1.10708 -0.0282858 6.00501e-26)