/*--------------------------------*- C++ -*----------------------------------*\
| =========                 |                                                 |
| \\      /  F ield         | OpenFOAM: The Open Source CFD Toolbox           |
|  \\    /   O peration     | Version:  5.x                                   |
|   \\  /    A nd           | Web:      www.OpenFOAM.org                      |
|    \\/     M anipulation  |                                                 |
\*---------------------------------------------------------------------------*/
FoamFile
{
    version     2.0;
    format      ascii;
    class       volScalarField;
    location    "500";
    object      xf;
}
// * * * * * * * * * * * * * * * * * * * * * * * * * * * * * * * * * * * * * //

dimensions      [0 0 0 0 0 0 0];

internalField   nonuniform List<scalar> 
6584
(
0.264652
0.264652
0.264652
0.264652
0.264652
0.264652
0.264652
0.264652
0.264653
0.264653
0.264653
0.264653
0.264653
0.264653
0.264653
0.264653
0.264652
0.264652
0.264652
0.264652
0.264652
0.264652
0.264651
0.264651
0.264363
0.264363
0.264363
0.264363
0.264363
0.264364
0.264364
0.264365
0.264365
0.264366
0.264366
0.264366
0.264366
0.264366
0.264366
0.264365
0.264365
0.264365
0.264364
0.264364
0.264363
0.264363
0.264363
0.264363
0.264074
0.264074
0.264075
0.264074
0.264075
0.264075
0.264076
0.264078
0.264078
0.264222
0.264222
0.264222
0.264222
0.264222
0.264222
0.264079
0.264077
0.264077
0.264076
0.264075
0.264075
0.264075
0.264074
0.264074
0.263785
0.263786
0.263786
0.263786
0.263786
0.263787
0.263788
0.26379
0.263791
0.263934
0.263934
0.263933
0.263933
0.263934
0.263934
0.263935
0.263789
0.263789
0.263788
0.263787
0.263787
0.263786
0.263786
0.263786
0.263497
0.263497
0.263498
0.263498
0.263499
0.263499
0.263499
0.263499
0.263645
0.263646
0.263644
0.263642
0.263642
0.263643
0.263645
0.263646
0.263646
0.263502
0.2635
0.2635
0.263499
0.263498
0.263498
0.263497
0.263209
0.263209
0.26321
0.26321
0.263211
0.263211
0.263212
0.263355
0.263355
0.263353
0.263425
0.263421
0.26342
0.263424
0.263356
0.263358
0.263359
0.263216
0.263214
0.263212
0.263211
0.26321
0.26321
0.263209
0.262921
0.262921
0.262922
0.262922
0.262923
0.262924
0.262926
0.263068
0.263067
0.263065
0.263128
0.263158
0.263153
0.263126
0.263139
0.263073
0.263074
0.262932
0.262928
0.262926
0.262924
0.262923
0.262922
0.262921
0.262633
0.262633
0.262634
0.262635
0.262636
0.262638
0.262641
0.262782
0.262781
0.262781
0.262838
0.26285
0.262862
0.262854
0.262791
0.262791
0.262649
0.262643
0.26264
0.262638
0.262636
0.262634
0.262634
0.262345
0.262346
0.262347
0.262348
0.262349
0.262352
0.262356
0.262497
0.262498
0.262501
0.262558
0.26257
0.262586
0.262579
0.262515
0.262511
0.262367
0.262358
0.262354
0.262351
0.262349
0.262347
0.262346
0.262057
0.262058
0.262059
0.262061
0.262063
0.262066
0.262072
0.262213
0.262216
0.262224
0.262285
0.262306
0.262332
0.262312
0.262241
0.262232
0.262085
0.262074
0.262069
0.262065
0.262062
0.26206
0.262058
0.26177
0.26177
0.261772
0.261774
0.261777
0.261781
0.261787
0.26193
0.261935
0.261947
0.262013
0.262045
0.26208
0.262048
0.261968
0.261954
0.261803
0.261791
0.261783
0.261778
0.261775
0.261772
0.26177
0.261482
0.261483
0.261485
0.261487
0.261491
0.261495
0.261503
0.261646
0.261654
0.261668
0.261738
0.261774
0.261818
0.261778
0.261692
0.261675
0.261521
0.261507
0.261498
0.261492
0.261487
0.261485
0.261482
0.261194
0.261196
0.261198
0.2612
0.261204
0.26121
0.261218
0.261362
0.261371
0.261386
0.261458
0.261492
0.26154
0.261501
0.261413
0.261394
0.261238
0.261222
0.261212
0.261205
0.2612
0.261197
0.261194
0.260907
0.260908
0.26091
0.260914
0.260918
0.260924
0.260932
0.260937
0.261085
0.261098
0.261166
0.261188
0.180965
0.261207
0.261217
0.261131
0.261111
0.260953
0.260937
0.260926
0.260918
0.260912
0.260908
0.260906
0.260619
0.260621
0.260623
0.260627
0.260631
0.260637
0.260645
0.260647
0.260794
0.260808
0.260875
0.260856
0.238525
0.260913
0.26085
0.260845
0.260676
0.260665
0.260648
0.260638
0.260631
0.260625
0.26062
0.260617
0.260331
0.260333
0.260336
0.260339
0.260344
0.26035
0.260357
0.26036
0.260506
0.260521
0.260516
0.260563
0.239237
0.26055
0.260562
0.260558
0.260389
0.260378
0.26036
0.26035
0.260341
0.260335
0.260331
0.260328
0.260044
0.260046
0.260048
0.260052
0.260057
0.260062
0.260069
0.260073
0.260081
0.260234
0.260228
0.259898
0.249175
0.260258
0.260273
0.260269
0.260101
0.26009
0.260072
0.260061
0.260052
0.260045
0.260041
0.260038
0.259756
0.259758
0.259761
0.259765
0.259769
0.259774
0.259781
0.259787
0.259795
0.2598
0.25994
0.25942
0.249
0.259966
0.259843
0.259828
0.259812
0.259802
0.259783
0.259771
0.259763
0.259756
0.259752
0.259747
0.259468
0.25947
0.259473
0.259477
0.259482
0.259486
0.259495
0.2595
0.259509
0.259513
0.259458
0.24553
0.254092
0.259539
0.259554
0.259539
0.259523
0.259513
0.259494
0.259482
0.259473
0.259466
0.259462
0.259457
0.25918
0.259182
0.259185
0.25919
0.259195
0.259199
0.259208
0.259214
0.259223
0.259226
0.25913
0.245271
0.253809
0.259247
0.259265
0.259251
0.259235
0.259224
0.259205
0.259192
0.259183
0.259176
0.259171
0.259166
0.258892
0.258895
0.258898
0.258902
0.258907
0.258912
0.258922
0.258928
0.258937
0.25894
0.258805
0.245008
0.253522
0.258956
0.258977
0.258963
0.258946
0.258935
0.258916
0.258903
0.258893
0.258886
0.258881
0.258876
0.258604
0.258607
0.25861
0.258615
0.25862
0.258625
0.258635
0.258642
0.258651
0.258653
0.258482
0.244741
0.253233
0.258664
0.258688
0.258675
0.258657
0.258646
0.258626
0.258613
0.258603
0.258595
0.258591
0.258585
0.258316
0.258319
0.258323
0.258327
0.258333
0.258339
0.258349
0.258356
0.258365
0.258366
0.258161
0.244471
0.252942
0.258372
0.2584
0.258386
0.258368
0.258357
0.258337
0.258323
0.258313
0.258305
0.2583
0.258294
0.258029
0.258032
0.258035
0.25804
0.258046
0.258052
0.258063
0.25807
0.25808
0.25808
0.257842
0.2442
0.25265
0.25808
0.258112
0.258098
0.25808
0.258068
0.258047
0.258033
0.258023
0.258015
0.258009
0.258003
0.257741
0.257744
0.257747
0.257753
0.257759
0.257765
0.257777
0.257784
0.257795
0.257794
0.257525
0.243926
0.252356
0.257788
0.257824
0.25781
0.257791
0.257779
0.257758
0.257743
0.257733
0.257724
0.257719
0.257713
0.257453
0.257456
0.25746
0.257465
0.257472
0.257479
0.257491
0.257498
0.257509
0.257507
0.257205
0.243653
0.252063
0.257497
0.257536
0.257522
0.257502
0.25749
0.257468
0.257454
0.257442
0.257433
0.257428
0.257422
0.257166
0.257169
0.257173
0.257178
0.257185
0.257192
0.257205
0.257213
0.257224
0.257221
0.256883
0.243381
0.251772
0.257207
0.257249
0.257235
0.257214
0.257201
0.257179
0.257164
0.257153
0.257143
0.257138
0.257132
0.256878
0.256881
0.256885
0.256891
0.256898
0.256906
0.256919
0.256927
0.256939
0.256935
0.256562
0.243108
0.251481
0.256917
0.256961
0.256948
0.256926
0.256913
0.25689
0.256875
0.256863
0.256853
0.256848
0.256841
0.25659
0.256594
0.256598
0.256604
0.256611
0.256619
0.256633
0.256641
0.256654
0.256648
0.256242
0.242835
0.251188
0.256627
0.256674
0.25666
0.256638
0.256624
0.256601
0.256585
0.256573
0.256563
0.256557
0.256551
0.256303
0.256306
0.256311
0.256317
0.256325
0.256333
0.256347
0.256356
0.256369
0.256362
0.255924
0.242561
0.250896
0.256336
0.256387
0.256373
0.25635
0.256336
0.256312
0.256296
0.256283
0.256273
0.256267
0.256261
0.256015
0.256019
0.256023
0.25603
0.256038
0.256047
0.256062
0.256071
0.256085
0.256076
0.255606
0.242286
0.250602
0.256046
0.2561
0.256085
0.256062
0.256047
0.256023
0.256006
0.255993
0.255983
0.255977
0.25597
0.255728
0.255731
0.255736
0.255743
0.255751
0.255761
0.255776
0.255786
0.2558
0.255789
0.255288
0.24201
0.250309
0.255756
0.255812
0.255798
0.255774
0.255759
0.255734
0.255716
0.255703
0.255693
0.255686
0.25568
0.25544
0.255444
0.255449
0.255455
0.255464
0.255475
0.255491
0.255501
0.255515
0.255503
0.254971
0.241735
0.250016
0.255466
0.255525
0.25551
0.255486
0.25547
0.255444
0.255427
0.255413
0.255403
0.255396
0.25539
0.255153
0.255157
0.255162
0.255168
0.255178
0.255189
0.255205
0.255216
0.25523
0.255216
0.254654
0.241459
0.249722
0.255176
0.255238
0.255223
0.255198
0.255181
0.255155
0.255137
0.255123
0.255112
0.255105
0.255099
0.254866
0.254869
0.254875
0.254881
0.254891
0.254903
0.25492
0.254931
0.254946
0.254929
0.254336
0.241184
0.249429
0.254886
0.25495
0.254936
0.254909
0.254893
0.254866
0.254848
0.254833
0.254822
0.254815
0.254809
0.254578
0.254582
0.254588
0.254595
0.254605
0.254617
0.254635
0.254646
0.254661
0.254642
0.254017
0.240909
0.249136
0.254596
0.254663
0.254648
0.254621
0.254604
0.254577
0.254558
0.254543
0.254532
0.254524
0.254518
0.262603
0.262615
0.262855
0.262339
0.262362
0.262583
0.262078
0.262112
0.262331
0.261809
0.261853
0.262081
0.261528
0.261577
0.261819
0.261226
0.153705
0.178367
0.261284
0.261541
0.262888
0.263153
0.262892
0.263159
0.262627
0.262608
0.262858
0.262713
0.262846
0.262619
0.262642
0.262848
0.262353
0.262341
0.262574
0.26247
0.26238
0.262549
0.262309
0.262544
0.262363
0.262377
0.262575
0.262081
0.262078
0.262308
0.262209
0.261888
0.262053
0.260593
0.261475
0.262112
0.262115
0.262311
0.261807
0.261809
0.262045
0.261945
0.261714
0.261778
0.261203
0.260744
0.261852
0.261849
0.262049
0.26112
0.261395
0.261576
0.261575
0.261781
0.260846
0.260987
0.26093
0.180237
0.154365
0.220881
0.260974
0.261244
0.26257
0.2627
0.262706
0.262695
0.262539
0.262846
0.262712
0.262556
0.262704
0.262714
0.2627
0.262574
0.262086
0.262347
0.262437
0.262154
0.261385
0.262505
0.262193
0.261527
0.262296
0.262456
0.262366
0.262085
0.262563
0.262378
0.262488
0.261788
0.261873
0.262176
0.260983
0.261142
0.261345
0.260983
0.260742
0.260531
0.262207
0.261887
0.261813
0.262074
0.261899
0.262238
0.260846
0.261054
0.261158
0.26081
0.261396
0.261243
0.261952
0.261745
0.261722
0.261802
0.261745
0.261984
0.261185
0.261191
0.261076
0.261178
0.261004
0.26111
0.261708
0.261594
0.261717
0.261124
0.260778
0.261187
0.261135
0.260561
0.260823
0.262742
0.262718
0.262853
0.262749
0.262832
0.261528
0.261527
0.261774
0.26167
0.261548
0.261629
0.257633
0.256561
0.261283
0.261293
0.261505
0.262837
0.262752
0.262853
0.262718
0.262748
0.26164
0.261705
0.261911
0.177981
0.191055
0.232249
0.239101
0.191708
0.207373
0.256355
0.254473
0.261682
0.261576
0.26144
0.239923
0.244069
0.26142
0.261268
0.261432
0.263008
0.262992
0.262867
0.262867
0.262993
0.263008
0.262739
0.262768
0.262743
0.262838
0.262753
0.262786
0.262407
0.262445
0.261056
0.261108
0.261084
0.261004
0.261144
0.254681
0.261371
0.258456
0.257754
0.257983
0.258616
0.260928
0.261834
0.262639
0.260175
0.262381
0.2597
0.262618
0.262452
0.262747
0.262768
0.262728
0.262068
0.262627
0.262637
0.261748
0.261699
0.262403
0.262381
0.261855
0.2619
0.262164
0.262402
0.26245
0.262339
0.262386
0.262155
0.262481
0.26253
0.26258
0.262466
0.262514
0.262463
0.261053
0.26106
0.261106
0.261079
0.259877
0.259964
0.261789
0.262155
0.262201
0.262093
0.26214
0.261776
0.261995
0.262277
0.262324
0.262216
0.262262
0.261984
0.179524
0.260947
0.195484
0.181146
0.212179
0.1963
0.260976
0.260655
0.182871
0.260692
0.261374
0.26136
0.26177
0.262031
0.262078
0.261968
0.262015
0.261775
0.222251
0.230758
0.261131
0.225739
0.213273
0.235855
0.227092
0.261146
0.208861
0.220949
0.261054
0.256743
0.25786
0.2549
0.256522
0.261069
0.254013
0.243241
0.244693
0.168894
0.244545
0.242649
0.206017
0.258356
0.258518
0.262814
0.261242
0.261231
0.261491
0.261383
0.261326
0.26143
0.217264
0.259935
0.260227
0.262814
0.261436
0.261535
0.261635
0.178032
0.180362
0.140435
0.242204
0.241636
0.182983
0.18739
0.25764
0.258304
0.140487
0.262914
0.26292
0.262849
0.262845
0.26292
0.262915
0.26246
0.262508
0.262458
0.262337
0.262394
0.262501
0.261945
0.262242
0.262194
0.262308
0.262259
0.261968
0.260802
0.261323
0.261136
0.260723
0.248807
0.246905
0.260908
0.258681
0.259133
0.260228
0.260107
0.177245
0.262787
0.262761
0.262843
0.262586
0.262494
0.262422
0.262648
0.262665
0.262718
0.262597
0.262647
0.26263
0.262194
0.262374
0.262324
0.262441
0.262391
0.262232
0.261978
0.255685
0.259598
0.252118
0.253015
0.261514
0.259986
0.260425
0.262283
0.26167
0.262048
0.262259
0.262413
0.26243
0.262308
0.262334
0.262116
0.262178
0.262129
0.261833
0.261022
0.248759
0.246222
0.261232
0.250785
0.251849
0.245819
0.246638
0.260999
0.260394
0.260252
0.261846
0.262152
0.262174
0.262053
0.262087
0.261802
0.262041
0.262275
0.2623
0.262182
0.262205
0.261936
0.261386
0.258559
0.258986
0.258272
0.257877
0.261305
0.261776
0.261903
0.261952
0.261836
0.261887
0.261764
0.261196
0.242515
0.236818
0.24905
0.24728
0.261197
0.20104
0.203359
0.261171
0.250966
0.249592
0.198298
0.200388
0.251123
0.249291
0.262781
0.262813
0.262793
0.247295
0.257237
0.248727
0.249569
0.249389
0.2571
0.2628
0.262786
0.262822
0.262771
0.262788
0.179439
0.183845
0.18011
0.178516
0.235559
0.189073
0.1872
0.194142
0.189607
0.236431
0.195666
0.198763
0.255645
0.255322
0.241997
0.201384
0.196675
0.187717
0.189866
0.262709
0.26273
0.262761
0.262688
0.262719
0.262697
0.262347
0.26249
0.260858
0.26127
0.261139
0.260742
0.255166
0.2589
0.258608
0.259202
0.258995
0.255072
0.257939
0.257712
0.258525
0.258097
0.258213
0.252249
0.253307
0.250326
0.251716
0.25811
0.245836
0.246766
0.26125
0.262572
0.262469
0.262676
0.262603
0.26153
0.261942
0.261752
0.2624
0.262022
0.262668
0.262728
0.262691
0.262645
0.262581
0.262586
0.262513
0.262596
0.262548
0.262639
0.262677
0.262567
0.262625
0.262666
0.26264
0.262598
0.254218
0.255054
0.261912
0.248532
0.245062
0.256422
0.249239
0.239649
0.235995
0.243951
0.24117
0.26156
0.253322
0.25399
0.259719
0.25899
0.261659
0.26031
0.258106
0.257268
0.258854
0.258319
0.262309
0.260528
0.260812
0.261718
0.262021
0.262377
0.262404
0.262216
0.262126
0.262342
0.262368
0.249187
0.249166
0.261033
0.228118
0.227795
0.213384
0.226425
0.225918
0.230197
0.227356
0.226143
0.249193
0.250425
0.261197
0.229781
0.225595
0.235075
0.231038
0.217362
0.212843
0.223949
0.219422
0.261018
0.247247
0.248709
0.26013
0.260178
0.262123
0.262145
0.261832
0.261785
0.262095
0.262115
0.262243
0.262267
0.26203
0.261948
0.262212
0.262236
0.182387
0.187519
0.248021
0.249992
0.245477
0.247322
0.182426
0.205915
0.252594
0.248935
0.250522
0.2521
0.202524
0.237105
0.238064
0.232786
0.236738
0.188162
0.243008
0.244981
0.238657
0.241925
0.188392
0.258282
0.258471
0.261385
0.256964
0.257535
0.257599
0.256926
0.257587
0.261311
0.257704
0.258057
0.22561
0.176492
0.17804
0.185578
0.17722
0.226842
0.180365
0.213205
0.178649
0.215244
0.255745
0.259443
0.259268
0.259651
0.259501
0.255875
0.253309
0.253613
0.204513
0.207125
0.191759
0.197342
0.252301
0.251536
0.262899
0.262918
0.263134
0.261396
0.261286
0.261111
0.262872
0.262876
0.262832
0.262824
0.262874
0.262872
0.263006
0.262999
0.262874
0.262576
0.262525
0.262484
0.262318
0.262101
0.262063
0.260657
0.261423
0.262048
0.261999
0.261749
0.259656
0.259496
0.260735
0.259067
0.259238
0.261385
0.262628
0.262645
0.262593
0.262199
0.262332
0.262567
0.262685
0.262652
0.262676
0.26248
0.261643
0.262142
0.261575
0.262022
0.26198
0.262269
0.262213
0.262222
0.262095
0.262448
0.262465
0.262407
0.261821
0.262113
0.262064
0.249924
0.248897
0.261097
0.260713
0.259919
0.259808
0.260469
0.261874
0.262065
0.262072
0.262063
0.262196
0.262204
0.26208
0.262088
0.261911
0.260588
0.251604
0.250488
0.261763
0.262025
0.262039
0.261663
0.261768
0.261819
0.17391
0.173682
0.252395
0.251371
0.261163
0.1745
0.174179
0.259162
0.259209
0.260748
0.262757
0.262757
0.176912
0.17704
0.178366
0.190061
0.192424
0.17449
0.175698
0.187968
0.185883
0.205267
0.252844
0.252483
0.254755
0.205033
0.202151
0.242558
0.26293
0.262924
0.262851
0.262726
0.262729
0.262736
0.262748
0.262666
0.262678
0.262772
0.262805
0.262787
0.262293
0.262272
0.262379
0.262465
0.262416
0.262382
0.260975
0.261161
0.25979
0.25987
0.261129
0.2609
0.25932
0.259571
0.255556
0.255604
0.256704
0.256556
0.254694
0.255735
0.255879
0.261382
0.259322
0.259554
0.26162
0.260692
0.26192
0.261766
0.262563
0.262494
0.262236
0.258121
0.257561
0.261387
0.260334
0.258853
0.262758
0.262738
0.262697
0.262703
0.262637
0.262677
0.262252
0.262626
0.262651
0.260905
0.261365
0.262463
0.256817
0.256137
0.261811
0.261943
0.262518
0.262535
0.262518
0.262418
0.262482
0.2625
0.261087
0.248839
0.249061
0.259846
0.260037
0.262144
0.262153
0.262007
0.261972
0.262128
0.262136
0.181101
0.194413
0.217359
0.218622
0.203167
0.204168
0.179596
0.252314
0.251791
0.260621
0.188737
0.186677
0.199984
0.199945
0.184739
0.202242
0.202663
0.185197
0.185665
0.261996
0.26201
0.261756
0.261764
0.261968
0.261982
0.219666
0.251083
0.251759
0.249654
0.250365
0.217515
0.257251
0.259458
0.25969
0.25955
0.259507
0.257425
0.255251
0.257122
0.256906
0.253516
0.252986
0.254159
0.176482
0.1791
0.179477
0.176112
0.24582
0.21112
0.20658
0.214875
0.212199
0.242009
0.242978
0.243399
0.253587
0.254485
0.258666
0.262805
0.262816
0.262795
0.177839
0.178471
0.202741
0.201255
0.140608
0.185573
0.180476
0.18067
0.178645
0.179682
0.186821
0.140376
0.250691
0.252166
0.262884
0.262878
0.26283
0.262175
0.262139
0.262328
0.262336
0.262417
0.262483
0.262375
0.262399
0.260738
0.261373
0.258329
0.25851
0.258455
0.258298
0.260726
0.25936
0.259245
0.248401
0.244795
0.244653
0.24559
0.24537
0.247871
0.262472
0.262532
0.262542
0.262508
0.262522
0.262448
0.261622
0.262205
0.261934
0.261832
0.262105
0.262231
0.262239
0.260018
0.260007
0.260621
0.260343
0.26205
0.262057
0.26186
0.262178
0.262187
0.262052
0.261924
0.262096
0.262104
0.258222
0.258954
0.258721
0.259085
0.259047
0.258105
0.173568
0.17379
0.175449
0.174877
0.19905
0.184839
0.184373
0.244875
0.24498
0.250566
0.246254
0.247072
0.244813
0.245398
0.249913
0.262776
0.262768
0.26277
0.262776
0.262804
0.262808
0.26282
0.262786
0.262794
0.262795
0.248443
0.253153
0.252898
0.253894
0.253507
0.248736
0.250621
0.251944
0.251411
0.252698
0.252434
0.250099
0.262795
0.262801
0.262789
0.262734
0.262703
0.262774
0.262761
0.176915
0.188035
0.179377
0.179412
0.17962
0.179069
0.20202
0.203256
0.188066
0.174529
0.17377
0.193589
0.17881
0.178172
0.178609
0.202259
0.181789
0.177535
0.253032
0.253515
0.255928
0.251571
0.251741
0.251162
0.251272
0.255013
0.252326
0.252526
0.188061
0.176466
0.177535
0.175658
0.175667
0.188674
0.262716
0.262726
0.26272
0.262678
0.262688
0.262706
0.262176
0.26236
0.262243
0.26221
0.262317
0.262347
0.262251
0.262286
0.260916
0.261215
0.258906
0.25902
0.258639
0.258773
0.26114
0.259891
0.259894
0.259163
0.259173
0.260804
0.259061
0.255991
0.255678
0.254873
0.256438
0.256281
0.257835
0.256131
0.256084
0.25665
0.256352
0.257772
0.258421
0.256874
0.257026
0.256267
0.256585
0.258272
0.255936
0.250784
0.254501
0.254234
0.24557
0.245998
0.261134
0.262064
0.261993
0.260973
0.261771
0.262325
0.26217
0.259033
0.258548
0.260782
0.260898
0.261819
0.260075
0.259559
0.262454
0.262542
0.262675
0.262607
0.262337
0.262017
0.262327
0.26257
0.262592
0.262605
0.262555
0.262572
0.262528
0.262483
0.262527
0.26265
0.262632
0.262618
0.262667
0.262644
0.262663
0.262583
0.262601
0.26257
0.262596
0.247646
0.246291
0.254455
0.245426
0.246619
0.243093
0.249879
0.23829
0.23707
0.242963
0.242104
0.259355
0.256105
0.256875
0.254574
0.255315
0.259143
0.261493
0.260239
0.260598
0.257321
0.259394
0.261113
0.255508
0.254342
0.257886
0.249399
0.250249
0.247904
0.248649
0.257639
0.258715
0.253325
0.253913
0.251187
0.252214
0.258526
0.261766
0.261985
0.228492
0.213394
0.215732
0.208508
0.210849
0.228214
0.216835
0.217003
0.217117
0.221994
0.226443
0.195704
0.19793
0.199518
0.195912
0.227864
0.226937
0.204362
0.206345
0.200461
0.202555
0.226542
0.228714
0.227458
0.234103
0.232475
0.215513
0.213852
0.222508
0.22127
0.259924
0.260106
0.262018
0.262161
0.26217
0.262112
0.26212
0.26196
0.182317
0.21261
0.215463
0.192217
0.179513
0.206143
0.209197
0.19327
0.190933
0.237384
0.212399
0.212643
0.234861
0.210055
0.205087
0.212704
0.212097
0.236096
0.19844
0.195768
0.199162
0.201339
0.186658
0.188757
0.194227
0.258377
0.259679
0.259609
0.259759
0.25972
0.258423
0.25715
0.257403
0.257355
0.256826
0.25678
0.257085
0.257665
0.259203
0.259124
0.259487
0.259337
0.257807
0.176774
0.18948
0.190506
0.188138
0.188787
0.177377
0.182487
0.197681
0.200221
0.19224
0.19479
0.179423
0.179973
0.175941
0.176538
0.177241
0.17644
0.179361
0.18552
0.18722
0.178813
0.182191
0.17935
0.257443
0.257307
0.255572
0.253244
0.253951
0.174879
0.176943
0.19397
0.179715
0.177064
0.183683
0.182349
0.195946
0.176348
0.17605
0.243779
0.244123
0.263498
0.263497
0.263643
0.263495
0.263494
0.263642
0.263495
0.263495
0.263642
0.263497
0.263499
0.263644
0.263208
0.263205
0.263352
0.263202
0.263199
0.263424
0.263196
0.263192
0.26342
0.263192
0.263198
0.263421
0.263201
0.263207
0.263426
0.263211
0.263214
0.263356
0.262922
0.262915
0.263132
0.26291
0.262895
0.263123
0.263041
0.263038
0.263157
0.26303
0.263034
0.263153
0.26305
0.263055
0.263128
0.262924
0.262932
0.263072
0.262641
0.262632
0.262844
0.262767
0.262765
0.262836
0.262813
0.262811
0.262848
0.262755
0.26277
0.262876
0.262647
0.262656
0.262793
0.262363
0.262356
0.262562
0.262489
0.262489
0.262557
0.262536
0.262536
0.262569
0.262489
0.262501
0.2626
0.262379
0.262385
0.26252
0.262086
0.262083
0.262288
0.262217
0.262219
0.262286
0.262274
0.262274
0.262306
0.262238
0.262243
0.262339
0.262114
0.262114
0.262249
0.261808
0.261808
0.262014
0.261945
0.261949
0.262017
0.262011
0.262013
0.262046
0.261984
0.261982
0.262081
0.261846
0.261843
0.261979
0.261527
0.261528
0.261738
0.26174
0.261741
0.261775
0.261716
0.261711
0.261813
0.261571
0.261567
0.261705
0.261243
0.261242
0.261457
0.261431
0.261435
0.261505
0.261288
0.261286
0.261427
0.260952
0.260945
0.26109
0.260947
0.260936
0.261155
0.261077
0.260982
0.261097
0.188871
0.256363
0.256829
0.260987
0.261004
0.261221
0.260996
0.261002
0.261144
0.260664
0.260657
0.260801
0.26066
0.260645
0.260863
0.260636
0.206963
0.206099
0.239105
0.260674
0.2609
0.26069
0.260712
0.260928
0.260706
0.260713
0.260857
0.260372
0.260363
0.260508
0.260149
0.23181
0.207181
0.24925
0.260258
0.260598
0.260404
0.260421
0.260566
0.262603
0.262637
0.262637
0.262648
0.262659
0.262606
0.262853
0.262817
0.262819
0.262339
0.262371
0.262372
0.262393
0.262393
0.262346
0.262589
0.262539
0.262551
0.262079
0.262111
0.26211
0.262144
0.262145
0.262099
0.262331
0.262284
0.2623
0.26181
0.261844
0.261843
0.261886
0.261891
0.261843
0.262083
0.262036
0.262049
0.261612
0.261606
0.261571
0.26181
0.261777
0.261785
0.261135
0.261291
0.261345
0.140619
0.193671
0.193674
0.235802
0.236009
0.140577
0.261536
0.2615
0.261505
0.262874
0.262998
0.263002
0.262836
0.262836
0.262825
0.263153
0.263034
0.263029
0.262835
0.262837
0.26293
0.262927
0.262889
0.263158
0.26304
0.263044
0.262626
0.262695
0.262697
0.262712
0.262693
0.262624
0.262833
0.262762
0.262748
0.262731
0.262727
0.262695
0.262842
0.262821
0.262826
0.262634
0.262736
0.26272
0.26271
0.26271
0.262643
0.262846
0.262777
0.262778
0.262354
0.262421
0.262421
0.26244
0.262422
0.262355
0.262556
0.262489
0.262473
0.26247
0.262503
0.262503
0.262409
0.262451
0.262432
0.262563
0.262545
0.262528
0.262522
0.262494
0.262529
0.262371
0.262468
0.262457
0.262442
0.262446
0.262381
0.262577
0.262511
0.262508
0.262085
0.262152
0.262149
0.262177
0.262155
0.262088
0.262288
0.262222
0.26221
0.262209
0.262241
0.262241
0.261905
0.262132
0.262116
0.262241
0.262221
0.262022
0.262114
0.262211
0.262207
0.26218
0.262187
0.262122
0.262317
0.262252
0.262246
0.261812
0.261881
0.261876
0.261911
0.261886
0.261817
0.262021
0.261954
0.261945
0.261946
0.261979
0.261978
0.26174
0.261982
0.261933
0.261979
0.261964
0.261768
0.261166
0.259977
0.260096
0.261848
0.261948
0.261951
0.261916
0.261924
0.261857
0.262057
0.261991
0.261983
0.26113
0.259818
0.259931
0.260861
0.260872
0.261393
0.261575
0.261644
0.261682
0.261644
0.261652
0.261583
0.26179
0.261721
0.261713
0.260867
0.260246
0.260233
0.260303
0.260297
0.260967
0.260869
0.260943
0.261003
0.178023
0.26006
0.25989
0.241715
0.241658
0.1567
0.259801
0.259899
0.218304
0.261049
0.260731
0.260757
0.261046
0.260774
0.261131
0.26259
0.262599
0.262581
0.262716
0.262663
0.262646
0.262672
0.262671
0.262705
0.262677
0.262651
0.262695
0.262826
0.262823
0.262843
0.262707
0.262727
0.262731
0.262566
0.26255
0.262538
0.262702
0.262691
0.262695
0.262712
0.262678
0.26268
0.262683
0.262688
0.262706
0.262585
0.262602
0.262594
0.262121
0.262282
0.262261
0.262411
0.26239
0.262309
0.262404
0.262404
0.262437
0.262105
0.261674
0.261798
0.260173
0.260245
0.261427
0.261881
0.261943
0.262226
0.262457
0.262409
0.262425
0.26235
0.262392
0.262405
0.262528
0.262552
0.262569
0.262415
0.262425
0.262388
0.262519
0.262522
0.262473
0.261798
0.262008
0.261994
0.2621
0.262085
0.261859
0.262143
0.262144
0.262177
0.260997
0.259426
0.259386
0.259825
0.259776
0.261124
0.261306
0.260035
0.260103
0.259365
0.259363
0.26098
0.262207
0.262161
0.262175
0.261988
0.261992
0.261818
0.262269
0.262269
0.262223
0.260882
0.255665
0.254937
0.258719
0.258564
0.26103
0.261174
0.259926
0.259876
0.254714
0.253923
0.260772
0.261393
0.260817
0.260842
0.260229
0.260336
0.261276
0.261956
0.261907
0.261919
0.261738
0.261909
0.261924
0.261816
0.261832
0.261736
0.261788
0.261975
0.261981
0.261939
0.261953
0.261754
0.262017
0.26202
0.261972
0.26119
0.25986
0.259781
0.260209
0.260165
0.261194
0.261096
0.259004
0.258863
0.259694
0.259598
0.261169
0.261022
0.260309
0.260307
0.259964
0.260046
0.261097
0.261693
0.261784
0.2618
0.2617
0.26175
0.261645
0.261751
0.261743
0.26171
0.261081
0.253341
0.25268
0.25115
0.252782
0.261042
0.261184
0.260285
0.26025
0.260711
0.259198
0.259141
0.26274
0.262775
0.262777
0.262774
0.262789
0.262734
0.262844
0.262807
0.262794
0.262827
0.262814
0.262819
0.261634
0.261608
0.261537
0.261748
0.261678
0.261669
0.261671
0.261706
0.261705
0.261585
0.261692
0.261658
0.26176
0.261726
0.261597
0.257503
0.255908
0.256131
0.254441
0.25479
0.256764
0.261291
0.261363
0.261395
0.262824
0.26282
0.262834
0.262739
0.262756
0.262765
0.262793
0.262809
0.262866
0.262736
0.262791
0.262773
0.262783
0.262782
0.262746
0.261669
0.261849
0.261794
0.261916
0.261867
0.261678
0.261877
0.261878
0.261912
0.233506
0.218928
0.217635
0.225688
0.224365
0.238198
0.256152
0.253819
0.254103
0.261675
0.261641
0.261647
0.26152
0.26163
0.261681
0.261558
0.261612
0.2615
0.240704
0.228259
0.227011
0.233563
0.232745
0.243579
0.261356
0.261487
0.261523
0.261415
0.261451
0.261334
0.261469
0.261464
0.261427
0.26301
0.262943
0.262939
0.26295
0.262947
0.263013
0.262856
0.262925
0.26293
0.262888
0.262885
0.262864
0.263012
0.262947
0.262951
0.26294
0.262943
0.263009
0.26277
0.262737
0.262749
0.2628
0.262816
0.262838
0.262758
0.262769
0.262763
0.262806
0.262802
0.262782
0.259606
0.259768
0.261137
0.261376
0.260925
0.260933
0.258386
0.257293
0.257412
0.256337
0.256516
0.257863
0.258303
0.259616
0.259586
0.259661
0.25964
0.258389
0.260948
0.260289
0.26028
0.26257
0.262633
0.262659
0.262593
0.26238
0.262538
0.262515
0.262638
0.262603
0.262756
0.262744
0.262731
0.262749
0.262745
0.262764
0.262618
0.262607
0.262617
0.262647
0.262639
0.262628
0.2608
0.260893
0.261798
0.261653
0.260634
0.260715
0.262255
0.262297
0.262424
0.262358
0.262171
0.262213
0.262286
0.262297
0.262175
0.262418
0.26241
0.262394
0.262443
0.262426
0.262434
0.262355
0.262346
0.26233
0.262378
0.262362
0.26237
0.262145
0.262267
0.262276
0.262501
0.262512
0.262495
0.262547
0.262541
0.262525
0.262574
0.262558
0.262563
0.262482
0.262475
0.262459
0.262508
0.262492
0.262498
0.262444
0.262477
0.262489
0.259604
0.25959
0.261047
0.261068
0.259636
0.259619
0.259654
0.259713
0.261135
0.261057
0.259545
0.259597
0.26202
0.262027
0.261804
0.26217
0.262161
0.262145
0.262191
0.262176
0.262186
0.262109
0.2621
0.262084
0.26213
0.262115
0.262124
0.261768
0.262007
0.262013
0.262293
0.262283
0.262268
0.262315
0.262299
0.262308
0.262231
0.262222
0.262206
0.262252
0.262237
0.262247
0.25803
0.255918
0.260917
0.210802
0.2299
0.231352
0.219688
0.22087
0.197459
0.261004
0.258388
0.258209
0.260732
0.253574
0.25255
0.260661
0.260697
0.261383
0.261341
0.260543
0.260607
0.261942
0.261945
0.261763
0.262047
0.262038
0.262023
0.262069
0.262054
0.262062
0.261984
0.261976
0.26196
0.262007
0.261992
0.261999
0.261777
0.261932
0.261937
0.22339
0.206275
0.205176
0.21606
0.214185
0.229504
0.259268
0.25914
0.261115
0.224051
0.240157
0.241196
0.232529
0.233732
0.214399
0.232122
0.253433
0.25392
0.252354
0.252904
0.230771
0.261158
0.259494
0.259385
0.210135
0.190019
0.189108
0.203823
0.201895
0.219347
0.260307
0.260308
0.261038
0.256916
0.258197
0.258085
0.258847
0.258769
0.25773
0.257954
0.257812
0.256271
0.261082
0.260294
0.260301
0.243798
0.218285
0.215698
0.22138
0.21928
0.244321
0.245
0.235206
0.234393
0.258312
0.254724
0.255223
0.257524
0.25763
0.258573
0.261309
0.261322
0.261246
0.261466
0.261394
0.261383
0.261361
0.261409
0.261373
0.261481
0.261445
0.261396
0.253739
0.25364
0.216019
0.25998
0.258815
0.258787
0.258928
0.258862
0.260056
0.26148
0.261553
0.261517
0.261623
0.261588
0.261495
0.261599
0.2616
0.261635
0.171414
0.166727
0.140653
0.241715
0.221783
0.216963
0.222098
0.221864
0.241599
0.258088
0.251972
0.250945
0.255051
0.255906
0.258289
0.140316
0.206001
0.220082
0.262916
0.26289
0.262887
0.262896
0.262895
0.262919
0.262838
0.262882
0.262873
0.262858
0.262856
0.262842
0.262919
0.262893
0.262896
0.262887
0.262889
0.262915
0.26249
0.262471
0.262435
0.262491
0.262484
0.262502
0.26245
0.262467
0.262475
0.262514
0.262471
0.262456
0.262166
0.262149
0.261924
0.262226
0.262208
0.262225
0.262176
0.262192
0.26221
0.262291
0.262275
0.262292
0.262241
0.262258
0.262275
0.261994
0.262202
0.262183
0.259895
0.259912
0.261141
0.260269
0.260258
0.260887
0.259058
0.259688
0.259676
0.259701
0.259696
0.259098
0.260191
0.254114
0.251211
0.253975
0.254069
0.26015
0.176416
0.231432
0.230888
0.262783
0.262803
0.262807
0.262795
0.262798
0.262778
0.262839
0.262819
0.262807
0.26257
0.26256
0.262576
0.262653
0.26267
0.262666
0.262682
0.262676
0.262659
0.262712
0.262694
0.2627
0.262613
0.262608
0.262591
0.262642
0.262625
0.26263
0.262612
0.262619
0.262636
0.262325
0.262303
0.262158
0.262357
0.262344
0.262362
0.262309
0.262326
0.262341
0.262424
0.262415
0.262432
0.262379
0.262397
0.262407
0.26227
0.262368
0.262347
0.261301
0.261497
0.262045
0.256904
0.260143
0.25958
0.261053
0.260716
0.258685
0.252401
0.257707
0.257581
0.257974
0.257838
0.252703