/*--------------------------------*- C++ -*----------------------------------*\
| =========                 |                                                 |
| \\      /  F ield         | OpenFOAM: The Open Source CFD Toolbox           |
|  \\    /   O peration     | Version:  5.x                                   |
|   \\  /    A nd           | Web:      www.OpenFOAM.org                      |
|    \\/     M anipulation  |                                                 |
\*---------------------------------------------------------------------------*/
FoamFile
{
    version     2.0;
    format      ascii;
    class       volScalarField;
    location    "500";
    object      Y;
}
// * * * * * * * * * * * * * * * * * * * * * * * * * * * * * * * * * * * * * //

dimensions      [0 0 0 0 0 0 0];

internalField   nonuniform List<scalar> 
6584
(
0.00632781
0.00632781
0.00632781
0.00632781
0.00632781
0.00632781
0.00632781
0.00632782
0.00632782
0.00632782
0.00632782
0.00632782
0.00632782
0.00632782
0.00632782
0.00632782
0.00632782
0.00632781
0.00632781
0.00632781
0.00632781
0.00632781
0.00632781
0.00632781
0.00632561
0.00632561
0.00632561
0.00632562
0.00632562
0.00632562
0.00632562
0.00632563
0.00632563
0.00632563
0.00632563
0.00632563
0.00632564
0.00632564
0.00632563
0.00632563
0.00632563
0.00632563
0.00632562
0.00632562
0.00632562
0.00632561
0.00632561
0.00632561
0.00632341
0.00632342
0.00632342
0.00632342
0.00632342
0.00632342
0.00632343
0.00632344
0.00632345
0.00632454
0.00632454
0.00632454
0.00632454
0.00632454
0.00632454
0.00632345
0.00632344
0.00632344
0.00632343
0.00632343
0.00632342
0.00632342
0.00632342
0.00632341
0.00632122
0.00632122
0.00632122
0.00632122
0.00632123
0.00632123
0.00632124
0.00632125
0.00632126
0.00632235
0.00632235
0.00632234
0.00632234
0.00632235
0.00632235
0.00632235
0.00632125
0.00632124
0.00632124
0.00632123
0.00632123
0.00632123
0.00632122
0.00632122
0.00631902
0.00631902
0.00631903
0.00631903
0.00631903
0.00631904
0.00631904
0.00631904
0.00632015
0.00632015
0.00632014
0.00632013
0.00632013
0.00632014
0.00632016
0.00632016
0.00632016
0.00631906
0.00631905
0.00631904
0.00631904
0.00631903
0.00631903
0.00631903
0.00631683
0.00631683
0.00631683
0.00631684
0.00631684
0.00631685
0.00631685
0.00631794
0.00631794
0.00631793
0.00631847
0.00631845
0.00631845
0.00631847
0.00631795
0.00631797
0.00631797
0.00631689
0.00631687
0.00631686
0.00631685
0.00631684
0.00631684
0.00631683
0.00631464
0.00631464
0.00631464
0.00631465
0.00631465
0.00631466
0.00631467
0.00631576
0.00631574
0.00631573
0.00631621
0.00631644
0.00631641
0.00631621
0.00631631
0.00631581
0.00631581
0.00631473
0.00631469
0.00631468
0.00631466
0.00631465
0.00631465
0.00631464
0.00631244
0.00631245
0.00631245
0.00631246
0.00631247
0.00631248
0.0063125
0.00631358
0.00631356
0.00631356
0.006314
0.0063141
0.00631422
0.00631415
0.00631367
0.00631366
0.00631257
0.00631253
0.0063125
0.00631248
0.00631247
0.00631246
0.00631245
0.00631025
0.00631026
0.00631026
0.00631027
0.00631028
0.0063103
0.00631033
0.00631141
0.00631141
0.00631143
0.00631186
0.00631195
0.00631214
0.00631207
0.00631157
0.00631153
0.00631043
0.00631036
0.00631033
0.0063103
0.00631028
0.00631027
0.00631026
0.00630806
0.00630807
0.00630808
0.00630809
0.0063081
0.00630812
0.00630816
0.00630924
0.00630926
0.00630932
0.00630978
0.00630995
0.00631023
0.00631005
0.00630949
0.00630941
0.00630828
0.0063082
0.00630815
0.00630812
0.0063081
0.00630808
0.00630807
0.00630587
0.00630588
0.00630589
0.0063059
0.00630592
0.00630595
0.006306
0.00630708
0.00630712
0.0063072
0.00630771
0.00630796
0.00630833
0.00630805
0.00630741
0.0063073
0.00630613
0.00630604
0.00630598
0.00630594
0.00630591
0.00630589
0.00630588
0.00630368
0.00630369
0.0063037
0.00630372
0.00630374
0.00630377
0.00630383
0.00630492
0.00630497
0.00630508
0.00630562
0.00630591
0.00630636
0.006306
0.00630532
0.00630517
0.00630398
0.00630387
0.0063038
0.00630376
0.00630372
0.0063037
0.00630368
0.00630149
0.0063015
0.00630151
0.00630153
0.00630156
0.0063016
0.00630166
0.00630275
0.00630282
0.00630293
0.00630348
0.00630378
0.00630426
0.00630389
0.00630319
0.00630304
0.00630182
0.0063017
0.00630163
0.00630157
0.00630153
0.00630151
0.00630149
0.0062993
0.00629931
0.00629933
0.00629935
0.00629938
0.00629942
0.00629948
0.00629951
0.00630064
0.00630073
0.00630126
0.00630148
0.00501288
0.00630174
0.00630173
0.00630104
0.00630088
0.00629966
0.00629953
0.00629945
0.00629938
0.00629934
0.00629931
0.00629929
0.00629711
0.00629712
0.00629714
0.00629716
0.00629719
0.00629723
0.00629729
0.00629731
0.00629842
0.00629852
0.00629905
0.00629897
0.0059782
0.00629953
0.00629894
0.00629886
0.00629755
0.00629746
0.00629733
0.00629725
0.00629719
0.00629714
0.00629711
0.00629708
0.00629492
0.00629493
0.00629495
0.00629497
0.00629501
0.00629504
0.00629509
0.00629511
0.00629623
0.00629633
0.00629632
0.00629674
0.00600189
0.00629677
0.00629675
0.00629667
0.00629537
0.00629527
0.00629513
0.00629505
0.00629499
0.00629494
0.00629491
0.00629488
0.00629273
0.00629274
0.00629276
0.00629279
0.00629282
0.00629285
0.00629289
0.00629293
0.00629299
0.00629414
0.00629413
0.00628876
0.00615511
0.00629456
0.00629455
0.00629448
0.00629317
0.00629307
0.00629293
0.00629285
0.00629278
0.00629273
0.0062927
0.00629267
0.00629054
0.00629055
0.00629057
0.0062906
0.00629063
0.00629066
0.0062907
0.00629075
0.00629081
0.00629085
0.00629195
0.00628354
0.00615636
0.00629236
0.00629126
0.00629111
0.00629097
0.00629087
0.00629073
0.00629064
0.00629057
0.00629052
0.00629049
0.00629045
0.00628834
0.00628836
0.00628838
0.00628841
0.00628844
0.00628847
0.00628852
0.00628857
0.00628863
0.00628867
0.00628776
0.00609889
0.00622373
0.00628908
0.00628907
0.00628891
0.00628877
0.00628867
0.00628853
0.00628843
0.00628836
0.00628831
0.00628828
0.00628824
0.00628615
0.00628617
0.00628619
0.00628622
0.00628625
0.00628628
0.00628634
0.00628639
0.00628645
0.00628648
0.00628478
0.00609753
0.00622198
0.00628689
0.00628687
0.00628672
0.00628657
0.00628646
0.00628632
0.00628622
0.00628615
0.0062861
0.00628606
0.00628602
0.00628396
0.00628398
0.006284
0.00628403
0.00628406
0.00628409
0.00628415
0.00628421
0.00628427
0.0062843
0.00628185
0.00609609
0.00622018
0.00628469
0.00628468
0.00628452
0.00628437
0.00628426
0.00628411
0.00628401
0.00628394
0.00628388
0.00628385
0.00628381
0.00628177
0.00628179
0.00628181
0.00628184
0.00628188
0.00628191
0.00628197
0.00628203
0.0062821
0.00628211
0.00627893
0.0060946
0.00621832
0.00628249
0.00628249
0.00628233
0.00628217
0.00628205
0.0062819
0.0062818
0.00628173
0.00628167
0.00628163
0.00628159
0.00627958
0.0062796
0.00627962
0.00627965
0.00627969
0.00627972
0.00627979
0.00627985
0.00627992
0.00627992
0.00627605
0.00609306
0.00621643
0.0062803
0.0062803
0.00628013
0.00627997
0.00627985
0.00627969
0.00627959
0.00627951
0.00627945
0.00627941
0.00627937
0.00627739
0.00627741
0.00627743
0.00627746
0.0062775
0.00627754
0.00627761
0.00627768
0.00627775
0.00627774
0.00627321
0.00609148
0.0062145
0.00627811
0.00627811
0.00627794
0.00627777
0.00627764
0.00627749
0.00627738
0.0062773
0.00627724
0.0062772
0.00627715
0.0062752
0.00627522
0.00627524
0.00627528
0.00627532
0.00627536
0.00627544
0.0062755
0.00627558
0.00627555
0.00627039
0.00608986
0.00621255
0.00627591
0.00627592
0.00627575
0.00627557
0.00627544
0.00627528
0.00627517
0.00627508
0.00627502
0.00627498
0.00627493
0.00627301
0.00627303
0.00627305
0.00627309
0.00627313
0.00627318
0.00627326
0.00627332
0.00627341
0.00627336
0.00626752
0.00608827
0.00621061
0.00627372
0.00627373
0.00627356
0.00627337
0.00627324
0.00627307
0.00627295
0.00627287
0.0062728
0.00627276
0.00627271
0.00627082
0.00627084
0.00627086
0.0062709
0.00627095
0.00627099
0.00627108
0.00627115
0.00627124
0.00627117
0.00626462
0.00608672
0.00620868
0.00627154
0.00627155
0.00627137
0.00627117
0.00627103
0.00627086
0.00627075
0.00627066
0.00627059
0.00627055
0.0062705
0.00626863
0.00626865
0.00626868
0.00626872
0.00626877
0.00626881
0.0062689
0.00626898
0.00626907
0.00626897
0.00626173
0.00608515
0.00620675
0.00626935
0.00626936
0.00626918
0.00626898
0.00626883
0.00626866
0.00626854
0.00626845
0.00626837
0.00626833
0.00626828
0.00626644
0.00626646
0.00626649
0.00626653
0.00626658
0.00626663
0.00626673
0.00626681
0.0062669
0.00626678
0.00625887
0.00608357
0.0062048
0.00626716
0.00626718
0.00626699
0.00626678
0.00626663
0.00626645
0.00626633
0.00626623
0.00626616
0.00626611
0.00626607
0.00626425
0.00626427
0.0062643
0.00626434
0.0062644
0.00626445
0.00626455
0.00626464
0.00626474
0.00626458
0.00625602
0.00608197
0.00620284
0.00626498
0.006265
0.00626481
0.00626459
0.00626443
0.00626424
0.00626412
0.00626402
0.00626395
0.0062639
0.00626385
0.00626206
0.00626209
0.00626212
0.00626216
0.00626222
0.00626227
0.00626238
0.00626247
0.00626257
0.00626239
0.00625318
0.00608036
0.00620088
0.00626279
0.00626282
0.00626262
0.00626239
0.00626223
0.00626204
0.00626191
0.00626181
0.00626173
0.00626168
0.00626164
0.00625988
0.0062599
0.00625993
0.00625998
0.00626003
0.0062601
0.00626021
0.0062603
0.00626041
0.00626019
0.00625035
0.00607874
0.00619891
0.00626061
0.00626063
0.00626043
0.0062602
0.00626003
0.00625983
0.0062597
0.00625959
0.00625952
0.00625947
0.00625942
0.00625769
0.00625771
0.00625775
0.00625779
0.00625785
0.00625792
0.00625804
0.00625813
0.00625824
0.00625798
0.00624752
0.00607713
0.00619694
0.00625842
0.00625845
0.00625824
0.006258
0.00625782
0.00625762
0.00625749
0.00625738
0.0062573
0.00625725
0.0062572
0.0062555
0.00625553
0.00625556
0.00625561
0.00625567
0.00625575
0.00625586
0.00625596
0.00625608
0.00625578
0.00624469
0.00607551
0.00619497
0.00625624
0.00625627
0.00625605
0.0062558
0.00625562
0.00625541
0.00625528
0.00625516
0.00625508
0.00625503
0.00625498
0.00625332
0.00625334
0.00625338
0.00625342
0.00625349
0.00625357
0.00625369
0.0062538
0.00625391
0.00625357
0.00624183
0.00607391
0.00619301
0.00625405
0.00625409
0.00625386
0.00625361
0.00625342
0.00625321
0.00625306
0.00625295
0.00625287
0.00625281
0.00625277
0.00625113
0.00625116
0.00625119
0.00625124
0.00625131
0.0062514
0.00625152
0.00625163
0.00625175
0.00625136
0.00623895
0.00607232
0.00619104
0.00625186
0.0062519
0.00625168
0.00625141
0.00625122
0.006251
0.00625085
0.00625074
0.00625065
0.00625059
0.00625055
0.00631221
0.00631236
0.00631417
0.0063102
0.00631046
0.00631212
0.00630821
0.00630858
0.00631023
0.00630617
0.00630663
0.00630834
0.00630405
0.00630455
0.00630638
0.00630177
0.00477685
0.00495469
0.00630235
0.00630428
0.00631438
0.00631641
0.00631444
0.00631647
0.00631239
0.00631225
0.00631415
0.00631309
0.00631409
0.00631238
0.00631255
0.00631411
0.0063103
0.00631021
0.00631199
0.00631119
0.00630886
0.00631148
0.00630771
0.0063115
0.00631046
0.00631054
0.00631204
0.00630823
0.00630821
0.00630996
0.0063092
0.00629923
0.00630172
0.00627243
0.00628997
0.00630857
0.00630856
0.00631005
0.00630615
0.00630617
0.00630796
0.0063072
0.00630056
0.00629964
0.00629784
0.00628255
0.00630662
0.00630654
0.00630806
0.00630373
0.00630417
0.00630453
0.00630446
0.00630603
0.00630291
0.00630355
0.00629953
0.00517575
0.0047873
0.00570962
0.00630008
0.00630205
0.00631175
0.00631295
0.006313
0.0063129
0.00631083
0.00631407
0.00631304
0.00631165
0.00631302
0.0063131
0.006313
0.00631195
0.00630241
0.0063082
0.00631094
0.00630193
0.00627991
0.00631017
0.00630299
0.00629102
0.00630752
0.00631117
0.00630929
0.00630465
0.00631184
0.00630943
0.0063114
0.00629951
0.00629919
0.00630896
0.00627176
0.0062807
0.00627885
0.00627142
0.00628192
0.00627133
0.00630929
0.0063027
0.00630358
0.00630455
0.00630282
0.00630953
0.00627576
0.00628495
0.00628142
0.00627426
0.00630405
0.00629868
0.00630737
0.00630527
0.00630577
0.00630362
0.00630518
0.00630762
0.00629273
0.00629576
0.00628606
0.00629212
0.00630361
0.00630377
0.0063057
0.00630514
0.0063056
0.00629758
0.00629361
0.00629608
0.00629749
0.00630183
0.00630278
0.00631327
0.00631309
0.00631412
0.00631325
0.00631398
0.00630402
0.00630404
0.00630591
0.00630513
0.00630215
0.00630171
0.00625585
0.00622936
0.00630233
0.00630232
0.00630393
0.006314
0.00631325
0.00631415
0.00631313
0.00631336
0.0063016
0.0063007
0.00630695
0.00452107
0.00479353
0.00570753
0.00585305
0.00481092
0.00517063
0.00622413
0.00617375
0.00630534
0.00630504
0.00630426
0.00587118
0.00596492
0.00630414
0.00630323
0.00630346
0.00631531
0.00631518
0.00631423
0.00631425
0.0063152
0.00631531
0.00631313
0.0063135
0.00631324
0.00631403
0.00631334
0.00631364
0.00630915
0.00630998
0.00628174
0.00628274
0.00629269
0.00629092
0.00630351
0.00617682
0.00630466
0.00627521
0.00625875
0.00626242
0.00627726
0.00630331
0.00628391
0.00631238
0.00622793
0.00630285
0.00621199
0.00631211
0.00630506
0.00631319
0.00631347
0.00631271
0.00629181
0.00631239
0.00631248
0.00628993
0.00628854
0.00630814
0.00630763
0.00629771
0.00629864
0.00630532
0.00631074
0.00631111
0.00631027
0.00631062
0.00630525
0.00631086
0.00631172
0.0063121
0.00631123
0.0063116
0.00631054
0.00627592
0.00627641
0.00627298
0.00627238
0.00625962
0.00626107
0.00630188
0.0063089
0.00630924
0.00630845
0.00630879
0.00630182
0.00630379
0.00630981
0.00631015
0.00630935
0.00630969
0.00630368
0.00454416
0.00628003
0.00483009
0.00453457
0.00519418
0.00484941
0.00628132
0.00626799
0.00456262
0.00626951
0.00630255
0.00630219
0.00630438
0.00630799
0.00630834
0.00630753
0.00630788
0.00630456
0.00550405
0.0056776
0.00628904
0.00551945
0.00522097
0.00575646
0.00555329
0.00628991
0.00520838
0.00547686
0.00630375
0.00623231
0.0062595
0.00618317
0.00622674
0.00630378
0.0061611
0.00596822
0.00600083
0.00495559
0.00597566
0.00595531
0.00528184
0.0062744
0.00627671
0.00631383
0.00630184
0.00630178
0.00630377
0.00630296
0.00630191
0.00630257
0.0056212
0.00629909
0.00630112
0.00631382
0.00630205
0.00630217
0.00630486
0.00478001
0.00482289
0.0046525
0.00596809
0.00596624
0.00488042
0.00498691
0.00626383
0.00627366
0.00425357
0.00631459
0.00631464
0.00631409
0.00631408
0.00631465
0.00631461
0.00631024
0.00631147
0.00631108
0.00630795
0.00630739
0.00631084
0.00629978
0.00630936
0.00630899
0.00630987
0.00630948
0.00630012
0.00627656
0.00628697
0.00629568
0.00628407
0.00603824
0.00598648
0.00630321
0.0062788
0.0062887
0.00628398
0.00628356
0.00510986
0.00631362
0.00631338
0.00631405
0.00631196
0.00630951
0.00630801
0.0063126
0.00631273
0.00631313
0.00631222
0.0063126
0.00631245
0.00630477
0.0063104
0.00631
0.00631094
0.00631054
0.0063056
0.00629672
0.0060849
0.00621545
0.00597861
0.00600497
0.00628339
0.00622869
0.00624313
0.00630527
0.0062939
0.00630169
0.00630704
0.00631064
0.00631078
0.00630974
0.00630995
0.00630492
0.00630887
0.00630851
0.00629922
0.00627385
0.00589812
0.00581733
0.00627597
0.00593993
0.00597081
0.00580316
0.00582391
0.00627094
0.0062733
0.00626543
0.00630232
0.00630863
0.00630877
0.00630788
0.00630823
0.00630292
0.00630423
0.00630948
0.00630967
0.00630882
0.00630898
0.0063032
0.00630353
0.00626175
0.00627129
0.00624892
0.00624243
0.00630044
0.00630596
0.00630705
0.00630741
0.00630655
0.00630693
0.00630592
0.00629427
0.00590182
0.00577769
0.00603983
0.00599828
0.00629469
0.005294
0.00534789
0.00629687
0.00608742
0.00605297
0.00522848
0.00527805
0.00610013
0.00605153
0.00631358
0.00631383
0.00631369
0.00598966
0.00624621
0.00602555
0.00604936
0.00604316
0.00624281
0.00631371
0.00631354
0.00631389
0.00631327
0.00631361
0.00455198
0.00464161
0.00481866
0.00479073
0.00577614
0.00498132
0.00494507
0.00508241
0.00499298
0.00579504
0.00490693
0.00497549
0.00620568
0.0061972
0.00591758
0.00522829
0.00513079
0.00500061
0.00505884
0.00631279
0.00631319
0.00631345
0.0063128
0.00631311
0.0063126
0.00630806
0.00631069
0.00627762
0.00628592
0.00629516
0.00628503
0.00618826
0.00627542
0.00626856
0.00628252
0.00627755
0.00618606
0.00625262
0.00624591
0.0062664
0.00625636
0.00626947
0.00612361
0.00615239
0.00607028
0.00610915
0.00626706
0.00595784
0.00597701
0.00626454
0.00630995
0.00630725
0.00631242
0.00631073
0.00627412
0.00629066
0.00628506
0.00630519
0.00629308
0.0063116
0.00631313
0.00631266
0.00631069
0.00630876
0.00631146
0.00630989
0.00631207
0.00631034
0.00631212
0.00631267
0.00631072
0.00631191
0.00631272
0.00631229
0.00631162
0.00604013
0.00606496
0.00629473
0.00585387
0.00575331
0.00610583
0.00587618
0.00560617
0.00551427
0.00572211
0.00564483
0.00628466
0.00601411
0.00603352
0.00621664
0.006193
0.00628216
0.00623652
0.00616311
0.00613415
0.00618862
0.00617049
0.00630591
0.0062464
0.00625525
0.00629489
0.00630115
0.00631031
0.00631056
0.00630612
0.00630501
0.00631002
0.00631024
0.00591491
0.00591179
0.00627447
0.00538256
0.00537721
0.00502533
0.00534003
0.00533526
0.0054452
0.00536845
0.00534169
0.00589455
0.00592958
0.00627512
0.00536793
0.00527552
0.00549122
0.00539675
0.00510499
0.00501089
0.00524042
0.00514616
0.00627121
0.00584046
0.00588092
0.00626734
0.00626423
0.00630844
0.00630858
0.00630219
0.00630247
0.00630827
0.0063084
0.00630925
0.00630942
0.00630412
0.00630331
0.00630903
0.00630919
0.00457242
0.00466409
0.00592992
0.00598535
0.00585797
0.00591034
0.00456091
0.005056
0.00605989
0.00597695
0.00600062
0.00604576
0.00498411
0.00562488
0.00565394
0.00551093
0.00561408
0.00464377
0.00578815
0.0058435
0.00567071
0.0057589
0.00464023
0.00625327
0.00625938
0.00630333
0.00622654
0.00623921
0.00624275
0.00622598
0.00623932
0.00630086
0.00623878
0.00624812
0.00557353
0.00477718
0.00480568
0.00491682
0.00478087
0.00559857
0.00482146
0.00531358
0.0048109
0.00535765
0.00620612
0.00628807
0.00628404
0.00629278
0.0062894
0.0062099
0.00614151
0.00614951
0.00537176
0.00543002
0.00509738
0.00520764
0.00613244
0.00611116
0.0063145
0.00631464
0.00631628
0.00630319
0.006303
0.00630213
0.00631427
0.0063143
0.00631396
0.00631392
0.0063143
0.00631428
0.0063153
0.00631525
0.00631431
0.006312
0.00631161
0.00631061
0.00630779
0.00630208
0.00630126
0.00627361
0.00628894
0.0063079
0.00630755
0.00629999
0.00626201
0.00625921
0.006283
0.00627339
0.00627822
0.00630445
0.00631236
0.00631253
0.00631213
0.00630002
0.00630372
0.00631133
0.00631282
0.00631244
0.0063128
0.00630979
0.00628212
0.00629837
0.00629198
0.00630041
0.0062995
0.00630699
0.00630768
0.00630775
0.00630474
0.00631095
0.0063111
0.00630973
0.00629926
0.00630838
0.00630803
0.00594298
0.00590784
0.0062786
0.00628079
0.006266
0.0062646
0.00627023
0.00630259
0.00630669
0.00630673
0.00630444
0.00630755
0.00630761
0.00630678
0.00630682
0.00630294
0.00626514
0.00599762
0.00596104
0.00630371
0.0063077
0.00630779
0.00630549
0.00630604
0.00630641
0.00487535
0.00487923
0.00612386
0.00609764
0.00629706
0.00487164
0.00487279
0.00628955
0.00629138
0.00630242
0.00631334
0.00631328
0.00450379
0.00455281
0.00456704
0.00476991
0.00483023
0.0045261
0.0045383
0.00483159
0.00478093
0.00512037
0.0061307
0.00612146
0.00618169
0.00531144
0.00524708
0.00593048
0.00631473
0.00631468
0.00631413
0.00631288
0.00631304
0.0063132
0.00631332
0.00631221
0.0063124
0.00631353
0.00631379
0.00631364
0.0063061
0.00630568
0.00630856
0.00631036
0.00630906
0.00630832
0.00627987
0.00628376
0.00627016
0.00627243
0.00629384
0.00628872
0.00626041
0.00626555
0.00619819
0.00619929
0.0062287
0.00622469
0.00617671
0.00620188
0.00620495
0.00630451
0.00628012
0.00628531
0.00627664
0.00624532
0.00628849
0.00628339
0.00630897
0.00630689
0.00629812
0.00615944
0.00614084
0.00627052
0.00623429
0.00618287
0.00631338
0.00631323
0.00631232
0.00631214
0.00631005
0.00631116
0.006298
0.00631135
0.00631195
0.00625808
0.00627287
0.00630947
0.00611686
0.00609487
0.0062968
0.00629955
0.00631157
0.00631172
0.00631132
0.00630985
0.00631125
0.00631141
0.00627803
0.0059044
0.00591064
0.00625971
0.0062621
0.00630718
0.00630723
0.0063039
0.00630356
0.00630706
0.00630712
0.00456607
0.00480578
0.00525251
0.00528234
0.00493869
0.00496204
0.00450711
0.00602321
0.00600432
0.00626655
0.0046374
0.00460179
0.00481844
0.00482345
0.00459173
0.0049175
0.00492718
0.00457155
0.00457726
0.00630752
0.00630761
0.0063038
0.00630487
0.00630735
0.00630744
0.00537515
0.00603751
0.00605661
0.00599723
0.00601734
0.00532451
0.00624499
0.00629029
0.00629368
0.00629259
0.00629151
0.00624917
0.00619265
0.00623919
0.00623382
0.00614727
0.00613422
0.00616396
0.00498086
0.00500364
0.00502053
0.00487431
0.00600423
0.00542964
0.00534188
0.00550781
0.00545141
0.00594153
0.00590989
0.00591556
0.00616
0.00618362
0.00628037
0.00631373
0.00631382
0.0063136
0.00477317
0.00478294
0.00537719
0.00537523
0.00459985
0.00493702
0.00485108
0.00484277
0.0048447
0.00484959
0.00496835
0.00427107
0.00611411
0.00613076
0.00631438
0.00631433
0.00631396
0.00630365
0.00630288
0.00630786
0.00630592
0.00630825
0.00630989
0.00630741
0.0063079
0.00627536
0.00628794
0.00624673
0.00625036
0.00625091
0.0062468
0.00628346
0.00625729
0.00625594
0.00602684
0.00593708
0.00593615
0.0059542
0.00595017
0.00601225
0.00630906
0.00631077
0.00631089
0.00631044
0.00631065
0.00630855
0.00629293
0.00630552
0.0062985
0.00629603
0.00630484
0.00630782
0.00630789
0.00626614
0.00626686
0.00627842
0.00626724
0.00630662
0.00630666
0.00630245
0.00630742
0.00630748
0.00630434
0.00630307
0.00630686
0.00630691
0.00624892
0.00626152
0.00625649
0.00626572
0.00626414
0.00624747
0.0048852
0.00489677
0.00487628
0.00487239
0.00524583
0.00502426
0.0050112
0.00594701
0.00594873
0.00608542
0.00598055
0.00600173
0.00594241
0.00595824
0.00606816
0.00631351
0.00631343
0.00631348
0.00631348
0.00631376
0.00631379
0.00631389
0.0063136
0.00631367
0.00631366
0.006018
0.00614509
0.00613789
0.00616491
0.00615466
0.00602609
0.00607503
0.00611082
0.00609586
0.00613205
0.00612444
0.00606188
0.00631364
0.00631371
0.0063136
0.00631255
0.00631177
0.0063134
0.00631321
0.00450462
0.00472649
0.00457536
0.00456581
0.004811
0.00480138
0.00518396
0.00520652
0.00496079
0.00454034
0.00452169
0.00485917
0.00468099
0.00468942
0.00466138
0.00505254
0.0046943
0.00460753
0.00613725
0.0061506
0.00621305
0.00609967
0.00610375
0.00608919
0.00609198
0.00618889
0.00611751
0.00612309
0.00501406
0.00483418
0.0048391
0.0048417
0.00483366
0.0050317
0.006313
0.00631309
0.00631293
0.00631218
0.00631254
0.00631288
0.00630287
0.00630823
0.00630509
0.0063044
0.00630619
0.00630682
0.00630474
0.00630551
0.00627872
0.00628482
0.00625541
0.00625651
0.00625202
0.00625377
0.00629459
0.00627365
0.00627449
0.00625535
0.00625674
0.0062866
0.00625612
0.00620934
0.0062011
0.00618108
0.0062213
0.00621693
0.00624986
0.00620987
0.00620869
0.00622313
0.00621551
0.00624788
0.00626381
0.00622891
0.00623308
0.00621349
0.00622157
0.00626037
0.00620581
0.00608321
0.006181
0.0061739
0.00594886
0.00595824
0.00625984
0.00629291
0.00629073
0.00625497
0.00628223
0.00630133
0.00629631
0.00619041
0.00617399
0.00625184
0.00625556
0.00628705
0.00622548
0.00620817
0.00630427
0.00630704
0.00631146
0.00630882
0.00630072
0.00628967
0.00630012
0.00631116
0.00631177
0.00631196
0.00631108
0.00631138
0.00631016
0.00630878
0.00630989
0.00631228
0.00631176
0.00631151
0.00631243
0.00631194
0.00631246
0.00631103
0.00631117
0.00631039
0.00631125
0.00582674
0.00578814
0.00604171
0.00575717
0.00579132
0.00568463
0.00589568
0.0055717
0.00554112
0.00569443
0.00567034
0.00620469
0.00609459
0.00611991
0.00604316
0.00606818
0.00619787
0.00627677
0.00623361
0.00624575
0.00613474
0.00620501
0.00626399
0.0060744
0.00603444
0.00615548
0.00587582
0.00590278
0.00582834
0.00585186
0.0061469
0.00618405
0.00599992
0.00602042
0.00593246
0.00596492
0.00617761
0.00629589
0.00630042
0.00539226
0.00505821
0.00510362
0.00496598
0.00501008
0.00538557
0.00510807
0.00512833
0.00512581
0.00523221
0.00534975
0.00472674
0.00477134
0.00480238
0.00472923
0.00538615
0.00535978
0.00488839
0.0049255
0.00481671
0.00485473
0.00535116
0.00534334
0.00531538
0.00546743
0.00542986
0.00506805
0.00503437
0.00520981
0.0051836
0.00626221
0.00626312
0.00630401
0.0063073
0.00630736
0.00630696
0.00630701
0.00630343
0.00458019
0.00514673
0.00520958
0.00475923
0.0045055
0.00500571
0.00507228
0.00471273
0.00467404
0.00563342
0.00508005
0.00508583
0.00556413
0.00502813
0.00492129
0.00508741
0.00507367
0.00559645
0.00479887
0.00475409
0.00485038
0.00489684
0.00462216
0.00463744
0.00474912
0.006256
0.00627992
0.00627805
0.00628263
0.00628132
0.0062577
0.00623093
0.00623708
0.00623685
0.00622528
0.00622531
0.00623037
0.00623855
0.00626942
0.00626726
0.00627544
0.00627234
0.00624251
0.00478656
0.00496539
0.00498374
0.00493979
0.00495246
0.00479714
0.00486405
0.00510802
0.00515219
0.00501387
0.00505796
0.00481052
0.00481075
0.00470804
0.00473248
0.00469418
0.00469903
0.0048163
0.00489171
0.00492229
0.00477805
0.004835
0.00480963
0.00624725
0.00624379
0.00620125
0.00613987
0.00615852
0.00492199
0.00496261
0.00514065
0.0049192
0.00487102
0.00499457
0.00496748
0.00517924
0.00488278
0.004881
0.0059214
0.00592915
0.00631903
0.00631903
0.00632014
0.00631901
0.00631901
0.00632013
0.00631901
0.00631901
0.00632013
0.00631903
0.00631905
0.00632015
0.00631682
0.0063168
0.00631792
0.00631678
0.00631676
0.00631846
0.00631673
0.00631671
0.00631844
0.00631671
0.00631676
0.00631845
0.00631679
0.00631683
0.00631849
0.00631686
0.00631688
0.00631796
0.00631464
0.00631459
0.00631624
0.00631455
0.00631444
0.00631618
0.00631555
0.00631553
0.00631643
0.00631548
0.00631551
0.00631641
0.00631564
0.00631568
0.00631623
0.00631469
0.00631474
0.0063158
0.00631249
0.00631243
0.00631404
0.00631346
0.00631345
0.00631399
0.00631382
0.00631379
0.00631408
0.00631341
0.00631352
0.00631432
0.00631258
0.00631264
0.00631368
0.00631037
0.00631033
0.0063119
0.00631134
0.00631134
0.00631186
0.0063117
0.0063117
0.00631195
0.00631141
0.00631149
0.00631224
0.00631055
0.00631058
0.00631161
0.00630826
0.00630824
0.0063098
0.00630926
0.00630928
0.00630979
0.0063097
0.00630969
0.00630994
0.00630952
0.00630955
0.00631028
0.00630855
0.00630853
0.00630956
0.00630614
0.00630615
0.00630772
0.00630719
0.00630723
0.00630774
0.00630771
0.00630771
0.00630796
0.00630761
0.00630758
0.00630832
0.00630652
0.00630646
0.0063075
0.00630401
0.00630402
0.00630562
0.00630565
0.00630566
0.00630592
0.00630559
0.00630552
0.00630629
0.00630443
0.00630436
0.00630542
0.00630184
0.00630185
0.00630348
0.00630344
0.00630343
0.00630397
0.00630228
0.00630223
0.0063033
0.00629962
0.00629958
0.00630068
0.0062996
0.00629955
0.00630121
0.00630064
0.00629914
0.00629996
0.00518326
0.00624414
0.00625007
0.00630009
0.00630013
0.00630178
0.00630005
0.00630007
0.00630115
0.00629742
0.00629739
0.00629849
0.00629742
0.00629734
0.006299
0.00629731
0.00554578
0.00552375
0.00599657
0.00629784
0.00629952
0.00629785
0.00629792
0.00629955
0.00629784
0.00629786
0.00629896
0.00629522
0.00629517
0.00629628
0.00629173
0.00590099
0.00555217
0.00615427
0.00629548
0.00629727
0.00629567
0.00629572
0.00629682
0.00631221
0.00631247
0.00631247
0.0063126
0.00631269
0.0063123
0.00631415
0.00631388
0.00631389
0.00631019
0.00631044
0.00631044
0.0063107
0.0063107
0.00631034
0.00631217
0.00631179
0.00631188
0.00630821
0.00630846
0.00630846
0.00630882
0.00630885
0.00630851
0.00631023
0.00630988
0.00630999
0.00630618
0.00630644
0.00630643
0.00630688
0.00630695
0.00630658
0.00630839
0.00630804
0.0063081
0.00630482
0.00630479
0.00630453
0.00630633
0.00630608
0.00630612
0.00630023
0.00630167
0.00630267
0.00459403
0.00528314
0.00529108
0.00585986
0.00586139
0.00428433
0.00630426
0.00630399
0.00630401
0.00631428
0.00631522
0.00631526
0.006314
0.00631399
0.0063139
0.00631641
0.0063155
0.00631547
0.00631399
0.00631401
0.00631473
0.00631471
0.00631442
0.00631646
0.00631556
0.00631559
0.00631238
0.00631291
0.00631292
0.00631304
0.00631289
0.00631237
0.00631396
0.00631342
0.00631332
0.00631323
0.00631318
0.00631292
0.00631406
0.00631391
0.00631394
0.00631249
0.00631326
0.00631315
0.00631306
0.00631306
0.00631256
0.0063141
0.00631358
0.00631358
0.00631031
0.00631082
0.00631082
0.00631097
0.00631082
0.00631032
0.00631185
0.00631133
0.00631122
0.00631119
0.00631144
0.00631145
0.00630938
0.00631068
0.00631045
0.00631184
0.00631167
0.00631122
0.00631097
0.00631036
0.00631127
0.00631052
0.00631125
0.00631117
0.00631104
0.00631107
0.00631058
0.00631206
0.00631156
0.00631154
0.00630826
0.00630877
0.00630875
0.00630896
0.00630879
0.00630828
0.00630981
0.0063093
0.00630921
0.0063092
0.00630944
0.00630945
0.00629932
0.00630675
0.00630664
0.00630785
0.0063076
0.0063011
0.00630857
0.0063093
0.00630929
0.00630906
0.00630911
0.00630862
0.00631009
0.0063096
0.00630955
0.00630618
0.00630671
0.00630667
0.00630695
0.00630674
0.00630622
0.00630777
0.00630726
0.0063072
0.0063072
0.00630746
0.00630745
0.00630012
0.00630742
0.00630706
0.00630589
0.00630582
0.00629975
0.006297
0.00627821
0.0062807
0.00630656
0.00630732
0.00630736
0.00630705
0.00630712
0.00630661
0.00630813
0.00630763
0.00630756
0.00630368
0.00629149
0.00629421
0.00629965
0.0063001
0.00630428
0.0063045
0.00630502
0.00630533
0.00630499
0.00630506
0.00630453
0.0063061
0.00630558
0.00630551
0.00630301
0.00630167
0.00630166
0.00630128
0.00630141
0.00630348
0.00629867
0.00629886
0.00630008
0.005126
0.00628329
0.0062819
0.00596952
0.00597502
0.00483087
0.00629817
0.00629886
0.00564499
0.00630063
0.00630063
0.0062999
0.00630184
0.0063009
0.0063012
0.00631198
0.00631215
0.006312
0.00631307
0.00631267
0.00631252
0.00631273
0.00631273
0.00631299
0.00631275
0.00631213
0.00631283
0.00631392
0.00631389
0.00631405
0.00631297
0.00631314
0.00631318
0.00631176
0.00631138
0.00631123
0.006313
0.00631292
0.00631295
0.00631309
0.00631283
0.00631285
0.00631287
0.0063129
0.00631304
0.00631212
0.00631224
0.00631215
0.00630316
0.0063084
0.00630812
0.00631019
0.00630991
0.00630735
0.00631069
0.00631069
0.00631094
0.00630054
0.00628628
0.00629021
0.00623988
0.0062419
0.00628101
0.00629276
0.00629456
0.00630385
0.00631118
0.00631082
0.00631093
0.00630903
0.00631004
0.0063102
0.00631144
0.00631185
0.00631199
0.00631032
0.00631042
0.00630953
0.00631164
0.00631166
0.0063113
0.0062994
0.00630602
0.00630595
0.00630653
0.00630643
0.00629919
0.00630871
0.0063087
0.00630895
0.00627249
0.0062228
0.00622096
0.00624143
0.00623959
0.00627994
0.00627785
0.00623605
0.00623794
0.00621974
0.00621906
0.00627101
0.00630931
0.00630897
0.00630906
0.00630673
0.00630672
0.00630349
0.00630976
0.00630977
0.00630942
0.00627723
0.00612987
0.00610685
0.00622049
0.00621536