/*--------------------------------*- C++ -*----------------------------------*\
| =========                 |                                                 |
| \\      /  F ield         | OpenFOAM: The Open Source CFD Toolbox           |
|  \\    /   O peration     | Version:  5.x                                   |
|   \\  /    A nd           | Web:      www.OpenFOAM.org                      |
|    \\/     M anipulation  |                                                 |
\*---------------------------------------------------------------------------*/
FoamFile
{
    version     2.0;
    format      ascii;
    class       volScalarField;
    location    "500";
    object      YSat;
}
// * * * * * * * * * * * * * * * * * * * * * * * * * * * * * * * * * * * * * //

dimensions      [0 0 0 0 0 0 0];

internalField   nonuniform List<scalar> 
6584
(
0.00431405
0.00431405
0.00431405
0.00431405
0.00431405
0.00431405
0.00431405
0.00431405
0.00431405
0.00431405
0.00431405
0.00431405
0.00431405
0.00431405
0.00431405
0.00431405
0.00431405
0.00431405
0.00431405
0.00431405
0.00431405
0.00431405
0.00431405
0.00431405
0.00431405
0.00431405
0.00431405
0.00431405
0.00431405
0.00431405
0.00431405
0.00431405
0.00431405
0.00431405
0.00431405
0.00431405
0.00431405
0.00431405
0.00431405
0.00431405
0.00431405
0.00431405
0.00431405
0.00431405
0.00431405
0.00431405
0.00431405
0.00431405
0.00431405
0.00431405
0.00431405
0.00431405
0.00431405
0.00431405
0.00431405
0.00431405
0.00431405
0.00431405
0.00431405
0.00431405
0.00431405
0.00431405
0.00431405
0.00431405
0.00431405
0.00431405
0.00431405
0.00431405
0.00431405
0.00431405
0.00431405
0.00431405
0.00431405
0.00431405
0.00431405
0.00431405
0.00431405
0.00431405
0.00431405
0.00431405
0.00431405
0.00431405
0.00431405
0.00431405
0.00431405
0.00431405
0.00431405
0.00431405
0.00431405
0.00431405
0.00431405
0.00431405
0.00431405
0.00431405
0.00431405
0.00431405
0.00431405
0.00431405
0.00431405
0.00431405
0.00431405
0.00431405
0.00431405
0.00431405
0.00431405
0.00431405
0.00431405
0.00431405
0.00431405
0.00431405
0.00431405
0.00431405
0.00431405
0.00431405
0.00431405
0.00431405
0.00431405
0.00431405
0.00431405
0.00431405
0.00431405
0.00431405
0.00431405
0.00431405
0.00431405
0.00431405
0.00431405
0.00431405
0.00431405
0.00431405
0.00431405
0.00431405
0.00431405
0.00431405
0.00431405
0.00431405
0.00431405
0.00431405
0.00431405
0.00431405
0.00431405
0.00431405
0.00431405
0.00431405
0.00431405
0.00431405
0.00431405
0.00431405
0.00431405
0.00431405
0.00431405
0.00431405
0.00431405
0.00431405
0.00431405
0.00431405
0.00431405
0.00431405
0.00431405
0.00431405
0.00431405
0.00431405
0.00431405
0.00431405
0.00431405
0.00431405
0.00431405
0.00431405
0.00431405
0.00431405
0.00431405
0.00431405
0.00431405
0.00431405
0.00431405
0.00431405
0.00431405
0.00431405
0.00431405
0.00431405
0.00431405
0.00431405
0.00431405
0.00431405
0.00431405
0.00431405
0.00431405
0.00431405
0.00431405
0.00431405
0.00431405
0.00431405
0.00431405
0.00431405
0.00431405
0.00431405
0.00431405
0.00431405
0.00431405
0.00431405
0.00431405
0.00431405
0.00431405
0.00431405
0.00431405
0.00431405
0.00431405
0.00431405
0.00431405
0.00431405
0.00431405
0.00431405
0.00431405
0.00431405
0.00431405
0.00431405
0.00431405
0.00431405
0.00431405
0.00431405
0.00431405
0.00431405
0.00431405
0.00431405
0.00431405
0.00431405
0.00431405
0.00431405
0.00431405
0.00431405
0.00431405
0.00431405
0.00431405
0.00431405
0.00431405
0.00431405
0.00431405
0.00431405
0.00431405
0.00431405
0.00431405
0.00431405
0.00431405
0.00431405
0.00431405
0.00431405
0.00431405
0.00431405
0.00431405
0.00431405
0.00431405
0.00431405
0.00431405
0.00431405
0.00431405
0.00431405
0.00431405
0.00431405
0.00431405
0.00431405
0.00431405
0.00431405
0.00431405
0.00431405
0.00431405
0.00431405
0.00431405
0.00431405
0.00431405
0.00431405
0.00431405
0.00431405
0.00431405
0.00431405
0.00431405
0.00431405
0.00431405
0.00431405
0.00431405
0.00431405
0.00431405
0.00431405
0.00431405
0.00431405
0.00431405
0.00431405
0.00431405
0.00431405
0.00431405
0.00431405
0.00431405
0.00431405
0.00431405
0.00431405
0.00431405
0.00431405
0.00431405
0.00431405
0.00431405
0.00431405
0.00431405
0.00431405
0.00431405
0.00431405
0.00431405
0.00431405
0.00431405
0.00431405
0.00431405
0.00431405
0.00431405
0.00431405
0.00431405
0.00431405
0.00431405
0.00431405
0.00431405
0.00431405
0.00340368
0.00431405
0.00431405
0.00431405
0.00431405
0.00431405
0.00431405
0.00431405
0.00431405
0.00431405
0.00431405
0.00431405
0.00431405
0.00431405
0.00431405
0.00431405
0.00431405
0.00431405
0.00431405
0.00431405
0.00431405
0.00431405
0.00431405
0.00431404
0.00406607
0.00431405
0.00431405
0.00431405
0.00431405
0.00431405
0.00431405
0.00431405
0.00431405
0.00431405
0.00431405
0.00431405
0.00431405
0.00431405
0.00431405
0.00431405
0.00431405
0.00431405
0.00431405
0.00431405
0.00431405
0.00431405
0.00431405
0.00431403
0.00408512
0.00431405
0.00431405
0.00431405
0.00431405
0.00431405
0.00431405
0.00431405
0.00431405
0.00431405
0.00431405
0.00431405
0.00431405
0.00431405
0.00431405
0.00431405
0.00431405
0.00431405
0.00431405
0.00431405
0.00431405
0.00431405
0.00431405
0.00431004
0.00420459
0.00431405
0.00431405
0.00431405
0.00431405
0.00431405
0.00431405
0.00431405
0.00431405
0.00431405
0.00431405
0.00431405
0.00431405
0.00431405
0.00431405
0.00431405
0.00431405
0.00431405
0.00431405
0.00431405
0.00431405
0.00431405
0.00431405
0.00430771
0.00420723
0.00431405
0.00431405
0.00431405
0.00431405
0.00431405
0.00431405
0.00431405
0.00431405
0.00431405
0.00431405
0.00431405
0.00431405
0.00431405
0.00431405
0.00431405
0.00431405
0.00431405
0.00431405
0.00431405
0.00431405
0.00431405
0.00431336
0.00417116
0.00426248
0.00431404
0.00431405
0.00431405
0.00431405
0.00431405
0.00431405
0.00431405
0.00431405
0.00431405
0.00431405
0.00431405
0.00431405
0.00431405
0.00431405
0.00431405
0.00431405
0.00431405
0.00431405
0.00431405
0.00431405
0.00431404
0.00431275
0.00417171
0.00426285
0.00431404
0.00431405
0.00431405
0.00431405
0.00431405
0.00431405
0.00431405
0.00431405
0.00431405
0.00431405
0.00431405
0.00431405
0.00431405
0.00431405
0.00431405
0.00431405
0.00431405
0.00431405
0.00431405
0.00431405
0.00431404
0.00431217
0.0041722
0.00426316
0.00431403
0.00431405
0.00431405
0.00431405
0.00431405
0.00431405
0.00431405
0.00431405
0.00431405
0.00431405
0.00431405
0.00431405
0.00431405
0.00431405
0.00431405
0.00431405
0.00431405
0.00431405
0.00431405
0.00431405
0.00431403
0.0043116
0.00417265
0.00426343
0.00431402
0.00431405
0.00431405
0.00431405
0.00431405
0.00431405
0.00431405
0.00431405
0.00431405
0.00431405
0.00431405
0.00431405
0.00431405
0.00431405
0.00431405
0.00431405
0.00431405
0.00431405
0.00431405
0.00431405
0.00431402
0.00431105
0.00417306
0.00426367
0.00431402
0.00431405
0.00431405
0.00431405
0.00431405
0.00431405
0.00431405
0.00431405
0.00431405
0.00431405
0.00431405
0.00431405
0.00431405
0.00431405
0.00431405
0.00431405
0.00431405
0.00431405
0.00431405
0.00431405
0.004314
0.00431053
0.00417345
0.00426389
0.00431401
0.00431405
0.00431405
0.00431405
0.00431405
0.00431405
0.00431405
0.00431405
0.00431405
0.00431405
0.00431405
0.00431405
0.00431405
0.00431405
0.00431405
0.00431405
0.00431405
0.00431405
0.00431405
0.00431405
0.00431399
0.00431003
0.00417381
0.00426409
0.004314
0.00431405
0.00431405
0.00431405
0.00431405
0.00431405
0.00431405
0.00431405
0.00431405
0.00431405
0.00431405
0.00431405
0.00431405
0.00431405
0.00431405
0.00431405
0.00431405
0.00431405
0.00431405
0.00431405
0.00431397
0.00430949
0.00417419
0.00426429
0.004314
0.00431405
0.00431405
0.00431405
0.00431405
0.00431405
0.00431405
0.00431405
0.00431405
0.00431405
0.00431405
0.00431405
0.00431405
0.00431405
0.00431405
0.00431405
0.00431405
0.00431405
0.00431405
0.00431405
0.00431395
0.00430892
0.0041746
0.00426451
0.00431399
0.00431405
0.00431405
0.00431405
0.00431405
0.00431405
0.00431405
0.00431405
0.00431405
0.00431405
0.00431405
0.00431405
0.00431405
0.00431405
0.00431405
0.00431405
0.00431405
0.00431405
0.00431405
0.00431405
0.00431393
0.00430837
0.00417499
0.00426472
0.00431399
0.00431405
0.00431405
0.00431405
0.00431405
0.00431405
0.00431405
0.00431405
0.00431405
0.00431405
0.00431405
0.00431405
0.00431405
0.00431405
0.00431405
0.00431405
0.00431405
0.00431405
0.00431405
0.00431405
0.00431391
0.00430783
0.00417536
0.00426491
0.00431398
0.00431405
0.00431405
0.00431405
0.00431405
0.00431405
0.00431405
0.00431405
0.00431405
0.00431405
0.00431405
0.00431405
0.00431405
0.00431405
0.00431405
0.00431405
0.00431405
0.00431405
0.00431405
0.00431405
0.00431388
0.0043073
0.00417573
0.0042651
0.00431397
0.00431405
0.00431405
0.00431405
0.00431405
0.00431405
0.00431405
0.00431405
0.00431405
0.00431405
0.00431405
0.00431405
0.00431405
0.00431405
0.00431405
0.00431405
0.00431405
0.00431405
0.00431405
0.00431405
0.00431385
0.00430678
0.00417609
0.00426529
0.00431397
0.00431405
0.00431405
0.00431405
0.00431405
0.00431405
0.00431405
0.00431405
0.00431405
0.00431405
0.00431405
0.00431405
0.00431405
0.00431405
0.00431405
0.00431405
0.00431405
0.00431405
0.00431405
0.00431404
0.00431382
0.00430626
0.00417645
0.00426547
0.00431396
0.00431405
0.00431405
0.00431405
0.00431405
0.00431405
0.00431405
0.00431405
0.00431405
0.00431405
0.00431405
0.00431405
0.00431405
0.00431405
0.00431405
0.00431405
0.00431405
0.00431405
0.00431405
0.00431404
0.00431379
0.00430574
0.0041768
0.00426565
0.00431396
0.00431405
0.00431405
0.00431405
0.00431405
0.00431405
0.00431405
0.00431405
0.00431405
0.00431405
0.00431405
0.00431405
0.00431405
0.00431405
0.00431405
0.00431405
0.00431405
0.00431405
0.00431405
0.00431404
0.00431376
0.00430522
0.00417715
0.00426584
0.00431395
0.00431405
0.00431405
0.00431405
0.00431405
0.00431405
0.00431405
0.00431405
0.00431405
0.00431405
0.00431405
0.00431405
0.00431405
0.00431405
0.00431405
0.00431405
0.00431405
0.00431405
0.00431405
0.00431404
0.00431372
0.00430469
0.00417751
0.00426602
0.00431394
0.00431405
0.00431405
0.00431405
0.00431405
0.00431405
0.00431405
0.00431405
0.00431405
0.00431405
0.00431405
0.00431405
0.00431405
0.00431405
0.00431405
0.00431405
0.00431405
0.00431405
0.00431405
0.00431404
0.00431368
0.00430414
0.00417787
0.00426621
0.00431394
0.00431405
0.00431405
0.00431405
0.00431405
0.00431405
0.00431405
0.00431405
0.00431405
0.00431405
0.00431405
0.00431405
0.00431405
0.00431405
0.00431405
0.00431405
0.00431405
0.00431405
0.00431405
0.00431405
0.00431405
0.00431405
0.00431405
0.00431405
0.00431405
0.00431405
0.00431405
0.00327703
0.00336747
0.00431405
0.00431405
0.00431405
0.00431405
0.00431405
0.00431405
0.00431405
0.00431405
0.00431405
0.00431404
0.00431405
0.00431405
0.00431405
0.00431405
0.00431405
0.00431405
0.00431405
0.00431405
0.00431236
0.00431373
0.00431143
0.00431369
0.00431405
0.00431405
0.00431405
0.00431405
0.00431405
0.00431405
0.00431405
0.00430639
0.00430766
0.00428547
0.0042984
0.00431405
0.00431405
0.00431405
0.00431405
0.00431405
0.00431405
0.00431405
0.00430892
0.00430754
0.00430658
0.00429404
0.00431405
0.00431405
0.00431405
0.00431269
0.00431231
0.00431405
0.00431405
0.00431405
0.00431371
0.00431346
0.00431404
0.00352514
0.00328257
0.00386932
0.00431405
0.00431405
0.00431383
0.00431405
0.00431405
0.00431403
0.00431314
0.00431405
0.00431404
0.00431376
0.00431404
0.00431405
0.00431405
0.00431394
0.0043081
0.00431194
0.00431405
0.00430704
0.00429074
0.00431272
0.00430782
0.00429917
0.00431133
0.00431405
0.00431269
0.00430975
0.00431391
0.00431275
0.00431405
0.00430735
0.00430645
0.00431405
0.00428524
0.00429281
0.00428996
0.00428494
0.00429351
0.00428466
0.00431405
0.00430899
0.00431032
0.00430971
0.00430903
0.00431405
0.00428985
0.00429765
0.00429342
0.0042886
0.00431216
0.00430728
0.00431405
0.0043124
0.00431347
0.0043104
0.00431228
0.00431405
0.0043046
0.00430771
0.00429861
0.00430402
0.00431341
0.00431281
0.00431352
0.00431376
0.00431405
0.00431014
0.00430798
0.00430808
0.00430995
0.00431382
0.00431374
0.00431405
0.00431405
0.00431405
0.00431394
0.00431405
0.00431405
0.00431405
0.00431405
0.00431405
0.00431177
0.00431071
0.004276
0.00425505
0.00431405
0.00431405
0.00431405
0.00431405
0.00431394
0.00431405
0.00431405
0.00431405
0.00431052
0.00430913
0.00431405
0.00309809
0.00326027
0.00386929
0.00397639
0.00327086
0.00349894
0.00425096
0.00421193
0.00431405
0.00431378
0.0043139
0.00398995
0.00406082
0.00431391
0.00431396
0.00431405
0.00431405
0.00431405
0.00431405
0.00431405
0.00431405
0.00431405
0.00431389
0.00431405
0.00431397
0.00431405
0.004314
0.00431405
0.00431224
0.00431284
0.00429237
0.0042931
0.00430226
0.00430085
0.00431222
0.00421416
0.00431302
0.00429164
0.00427832
0.00428095
0.00429294
0.00431359
0.00429162
0.00431394
0.00424875
0.00430632
0.00423656
0.00431383
0.00430799
0.00431393
0.00431405
0.00431358
0.0042977
0.00431398
0.004314
0.00429809
0.00429706
0.00431144
0.00431109
0.00430404
0.00430472
0.00430992
0.00431402
0.00431403
0.00431401
0.00431401
0.00430991
0.00431349
0.00431404
0.00431405
0.00431403
0.00431404
0.0043133
0.00428876
0.00428919
0.00428577
0.00428535
0.00427596
0.00427703
0.00430866
0.00431401
0.004314
0.00431401
0.00431401
0.00430866
0.00430943
0.004314
0.004314
0.004314
0.004314
0.00430939
0.00311167
0.00429344
0.00328306
0.00310691
0.00351389
0.00329483
0.00429454
0.00428338
0.00312352
0.00428465
0.00431067
0.00431033
0.0043113
0.00431402
0.00431401
0.00431402
0.00431402
0.00431149
0.00372446
0.00384772
0.00430122
0.00373376
0.0035315
0.00390245
0.00375741
0.004302
0.00352378
0.00370552
0.0043132
0.00425715
0.00427862
0.00421905
0.00425279
0.00431312
0.00420222
0.00406591
0.00409066
0.00339185
0.00406899
0.00405619
0.00357671
0.00429137
0.00429288
0.00431403
0.00431405
0.00431405
0.00431405
0.00431405
0.00431329
0.00431316
0.00380705
0.00431255
0.00431349
0.00431404
0.00431255
0.00431189
0.00431405
0.00325754
0.00328738
0.00320439
0.0040679
0.00406781
0.00332442
0.00339499
0.00428345
0.00429091
0.00295591
0.00431405
0.00431405
0.00431405
0.00431405
0.00431405
0.00431405
0.00431315
0.00431403
0.00431402
0.00431148
0.00431051
0.00431332
0.00430653
0.00431393
0.00431393
0.00431394
0.00431393
0.0043067
0.00428853
0.0042962
0.00430477
0.00429535
0.00410892
0.00407034
0.00431363
0.00429421
0.00430245
0.00430092
0.00430128
0.00348471
0.00431405
0.00431401
0.00431405
0.00431386
0.00431198
0.00431095
0.00431404
0.00431405
0.00431405
0.00431405
0.00431405
0.00431403
0.00430966
0.00431398
0.00431395
0.00431401
0.00431399
0.0043102
0.00430315
0.0041418
0.0042404
0.00406384
0.00408306
0.00429328
0.00425049
0.00426142
0.00430945
0.00430127
0.00430692
0.00431108
0.00431381
0.00431383
0.00431364
0.00431367
0.00430983
0.00431393
0.00431393
0.00430675
0.00428699
0.00400537
0.00394697
0.00428789
0.00403569
0.00405817
0.00393681
0.00395175
0.00428443
0.0042867
0.00428023
0.00430882
0.00431367
0.00431364
0.00431362
0.00431375
0.00430968
0.0043096
0.00431362
0.00431364
0.00431364
0.00431362
0.00430919
0.00431162
0.0042791
0.00428663
0.00426873
0.00426383
0.00430878
0.00431325
0.00431403
0.00431403
0.00431403
0.00431403
0.00431331
0.00430612
0.00400981
0.00391794
0.00411311
0.00408134
0.00430655
0.00360227
0.00363965
0.00430902
0.0041499
0.00412323
0.00355677
0.00359116
0.00415563
0.00411889
0.00431403
0.00431404
0.00431404
0.00407281
0.00426833
0.00409961
0.0041174
0.00411282
0.00426564
0.00431405
0.00431398
0.00431405
0.00431381
0.00431404
0.00311603
0.00316885
0.0032799
0.00326361
0.00391936
0.00338155
0.00335798
0.00344818
0.00338929
0.00393333
0.00333022
0.00337331
0.00423658
0.00423001
0.00402486
0.00354674
0.00348028
0.00340481
0.00344447
0.00431376
0.00431403
0.00431404
0.00431394
0.00431402
0.00431366
0.00431152
0.00431325
0.00428931
0.00429543
0.00430431
0.00429615
0.00422287
0.00429034
0.00428487
0.00429608
0.00429206
0.00422121
0.00427228
0.00426698
0.00428314
0.00427523
0.00428696
0.00417355
0.00419558
0.00413313
0.00416253
0.004285
0.00404914
0.00406339
0.00427681
0.00431199
0.00431004
0.00431369
0.00431254
0.00428417
0.00429739
0.00429319
0.00430849
0.00429923
0.00431291
0.00431401
0.00431382
0.00431217
0.00431072
0.00431333
0.00431224
0.00431389
0.00431245
0.00431361
0.0043139
0.0043127
0.00431349
0.00431403
0.00431378
0.00431341
0.00410873
0.00412697
0.00430166
0.003972
0.00390026
0.00415726
0.00398804
0.00379738
0.00373428
0.00387824
0.00382421
0.00429421
0.00408975
0.0041039
0.00424067
0.00422273
0.00429099
0.00425589
0.00420026
0.00417852
0.00421944
0.0042058
0.0043099
0.00426389
0.00427056
0.00430199
0.00430655
0.00431373
0.00431379
0.00431041
0.00430985
0.00431368
0.00431372
0.00401758
0.00401534
0.00428751
0.00364443
0.00364051
0.00341225
0.0036161
0.0036118
0.00368543
0.00363452
0.00361623
0.00400277
0.00402817
0.00428728
0.00363557
0.00357429
0.00371861
0.00365484
0.00346336
0.00340327
0.00355123
0.00348988
0.00428459
0.00396367
0.0039929
0.00428205
0.00427935
0.0043137
0.00431367
0.00430877
0.00430929
0.00431374
0.00431371
0.00431361
0.00431362
0.00430956
0.00430924
0.00431362
0.00431362
0.00312859
0.00318287
0.0040278
0.00406899
0.00397498
0.00401335
0.00312194
0.00342441
0.00412508
0.0040628
0.00408041
0.00411438
0.00337871
0.0038089
0.00382907
0.00373022
0.00380142
0.00317205
0.00392443
0.00396445
0.00384083
0.00390344
0.00317014
0.00427238
0.00427723
0.00431142
0.00425187
0.00426153
0.0042645
0.00425146
0.00426159
0.00430916
0.00426105
0.00426836
0.00377339
0.00325324
0.00327007
0.0033401
0.0032557
0.00379116
0.00328143
0.00359398
0.00327311
0.00362377
0.00423675
0.00430061
0.00429731
0.00430451
0.00430171
0.00423968
0.00418724
0.00419335
0.00365606
0.00369655
0.00346965
0.00354254
0.00418029
0.00416402
0.00431405
0.00431405
0.00431405
0.00431405
0.004314
0.00431401
0.00431405
0.00431405
0.00431405
0.00431404
0.00431405
0.00431405
0.00431405
0.00431405
0.00431405
0.00431405
0.00431404
0.00431333
0.00431145
0.00430701
0.00430641
0.00428634
0.00429764
0.00431394
0.00431395
0.0043081
0.00427816
0.00427604
0.00429443
0.00428831
0.0042922
0.00431266
0.004314
0.00431405
0.00431405
0.0043048
0.00430753
0.00431343
0.00431398
0.00431385
0.00431403
0.00431253
0.0042911
0.00430356
0.00429986
0.00430579
0.00430513
0.00431095
0.00431209
0.0043121
0.00430978
0.00431387
0.00431389
0.00431285
0.00430687
0.00431393
0.00431394
0.00403794
0.00401226
0.00429105
0.00429259
0.00428116
0.00428012
0.00428385
0.00430894
0.00431212
0.0043121
0.00430968
0.00431208
0.00431208
0.00431209
0.00431208
0.00430908
0.00428101
0.00407828
0.00405124
0.0043106
0.00431366
0.00431364
0.00431364
0.00431404
0.00431404
0.0033401
0.00334294
0.00417835
0.00415785
0.00430928
0.00333683
0.00333807
0.00430323
0.00430502
0.0043138
0.00431397
0.0043139
0.00308796
0.00311649
0.00312485
0.00324592
0.00328268
0.0031009
0.003108
0.00328424
0.00325314
0.00346615
0.00417904
0.00417201
0.00421803
0.00360526
0.00356001
0.00403464
0.00431405
0.00431405
0.00431405
0.00431373
0.00431388
0.00431398
0.00431402
0.0043135
0.0043136
0.00431405
0.00431405
0.00431404
0.00430987
0.00430958
0.00431182
0.00431308
0.00431208
0.00431155
0.00429097
0.00429384
0.00428479
0.0042866
0.0043032
0.00429909
0.00427717
0.00428119
0.00423044
0.00423126
0.00425411
0.00425098
0.00421406
0.00423323
0.00423558
0.00431276
0.00429373
0.00429791
0.00428603
0.00426208
0.00429545
0.00429154
0.00431107
0.0043095
0.00430269
0.00419673
0.00418266
0.00428162
0.00425372
0.00421433
0.00431404
0.00431403
0.00431342
0.00431319
0.00431157
0.00431239
0.00430245
0.00431291
0.00431334
0.0042727
0.00428398
0.00431232
0.00416458
0.00414806
0.00430338
0.00430538
0.00431398
0.004314
0.00431371
0.0043129
0.00431392
0.00431395
0.00429057
0.00400978
0.00401443
0.00427607
0.00427778
0.00431205
0.00431205
0.00430947
0.00430934
0.00431205
0.00431205
0.00312461
0.00326829
0.00355277
0.00357248
0.00335134
0.00336582
0.00309074
0.00409733
0.00408325
0.00428218
0.00316959
0.00314823
0.00328017
0.00328301
0.00314084
0.00333851
0.00334433
0.00313017
0.00313332
0.0043137
0.00431368
0.00431072
0.00431186
0.00431374
0.00431372
0.00363463
0.00410847
0.00412297
0.00407804
0.0040932
0.00360044
0.00426712
0.00430273
0.00430527
0.00430475
0.00430379
0.00427042
0.00422634
0.00426231
0.00425811
0.00419165
0.00418173
0.00420437
0.00340764
0.00342171
0.00343264
0.00333559
0.00409075
0.00368776
0.00362639
0.00374361
0.00370322
0.00404584
0.00401353
0.00401769
0.00420143
0.0042197
0.00429594
0.00431403
0.00431403
0.00431397
0.00325407
0.00326119
0.00366209
0.00366205
0.00316963
0.00336103
0.00331015
0.0033031
0.00331021
0.00331122
0.00338201
0.00296534
0.00416634
0.004179
0.00431405
0.00431405
0.00431405
0.00430814
0.00430758
0.00431146
0.0043094
0.00431124
0.00431247
0.00431066
0.004311
0.00428765
0.00429691
0.00426691
0.00426967
0.0042702
0.00426699
0.00429483
0.0042746
0.0042736
0.00410041
0.0040337
0.00403298
0.0040464
0.00404339
0.00408952
0.00431167
0.00431301
0.00431306
0.00431284
0.00431297
0.00431133
0.00430056
0.00430986
0.00430439
0.00430251
0.00430981
0.00431211
0.00431212
0.0042812
0.00428179
0.00429071
0.00428159
0.00431214
0.00431213
0.00430888
0.00431207
0.00431207
0.00430964
0.00430914
0.00431207
0.00431206
0.00426876
0.00427848
0.00427455
0.00428182
0.00428056
0.00426769
0.003347
0.00335448
0.00333853
0.00333675
0.00356875
0.00342951
0.00342076
0.00404086
0.00404216
0.00414447
0.00406574
0.00408148
0.00403755
0.00404923
0.00413142
0.004314
0.00431398
0.00431401
0.00431396
0.00431403
0.00431404
0.00431405
0.00431401
0.00431402
0.004314
0.00409395
0.00418997
0.00418447
0.00420519
0.00419731
0.00409997
0.00413681
0.00416388
0.00415256
0.00418002
0.00417424
0.00412689
0.00431401
0.00431404
0.00431402
0.00431337
0.00431281
0.00431393
0.00431383
0.00308841
0.00321967
0.00312977
0.0031242
0.00327542
0.00326979
0.00351105
0.00352615
0.00336807
0.00310932
0.00309835
0.00330052
0.00319293
0.00319807
0.00318113
0.00342238
0.00320065
0.0031489
0.00418402
0.00419422
0.00424231
0.00415548
0.00415858
0.00414752
0.00414965
0.00422359
0.00416901
0.00417325
0.00341439
0.00330747
0.00330876
0.00331426
0.0033086
0.00342649
0.00431393
0.00431395
0.00431383
0.00431337
0.00431367
0.00431388
0.00430734
0.00431161
0.00430917
0.00430867
0.0043098
0.00431025
0.00430876
0.00430932
0.00429012
0.00429462
0.00427345
0.00427426
0.00427091
0.00427222
0.00430383
0.00428758
0.00428828
0.00427318
0.0042743
0.0042974
0.00427392
0.00423906
0.00423269
0.0042174
0.00424834
0.00424494
0.00427011
0.00423924
0.00423836
0.0042494
0.00424356
0.00426854
0.0042811
0.00425402
0.00425728
0.00424208
0.00424833
0.00427838
0.00423621
0.00414288
0.0042176
0.00421212
0.00404252
0.00404947
0.00427309
0.00429878
0.00429714
0.00426947
0.00429042
0.00430523
0.00430137
0.00422023
0.00420775
0.00426751
0.00427033
0.00429469
0.00424699
0.00423376
0.00430718
0.00430928
0.00431272
0.00431056
0.00430453
0.00429593
0.004304
0.00431314
0.0043136
0.0043137
0.00431316
0.00431335
0.00431241
0.00431132
0.00431214
0.00431369
0.00431329
0.00431313
0.00431372
0.00431339
0.00431378
0.0043129
0.00431292
0.00431234
0.00431303
0.00395255
0.00392498
0.00410939
0.00390242
0.00392665
0.00385123
0.00400211
0.0037736
0.00375261
0.00385881
0.00384197
0.00423157
0.00414806
0.00416707
0.00410968
0.0041283
0.0042264
0.00428686
0.00425355
0.00426286
0.00417824
0.00423166
0.00427702
0.00413274
0.00410294
0.00419453
0.00398716
0.00400665
0.0039531
0.00396993
0.00418809
0.00421601
0.00407771
0.00409283
0.00402823
0.00405196
0.00421116
0.00430272
0.00430602
0.00365085
0.00343216
0.00346132
0.00337357
0.0034015
0.00364624
0.00346476
0.00347735
0.00347587
0.00354503
0.00362134
0.00322521
0.00325241
0.00327071
0.0032265
0.00364563
0.00362859
0.00332483
0.00334808
0.00328028
0.00330384
0.0036227
0.00361918
0.00360062
0.00370247
0.00367709
0.00343969
0.00341822
0.00353122
0.00351414
0.00427805
0.00427853
0.00430951
0.00431206
0.00431206
0.00431206
0.00431205
0.00430929
0.00313303
0.00348358
0.00352455
0.00324005
0.00308968
0.00339325
0.0034356
0.0032151
0.00319166
0.0038148
0.00344309
0.003447
0.00376683
0.00341083
0.00334384
0.00344823
0.00343964
0.0037892
0.00326775
0.0032403
0.00329727
0.00332585
0.00315903
0.00316874
0.00323556
0.00427454
0.00429309
0.0042916
0.00429529
0.00429423
0.00427589
0.00425521
0.00425992
0.0042599
0.004251
0.00425105
0.00425488
0.0042609
0.00428477
0.00428306
0.00428952
0.00428707
0.00426399
0.00325876
0.00336926
0.00338101
0.00335285
0.00336096
0.00326503
0.00330712
0.00346111
0.00349002
0.0034003
0.00342866
0.00327403
0.00327472
0.00320957
0.00322445
0.00320103
0.00320404
0.00327622
0.00332253
0.00334175
0.00325227
0.00328729
0.00327197
0.00426865
0.00426592
0.00423297
0.00418601
0.00420022
0.00337034
0.0033958
0.00349797
0.00336232
0.00333256
0.00340982
0.0033925
0.00352348
0.00334131
0.00334082
0.00402197
0.00402769
0.00431405
0.00431405
0.00431405
0.00431405
0.00431405
0.00431405
0.00431405
0.00431405
0.00431405
0.00431405
0.00431405
0.00431405
0.00431405
0.00431405
0.00431405
0.00431405
0.00431405
0.00431405
0.00431405
0.00431405
0.00431405
0.00431405
0.00431405
0.00431405
0.00431405
0.00431405
0.00431405
0.00431405
0.00431405
0.00431405
0.00431405
0.00431405
0.00431405
0.00431405
0.00431405
0.00431405
0.00431405
0.00431405
0.00431405
0.00431405
0.00431405
0.00431405
0.00431405
0.00431405
0.00431405
0.00431405
0.00431405
0.00431405
0.00431405
0.00431405
0.00431405
0.00431405
0.00431405
0.00431405
0.00431405
0.00431405
0.00431405
0.00431405
0.00431405
0.00431405
0.00431405
0.00431405
0.00431405
0.00431405
0.00431405
0.00431405
0.00431405
0.00431405
0.00431405
0.00431405
0.00431405
0.00431405
0.00431405
0.00431405
0.00431405
0.00431405
0.00431405
0.00431405
0.00431405
0.00431405
0.00431405
0.00431405
0.00431405
0.00431405
0.00431405
0.00431403
0.00431403
0.00431405
0.00431405
0.00431405
0.00431405
0.00431405
0.00431405
0.00431405
0.00431405
0.00431405
0.00431405
0.00431405
0.00431405
0.00431405
0.00431403
0.00431403
0.00431405
0.00431405
0.00431405
0.00431405
0.00431405
0.00431405
0.00431405
0.00431405
0.00431405
0.00431405
0.00431404
0.00431404
0.00431405
0.00431405
0.00431405
0.00431405
0.00431405
0.00431405
0.00431405
0.00431405
0.00431405
0.00431405
0.00431405
0.00431405
0.00431405
0.00431405
0.00431405
0.00431405
0.00431405
0.00431405
0.00431405
0.00431405
0.00431405
0.00431405
0.00431296
0.00431294
0.00351173
0.00426819
0.00427268
0.00431405
0.00431405
0.00431405
0.00431405
0.00431405
0.00431405
0.00431405
0.00431405
0.00431405
0.00431405
0.00431405
0.00431405
0.00431403
0.00377356
0.00375834
0.00408079
0.00431405
0.00431405
0.00431405
0.00431405
0.00431405
0.00431405
0.00431405
0.00431405
0.00431405
0.00431404
0.00431405
0.00431148
0.00402252
0.00377804
0.0042031
0.00431399
0.00431405
0.00431405
0.00431405
0.00431405
0.00431405
0.00431405
0.00431405
0.00431405
0.00431405
0.00431405
0.00431405
0.00431405
0.00431405
0.00431404
0.00431404
0.00431405
0.00431405
0.00431404
0.00431404
0.00431405
0.00431405
0.00431405
0.00431403
0.00431403
0.00431405
0.00431405
0.00431404
0.00431404
0.00431404
0.00431403
0.00431405
0.00431404
0.00431404
0.00431405
0.00431405
0.00431404
0.00431405
0.00431404
0.00431404
0.00431405
0.00431405
0.00431405
0.00431405
0.00431405
0.00431405
0.00431405
0.00431293
0.00431332
0.00431405
0.00316558
0.00360172
0.00360719
0.00397744
0.00397863
0.00297256
0.00431405
0.00431405
0.00431405
0.00431405
0.00431405
0.00431405
0.00431405
0.00431405
0.00431404
0.00431405
0.00431405
0.00431405
0.00431405
0.00431405
0.00431405
0.00431405
0.00431405
0.00431405
0.00431405
0.00431405
0.00431405
0.00431405
0.00431405
0.00431405
0.00431405
0.00431405
0.00431405
0.00431405
0.00431405
0.00431405
0.00431403
0.004314
0.00431405
0.00431405
0.00431405
0.00431405
0.00431405
0.00431405
0.00431405
0.00431405
0.00431405
0.00431405
0.00431405
0.00431405
0.00431405
0.00431405
0.00431405
0.00431405
0.00431405
0.00431405
0.00431405
0.00431405
0.00431405
0.00431404
0.00431405
0.00431405
0.00431267
0.00431367
0.00431358
0.00431397
0.00431394
0.00431362
0.00431329
0.00431287
0.00431356
0.00431405
0.00431405
0.00431405
0.00431405
0.00431405
0.00431405
0.00431405
0.00431405
0.00431405
0.00431405
0.00431405
0.00431405
0.00431405
0.00431405
0.00431405
0.00431405
0.00431405
0.00431405
0.00431403
0.00431403
0.00431405
0.00430637
0.00431212
0.00431212
0.00431241
0.00431231
0.00430727
0.00431405
0.00431405
0.00431405
0.00431405
0.00431405
0.00431405
0.00431405
0.00431405
0.00431405
0.00431405
0.00431405
0.00431405
0.00431405
0.00431405
0.00431405
0.00431405
0.00431405
0.00431405
0.00431403
0.00431403
0.00431405
0.0043083
0.00431395
0.00431396
0.00431239
0.00431244
0.00430772
0.00430588
0.00429129
0.00429326
0.00431405
0.00431405
0.00431405
0.00431405
0.00431405
0.00431405
0.00431405
0.00431405
0.00431405
0.00431254
0.00430297
0.00430524
0.00430878
0.00430918
0.00431244
0.00431405
0.00431405
0.00431405
0.00431405
0.00431405
0.00431405
0.00431405
0.00431405
0.00431405
0.00431369
0.00431264
0.00431275
0.0043117
0.00431191
0.00431351
0.00431343
0.00431296
0.00431404
0.00349451
0.00430129
0.0043009
0.00407052
0.00407551
0.00330675
0.00431271
0.00431258
0.00382367
0.00431405
0.00431395
0.004314
0.00431401
0.00431395
0.00431405
0.00431391
0.00431402
0.004314
0.00431405
0.00431405
0.00431402
0.00431405
0.00431405
0.00431405
0.00431402
0.00431359
0.00431396
0.00431405
0.00431405
0.00431405
0.00431401
0.00431404
0.00431405
0.0043138
0.00431352
0.00431345
0.00431404
0.00431403
0.00431404
0.00431405
0.00431405
0.00431405
0.00431404
0.00431405
0.00431405
0.00431403
0.00431403
0.00431399
0.00430859
0.00431265
0.00431252
0.00431348
0.00431335
0.00431137
0.00431405
0.00431404
0.00431404
0.00430601
0.00429498
0.00429796
0.00425997
0.00426146
0.00429153
0.00429989
0.00430124
0.00430844
0.00431404
0.00431404
0.00431405
0.00431253
0.0043133
0.00431338
0.00431375
0.00431401
0.00431402
0.00431342
0.00431346
0.00431279
0.00431405
0.00431405
0.00431404
0.00430717
0.0043123
0.00431235
0.00431214
0.00431215
0.00430654
0.00431405
0.00431403
0.00431403
0.00428585
0.00424775
0.00424631
0.00426261
0.00426116
0.00429218
0.00428924
0.00425714
0.00425854
0.00424534
0.00424478
0.00428457
0.00431404
0.00431404
0.00431405
0.00431276
0.0043127