/*--------------------------------*- C++ -*----------------------------------*\
| =========                 |                                                 |
| \\      /  F ield         | OpenFOAM: The Open Source CFD Toolbox           |
|  \\    /   O peration     | Version:  5.x                                   |
|   \\  /    A nd           | Web:      www.OpenFOAM.org                      |
|    \\/     M anipulation  |                                                 |
\*---------------------------------------------------------------------------*/
FoamFile
{
    version     2.0;
    format      ascii;
    class       volScalarField;
    location    "200";
    object      massFlux;
}
// * * * * * * * * * * * * * * * * * * * * * * * * * * * * * * * * * * * * * //

dimensions      [0 0 0 0 0 0 0];

internalField   nonuniform List<scalar> 
6584
(
0.0241652
0.0241651
0.0241651
0.0241652
0.0241652
0.0241652
0.0241652
0.0241652
0.0241652
0.0241652
0.0241652
0.0241652
0.0241652
0.0241652
0.0241652
0.0241652
0.0241652
0.0241652
0.0241652
0.0241652
0.0241651
0.0241651
0.0241651
0.0241651
0.0241388
0.0241388
0.0241388
0.0241388
0.0241388
0.0241389
0.0241389
0.024139
0.024139
0.024139
0.024139
0.024139
0.024139
0.024139
0.024139
0.024139
0.024139
0.0241389
0.0241389
0.0241389
0.0241388
0.0241388
0.0241388
0.0241387
0.0241124
0.0241124
0.0241124
0.0241124
0.0241125
0.0241125
0.0241126
0.0241127
0.0241128
0.0241259
0.0241259
0.0241259
0.0241259
0.0241259
0.0241259
0.0241128
0.0241127
0.0241126
0.0241126
0.0241125
0.0241125
0.0241125
0.0241124
0.0241124
0.024086
0.0240861
0.0240861
0.0240861
0.0240861
0.0240862
0.0240863
0.0240864
0.0240865
0.0240996
0.0240996
0.0240995
0.0240995
0.0240996
0.0240996
0.0240997
0.0240864
0.0240863
0.0240863
0.0240862
0.0240862
0.0240861
0.0240861
0.0240861
0.0240597
0.0240597
0.0240598
0.0240598
0.0240598
0.0240599
0.0240599
0.0240599
0.0240732
0.0240733
0.0240731
0.024073
0.024073
0.024073
0.0240733
0.0240733
0.0240733
0.0240601
0.02406
0.0240599
0.0240599
0.0240598
0.0240598
0.0240597
0.0240334
0.0240334
0.0240334
0.0240335
0.0240336
0.0240336
0.0240337
0.0240468
0.0240467
0.0240466
0.0240531
0.0240528
0.0240527
0.024053
0.0240468
0.024047
0.0240471
0.0240341
0.0240338
0.0240337
0.0240336
0.0240335
0.0240335
0.0240334
0.0240071
0.0240071
0.0240071
0.0240072
0.0240073
0.0240074
0.0240075
0.0240205
0.0240204
0.0240202
0.024026
0.0240288
0.0240284
0.0240259
0.0240271
0.024021
0.024021
0.0240081
0.0240077
0.0240075
0.0240074
0.0240073
0.0240072
0.0240071
0.0239808
0.0239808
0.0239809
0.023981
0.0239811
0.0239812
0.0239815
0.0239944
0.0239943
0.0239943
0.0239996
0.0240007
0.0240019
0.024001
0.0239953
0.0239952
0.0239822
0.0239817
0.0239814
0.0239812
0.023981
0.0239809
0.0239808
0.0239545
0.0239545
0.0239546
0.0239547
0.0239549
0.0239551
0.0239555
0.0239684
0.0239684
0.0239688
0.023974
0.0239751
0.0239767
0.023976
0.02397
0.0239696
0.0239565
0.0239557
0.0239553
0.023955
0.0239548
0.0239547
0.0239546
0.0239282
0.0239283
0.0239284
0.0239285
0.0239287
0.023929
0.0239295
0.0239425
0.0239427
0.0239434
0.023949
0.0239511
0.0239536
0.0239517
0.023945
0.0239442
0.0239307
0.0239298
0.0239292
0.0239289
0.0239286
0.0239284
0.0239283
0.0239019
0.023902
0.0239021
0.0239023
0.0239026
0.0239029
0.0239035
0.0239166
0.023917
0.0239181
0.0239242
0.0239272
0.0239308
0.0239275
0.0239201
0.0239188
0.023905
0.0239039
0.0239032
0.0239027
0.0239024
0.0239022
0.023902
0.0238757
0.0238758
0.0238759
0.0238761
0.0238764
0.0238768
0.0238775
0.0238907
0.0238913
0.0238926
0.0238991
0.0239026
0.0239071
0.023903
0.0238949
0.0238934
0.0238792
0.0238779
0.0238771
0.0238766
0.0238761
0.0238759
0.0238757
0.0238494
0.0238495
0.0238497
0.0238499
0.0238503
0.0238507
0.0238515
0.0238647
0.0238655
0.0238669
0.0238735
0.023877
0.0238821
0.0238778
0.0238695
0.0238678
0.0238533
0.0238519
0.023851
0.0238504
0.0238499
0.0238496
0.0238494
0.0238231
0.0238233
0.0238235
0.0238237
0.0238241
0.0238246
0.0238254
0.0238259
0.0238394
0.0238406
0.0238469
0.0238496
0.0179488
0.0238521
0.023852
0.0238438
0.0238419
0.0238274
0.0238259
0.0238249
0.0238241
0.0238236
0.0238233
0.0238231
0.0237969
0.023797
0.0237972
0.0237975
0.0237979
0.0237984
0.0237991
0.0237994
0.0238129
0.023814
0.0238205
0.0238198
0.0222777
0.0238257
0.0238187
0.0238177
0.0238022
0.0238011
0.0237995
0.0237986
0.0237979
0.0237974
0.023797
0.0237967
0.0237706
0.0237707
0.023771
0.0237713
0.0237717
0.0237722
0.0237728
0.0237732
0.0237866
0.0237879
0.0237878
0.0237934
0.0223352
0.0237928
0.0237926
0.0237916
0.0237761
0.0237749
0.0237732
0.0237722
0.0237715
0.0237709
0.0237706
0.0237703
0.0237443
0.0237445
0.0237447
0.0237451
0.0237455
0.0237459
0.0237465
0.023747
0.0237478
0.0237617
0.0237616
0.023727
0.0230564
0.0237665
0.0237664
0.0237653
0.0237498
0.0237486
0.0237469
0.0237459
0.0237451
0.0237445
0.0237441
0.0237438
0.023718
0.0237182
0.0237184
0.0237188
0.0237192
0.0237196
0.0237203
0.0237209
0.0237217
0.0237223
0.0237354
0.0236854
0.0230409
0.0237403
0.023727
0.0237251
0.0237235
0.0237222
0.0237206
0.0237195
0.0237187
0.023718
0.0237176
0.0237172
0.0236917
0.0236919
0.0236922
0.0236926
0.023693
0.0236934
0.0236941
0.0236947
0.0236955
0.0236962
0.0236906
0.0223306
0.0233677
0.0237012
0.0237008
0.0236989
0.0236972
0.0236959
0.0236942
0.023693
0.0236922
0.0236916
0.0236912
0.0236907
0.0236654
0.0236657
0.0236659
0.0236663
0.0236667
0.0236671
0.0236679
0.0236686
0.0236695
0.0236701
0.0236594
0.0223035
0.0233407
0.023675
0.0236746
0.0236726
0.0236709
0.0236695
0.0236678
0.0236666
0.0236658
0.0236651
0.0236647
0.0236642
0.0236392
0.0236394
0.0236397
0.0236401
0.0236405
0.0236409
0.0236418
0.0236425
0.0236434
0.0236439
0.0236282
0.0222758
0.0233134
0.0236488
0.0236484
0.0236464
0.0236446
0.0236432
0.0236414
0.0236402
0.0236393
0.0236386
0.0236381
0.0236376
0.0236129
0.0236131
0.0236134
0.0236138
0.0236143
0.0236148
0.0236157
0.0236164
0.0236173
0.0236178
0.0235971
0.0222477
0.023286
0.0236226
0.0236222
0.0236202
0.0236183
0.0236168
0.023615
0.0236137
0.0236128
0.0236121
0.0236116
0.0236111
0.0235866
0.0235868
0.0235871
0.0235876
0.0235881
0.0235886
0.0235895
0.0235903
0.0235913
0.0235917
0.0235661
0.0222194
0.0232583
0.0235964
0.0235961
0.023594
0.023592
0.0235904
0.0235885
0.0235873
0.0235863
0.0235855
0.0235851
0.0235845
0.0235603
0.0235606
0.0235609
0.0235613
0.0235619
0.0235624
0.0235634
0.0235642
0.0235653
0.0235656
0.0235353
0.0221907
0.0232305
0.0235702
0.0235699
0.0235678
0.0235657
0.023564
0.0235621
0.0235608
0.0235598
0.023559
0.0235585
0.023558
0.0235341
0.0235343
0.0235346
0.0235351
0.0235357
0.0235363
0.0235373
0.0235382
0.0235393
0.0235395
0.0235046
0.0221618
0.0232026
0.023544
0.0235438
0.0235416
0.0235394
0.0235377
0.0235357
0.0235343
0.0235333
0.0235325
0.023532
0.0235314
0.0235078
0.0235081
0.0235084
0.0235089
0.0235095
0.0235101
0.0235112
0.0235121
0.0235133
0.0235134
0.0234734
0.0221331
0.0231748
0.0235179
0.0235177
0.0235154
0.0235131
0.0235113
0.0235093
0.0235079
0.0235068
0.023506
0.0235054
0.0235049
0.0234815
0.0234818
0.0234822
0.0234827
0.0234833
0.023484
0.0234851
0.0234861
0.0234873
0.0234872
0.023442
0.0221049
0.0231471
0.0234917
0.0234916
0.0234892
0.0234869
0.023485
0.0234829
0.0234815
0.0234804
0.0234795
0.0234789
0.0234784
0.0234553
0.0234556
0.0234559
0.0234565
0.0234571
0.0234578
0.023459
0.02346
0.0234613
0.0234611
0.0234106
0.0220765
0.0231194
0.0234656
0.0234655
0.0234631
0.0234606
0.0234587
0.0234565
0.023455
0.0234539
0.023453
0.0234524
0.0234518
0.023429
0.0234293
0.0234297
0.0234303
0.023431
0.0234317
0.0234329
0.023434
0.0234354
0.023435
0.0233793
0.022048
0.0230917
0.0234395
0.0234395
0.023437
0.0234344
0.0234324
0.0234301
0.0234286
0.0234274
0.0234265
0.0234259
0.0234253
0.0234028
0.0234031
0.0234035
0.0234041
0.0234048
0.0234056
0.0234069
0.023408
0.0234094
0.0234089
0.023348
0.0220195
0.0230639
0.0234133
0.0234134
0.0234108
0.0234082
0.023406
0.0234038
0.0234022
0.023401
0.0234
0.0233994
0.0233988
0.0233766
0.0233769
0.0233773
0.0233779
0.0233786
0.0233794
0.0233808
0.023382
0.0233835
0.0233827
0.0233168
0.0219909
0.0230361
0.0233872
0.0233874
0.0233847
0.0233819
0.0233797
0.0233774
0.0233757
0.0233745
0.0233735
0.0233729
0.0233723
0.0233503
0.0233507
0.0233511
0.0233517
0.0233525
0.0233534
0.0233548
0.023356
0.0233575
0.0233566
0.0232857
0.0219624
0.0230083
0.023361
0.0233613
0.0233585
0.0233557
0.0233534
0.023351
0.0233493
0.023348
0.023347
0.0233464
0.0233458
0.0233241
0.0233244
0.0233249
0.0233255
0.0233263
0.0233273
0.0233288
0.0233301
0.0233316
0.0233304
0.0232545
0.0219338
0.0229805
0.0233349
0.0233353
0.0233324
0.0233295
0.0233271
0.0233246
0.0233229
0.0233216
0.0233205
0.0233199
0.0233192
0.0232979
0.0232982
0.0232987
0.0232993
0.0233002
0.0233012
0.0233027
0.0233041
0.0233057
0.0233042
0.0232233
0.0219053
0.0229527
0.0233087
0.0233092
0.0233063
0.0233032
0.0233007
0.0232982
0.0232964
0.0232951
0.023294
0.0232933
0.0232927
0.0232716
0.023272
0.0232725
0.0232731
0.023274
0.0232751
0.0232767
0.0232782
0.0232798
0.023278
0.0231919
0.021877
0.022925
0.0232825
0.0232832
0.0232801
0.023277
0.0232744
0.0232718
0.02327
0.0232686
0.0232675
0.0232668
0.0232662
0.0232454
0.0232458
0.0232463
0.023247
0.0232479
0.0232491
0.0232507
0.0232522
0.0232538
0.0232518
0.0231605
0.0218487
0.0228972
0.0232563
0.0232571
0.023254
0.0232508
0.0232481
0.0232454
0.0232436
0.0232421
0.023241
0.0232403
0.0232396
0.0239782
0.0239794
0.0240012
0.0239541
0.0239564
0.0239765
0.0239302
0.0239338
0.0239536
0.0239058
0.0239102
0.0239309
0.0238803
0.0238854
0.0239072
0.023853
0.0151719
0.017738
0.0238591
0.0238822
0.0240041
0.0240283
0.0240046
0.0240289
0.0239803
0.0239786
0.0240014
0.0239882
0.0240004
0.0239797
0.0239817
0.0240005
0.0239552
0.0239543
0.0239755
0.023966
0.0239586
0.0239733
0.023955
0.0239734
0.0239565
0.0239576
0.0239756
0.0239304
0.0239303
0.0239513
0.0239422
0.0239168
0.023931
0.0238396
0.0238984
0.0239337
0.0239337
0.0239516
0.0239054
0.0239057
0.0239272
0.0239181
0.0238987
0.0239057
0.0238914
0.0238569
0.0239101
0.0239094
0.0239277
0.0238885
0.0238991
0.0238853
0.0238845
0.0239033
0.0238666
0.0238773
0.0238264
0.0166088
0.0152073
0.0210076
0.0238319
0.0238556
0.0239752
0.023987
0.0239876
0.0239865
0.0239725
0.0240003
0.0239881
0.0239744
0.0239874
0.0239884
0.0239872
0.0239758
0.0239339
0.0239558
0.023963
0.0239401
0.0238752
0.0239696
0.0239433
0.0239018
0.023954
0.023965
0.0239588
0.0239385
0.0239748
0.0239597
0.0239678
0.0239068
0.0239154
0.0239392
0.0238346
0.0238427
0.0238715
0.023835
0.0238558
0.0238358
0.0239423
0.0239239
0.0239176
0.0239378
0.0239248
0.0239452
0.0238043
0.0238233
0.0238438
0.0238012
0.0238994
0.0238932
0.0239192
0.0239123
0.0239053
0.0239171
0.0239126
0.0239222
0.0238381
0.023841
0.0238255
0.023837
0.0238787
0.0238874
0.023904
0.0238943
0.023898
0.0238372
0.0238032
0.023841
0.0238381
0.0238521
0.0238649
0.0239908
0.0239886
0.024001
0.0239916
0.0239991
0.02388
0.0238802
0.0239026
0.0238932
0.0238823
0.02389
0.023661
0.0235819
0.023859
0.0238589
0.0238782
0.0239995
0.0239918
0.024001
0.0239887
0.0239915
0.023891
0.0238977
0.0239151
0.0161963
0.0173062
0.0207826
0.0214477
0.0173517
0.0186205
0.0235667
0.0234271
0.0238949
0.0238928
0.0238821
0.0215301
0.0219551
0.0238805
0.0238689
0.0238724
0.0240151
0.0240137
0.0240022
0.0240023
0.0240138
0.0240151
0.0239907
0.0239933
0.023991
0.0239996
0.0239919
0.0239949
0.0239626
0.0239654
0.0238709
0.0238744
0.023881
0.0238766
0.0238913
0.0234646
0.0238964
0.0237276
0.0236702
0.0237048
0.0237512
0.0238729
0.0239064
0.0239815
0.0237501
0.0239579
0.0237055
0.0239795
0.0239645
0.0239913
0.0239932
0.0239895
0.0239284
0.0239806
0.0239815
0.0239065
0.0239024
0.0239608
0.0239589
0.0239237
0.0239268
0.0239445
0.0239602
0.0239645
0.0239546
0.0239588
0.0239438
0.023968
0.0239718
0.0239762
0.0239659
0.0239703
0.0239665
0.0238379
0.0238381
0.0238488
0.0238463
0.0237959
0.023801
0.0239175
0.0239379
0.0239421
0.0239324
0.0239365
0.0239168
0.0239319
0.023949
0.0239532
0.0239435
0.0239476
0.0239311
0.0163528
0.0238132
0.0177748
0.0165759
0.0191151
0.0178354
0.0238158
0.0237886
0.0167491
0.0237914
0.0238992
0.0238988
0.0239151
0.0239267
0.023931
0.023921
0.0239253
0.0239151
0.0198787
0.0206392
0.0238314
0.0202318
0.0191968
0.0211467
0.020348
0.023833
0.0187393
0.0197652
0.0238827
0.0236156
0.0236959
0.0234823
0.0235995
0.0238839
0.0233919
0.0218739
0.022033
0.0158202
0.0220062
0.0218084
0.019744
0.0237107
0.0237327
0.0239974
0.0238539
0.0238532
0.0238769
0.0238672
0.0238623
0.0238718
0.0207226
0.023827
0.0238454
0.0239974
0.0238719
0.0238811
0.02389
0.0160718
0.0162256
0.014624
0.0217662
0.0216936
0.0164112
0.0167128
0.0236492
0.0237043
0.014545
0.0240065
0.0240071
0.0240006
0.0240003
0.0240071
0.0240066
0.0239655
0.0239696
0.023965
0.0239573
0.0239623
0.0239699
0.0239219
0.0239456
0.0239412
0.0239515
0.023947
0.0239239
0.0238536
0.0238884
0.0238871
0.0238593
0.0228856
0.0227536
0.0238714
0.0237561
0.0237951
0.0237431
0.023732
0.0164188
0.0239949
0.0239925
0.0240001
0.023977
0.02397
0.0239644
0.0239824
0.0239839
0.0239887
0.0239777
0.0239823
0.0239808
0.023943
0.0239574
0.023953
0.0239635
0.0239589
0.0239461
0.0239255
0.0233741
0.0237184
0.023043
0.0231339
0.0238866
0.0237521
0.0237891
0.0239507
0.0239113
0.0239369
0.0239512
0.0239615
0.023963
0.0239525
0.0239547
0.0239408
0.0239397
0.0239353
0.0239114
0.0238369
0.0226368
0.022418
0.0238609
0.0229003
0.0230142
0.0223895
0.0224716
0.0238379
0.023833
0.0238167
0.023921
0.0239386
0.0239406
0.0239299
0.0239326
0.0239175
0.0239353
0.0239496
0.0239518
0.0239413
0.0239434
0.0239275
0.0238996
0.0237711
0.0237976
0.0237418
0.0237199
0.0238963
0.0239105
0.0239152
0.0239196
0.0239091
0.0239137
0.0239092
0.0238402
0.021795
0.021238
0.0224923
0.0222987
0.0238406
0.0177588
0.017937
0.0238404
0.022708
0.0225525
0.0175385
0.017708
0.0230506
0.0229183
0.0239944
0.0239974
0.0239956
0.0227984
0.0236317
0.0229245
0.0229781
0.0229815
0.0236218
0.0239961
0.0239948
0.0239981
0.0239935
0.023995
0.0163152
0.0167032
0.0162559
0.0161145
0.0211013
0.016894
0.0167793
0.0172665
0.0169241
0.0211852
0.0176564
0.0179115
0.0235142
0.0234898
0.0217398
0.0178443
0.0174721
0.0167252
0.0168632
0.0239881
0.0239898
0.0239927
0.023986
0.0239889
0.023987
0.0239581
0.0239689
0.0238573
0.0238849
0.0238862
0.0238615
0.0235099
0.023794
0.0237757
0.0238125
0.0237998
0.0235009
0.0237315
0.0237147
0.0237702
0.0237421
0.0237072
0.023173
0.0232495
0.023034
0.0231331
0.0236986
0.0226771
0.0227535
0.0238518
0.0239755
0.0239664
0.0239849
0.0239783
0.0238784
0.0239189
0.0239024
0.0239602
0.023926
0.0239842
0.0239896
0.0239862
0.0239821
0.0239762
0.0239773
0.0239715
0.0239778
0.0239744
0.0239818
0.0239851
0.0239759
0.0239807
0.0239841
0.0239818
0.0239783
0.0232465
0.0233189
0.0239201
0.0227242
0.0224147
0.0234325
0.0227887
0.0219128
0.021563
0.0223138
0.0220505
0.0238906
0.0231637
0.0232263
0.0237179
0.0236545
0.0238942
0.0237715
0.0235795
0.0235069
0.0236433
0.0235978
0.0239529
0.0237976
0.023821
0.0239145
0.0239351
0.0239584
0.0239607
0.0239482
0.0239416
0.0239554
0.0239577
0.0226636
0.0226698
0.0238374
0.0207139
0.0206648
0.0194467
0.0205742
0.0204654
0.0208339
0.0206165
0.0204866
0.0227302
0.0228618
0.0238576
0.0209415
0.0205231
0.0214677
0.0210701
0.0197393
0.0193671
0.020363
0.0199245
0.0238401
0.0225317
0.0226804
0.0238163
0.0238125
0.0239359
0.0239379
0.0239201
0.0239168
0.0239333
0.0239352
0.0239468
0.0239489
0.0239345
0.0239284
0.0239441
0.0239461
0.0166534
0.0171151
0.0223928
0.0225823
0.0221605
0.0223274
0.0166785
0.0186141
0.022843
0.022469
0.0226338
0.0227922
0.0183361
0.0214373
0.0215077
0.0210639
0.0214094
0.0172685
0.0219442
0.0221177
0.0215563
0.0218463
0.0173047
0.0237491
0.0237649
0.0238997
0.0236594
0.0237024
0.0237062
0.0236566
0.0237034
0.0238969
0.0237075
0.023734
0.0201735
0.015939
0.0160625
0.0166589
0.016004
0.0202832
0.0162845
0.0190936
0.0161214
0.0192683
0.0235442
0.0238268
0.0238164
0.0238396
0.0238304
0.0235529
0.0233419
0.0233695
0.0180288
0.0182278
0.0170104
0.0174605
0.0231288
0.0230799
0.0240052
0.0240069
0.0240266
0.0238692
0.023866
0.0238552
0.0240027
0.0240031
0.023999
0.0239983
0.0240029
0.0240027
0.0240149
0.0240143
0.0240029
0.0239757
0.0239711
0.0239676
0.0239558
0.0239407
0.023938
0.0238437
0.023895
0.0239279
0.0239235
0.0239026
0.0237959
0.0237868
0.0238576
0.023803
0.0238147
0.0238981
0.0239805
0.023982
0.0239773
0.0239427
0.0239543
0.023975
0.0239858
0.0239829
0.0239849
0.0239674
0.0238933
0.0239377
0.0239049
0.0239351
0.0239322
0.0239521
0.0239465
0.0239472
0.0239393
0.0239646
0.0239661
0.0239621
0.0239102
0.0239338
0.0239294
0.0227091
0.0226282
0.0238398
0.0238532
0.0238092
0.0238045
0.0238319
0.023923
0.0239341
0.0239347
0.023937
0.0239451
0.0239458
0.0239354
0.0239361
0.0239257
0.0237836
0.0228506
0.022758
0.0239156
0.0239272
0.0239286
0.0239
0.0239029
0.0239075
0.0158835
0.015862
0.0228756
0.022755
0.0238399
0.0159291
0.0159043
0.0237973
0.0238005
0.0238598
0.0239923
0.0239923
0.0160835
0.0160421
0.016179
0.0172306
0.0174015
0.0157683
0.0159011
0.016902
0.0167278
0.0184495
0.023293
0.0232608
0.0234479
0.0181254
0.0179001
0.0217975
0.024008
0.0240074
0.0240008
0.0239896
0.0239898
0.0239904
0.0239914
0.0239843
0.0239853
0.0239937
0.0239967
0.023995
0.0239545
0.0239529
0.0239605
0.0239669
0.0239634
0.0239609
0.0238649
0.0238778
0.0238153
0.0238214
0.0238837
0.0238709
0.0237874
0.0238022
0.0235456
0.023551
0.0236282
0.0236178
0.0234668
0.0235616
0.0235735
0.0238977
0.0238196
0.0238327
0.0238861
0.0237984
0.0239158
0.0239015
0.0239747
0.0239684
0.0239445
0.0235579
0.0235054
0.0238663
0.0237669
0.023624
0.0239923
0.0239905
0.0239868
0.0239873
0.0239814
0.023985
0.0239457
0.023981
0.0239831
0.0238287
0.0238686
0.023966
0.0234372
0.0233747
0.0239207
0.0239297
0.0239707
0.0239722
0.023971
0.023963
0.0239676
0.0239691
0.0238393
0.0226286
0.022652
0.0237954
0.0238048
0.0239409
0.0239416
0.0239328
0.0239302
0.0239395
0.0239402
0.0165111
0.0176918
0.0196397
0.0197363
0.0185059
0.0185786
0.0164247
0.0229001
0.0228638
0.023786
0.0174098
0.0172131
0.0184564
0.0184373
0.0169311
0.0184534
0.0184744
0.017071
0.017104
0.0239245
0.0239259
0.0239152
0.0239141
0.0239218
0.0239232
0.0197109
0.0226909
0.0227625
0.0225425
0.0226159
0.0195309
0.0236519
0.023826
0.0238419
0.0238317
0.0238291
0.0236644
0.0235083
0.0236584
0.0236428
0.0233538
0.0233075
0.0234191
0.0160374
0.0161384
0.0161437
0.0160645
0.0221446
0.0186578
0.0182577
0.0190006
0.0187558
0.021737
0.022404
0.0224446
0.0232694
0.0233364
0.0237451
0.0239966
0.0239975
0.0239956
0.0160524
0.0160905
0.017876
0.0177389
0.0145974
0.0165986
0.0162434
0.0162601
0.0161101
0.0161845
0.0166822
0.0145624
0.0230088
0.0231131
0.0240038
0.0240033
0.0239989
0.0239459
0.0239433
0.0239565
0.0239579
0.0239639
0.0239688
0.0239607
0.0239625
0.0238495
0.0238917
0.0237399
0.0237519
0.0237513
0.0237393
0.0238582
0.0237801
0.0237756
0.0228594
0.0225974
0.0225773
0.0226623
0.0226429
0.0228236
0.0239683
0.0239728
0.0239736
0.0239708
0.0239719
0.0239664
0.0239081
0.0239477
0.0239291
0.023922
0.0239401
0.0239479
0.0239487
0.0238104
0.0238122
0.0238471
0.0238227
0.0239327
0.0239334
0.023922
0.0239437
0.0239444
0.0239361
0.0239266
0.0239367
0.0239374
0.0237415
0.0237823
0.0237678
0.0237935
0.0237895
0.0237364
0.015847
0.0158503
0.015991
0.0159551
0.0176005
0.016536
0.0165067
0.0225669
0.0225801
0.0230102
0.0226743
0.0227302
0.0225801
0.0226172
0.0229626
0.023994
0.0239932
0.0239934
0.023994
0.0239966
0.0239969
0.023998
0.0239949
0.0239956
0.0239957
0.0228974
0.023276
0.0232589
0.0233306
0.0233018
0.0229167
0.0230866
0.0231932
0.0231545
0.0232466
0.0232292
0.023042
0.0239956
0.0239962
0.0239951
0.0239901
0.0239873
0.0239937
0.0239926
0.016082
0.0170632
0.0162844
0.016297
0.0162108
0.0161625
0.0180098
0.0181075
0.0168383
0.0157277
0.0156767
0.0174896
0.0160907
0.0160265
0.0160784
0.0182013
0.0163698
0.0159885
0.0232966
0.0233333
0.0235355
0.0231765
0.023193
0.0231378
0.0231495
0.0234667
0.023245
0.0232586
0.0167394
0.0159606
0.0160319
0.0159207
0.01591
0.0167768
0.0239886
0.0239895
0.023989
0.0239855
0.0239862
0.0239877
0.0239461
0.0239591
0.0239508
0.0239485
0.0239564
0.0239586
0.0239515
0.023954
0.023861
0.0238813
0.0237689
0.0237726
0.0237575
0.0237634
0.0238852
0.0238243
0.0238262
0.0237732
0.0237769
0.0238653
0.023772
0.0235769
0.0235536
0.023483
0.0236096
0.0235983
0.0237242
0.0235965
0.0235915
0.0236402
0.0236154
0.0237195
0.0237633
0.0236505
0.0236617
0.0236057
0.0236292
0.0237536
0.0235779
0.0230662
0.0233749
0.0233555
0.0226566
0.022691
0.0238399
0.0239289
0.0239224
0.0238253
0.0239009
0.0239528
0.0239386
0.0236447
0.0235987
0.0238128
0.0238232
0.0239082
0.0237424
0.0236943
0.0239644
0.0239725
0.0239848
0.0239786
0.0239536
0.0239236
0.0239525
0.023976
0.0239777
0.0239788
0.0239747
0.023976
0.0239727
0.0239693
0.0239727
0.0239828
0.0239814
0.0239802
0.0239843
0.0239824
0.0239839
0.0239773
0.0239788
0.0239763
0.0239784
0.0226439
0.0225247
0.0232583
0.0224321
0.0225358
0.0222146
0.0228456
0.0217866
0.0216697
0.022222
0.0221399
0.0236856
0.0233817
0.0234512
0.0232419
0.0233096
0.0236674
0.0238794
0.0237632
0.0237962
0.0234916
0.0236853
0.023845
0.0233167
0.023205
0.0235607
0.0227795
0.0228551
0.0226468
0.0227128
0.0235393
0.0236317
0.0231274
0.0231812
0.0229384
0.0230294
0.0236155
0.0239177
0.0239326
0.0207426
0.0195831
0.0197621
0.0192048
0.0193866
0.0207127
0.0197687
0.0198515
0.0198524
0.0201965
0.0205077
0.0181718
0.0183553
0.0184556
0.0181803
0.020629
0.0205705
0.0188791
0.0190343
0.0185648
0.0187348
0.0205274
0.0208295
0.0207002
0.0213666
0.0212118
0.0195763
0.019428
0.02022
0.020095
0.0238019
0.0238085
0.0239336
0.0239423
0.023943
0.0239381
0.0239388
0.0239293
0.0166355
0.0192574
0.0194889
0.0175117
0.0164169
0.0187336
0.0189798
0.0178257
0.0176127
0.0214573
0.0194152
0.0194478
0.0212486
0.0192678
0.0188831
0.0194645
0.0194226
0.0213562
0.018294
0.0180517
0.0182159
0.0183882
0.0171189
0.0173658
0.0178142
0.0237566
0.023831
0.0238264
0.0238374
0.0238343
0.0237608
0.0236742
0.0236943
0.0236889
0.0236501
0.0236488
0.0236697
0.0237057
0.0238029
0.0237973
0.0238194
0.0238109
0.0237173
0.0159574
0.016956
0.0170377
0.0168531
0.0169018
0.016006
0.01642
0.0176446
0.0178605
0.0171823
0.0173983
0.0161886
0.0162706
0.0158013
0.0158518
0.0159343
0.0158537
0.0161654
0.0166351
0.016779
0.0160591
0.0163481
0.0161546
0.0236808
0.0236714
0.0235321
0.023334
0.0233999
0.0159051
0.0160224
0.0171866
0.0161971
0.0160297
0.016462
0.0163731
0.0173468
0.0160626
0.0160307
0.0224761
0.022506
0.0240598
0.0240597
0.0240731
0.0240596
0.0240595
0.0240729
0.0240595
0.0240595
0.024073
0.0240597
0.0240599
0.0240732
0.0240333
0.0240331
0.0240465
0.0240328
0.0240325
0.024053
0.0240322
0.0240319
0.0240527
0.0240319
0.0240324
0.0240528
0.0240328
0.0240332
0.0240532
0.0240337
0.0240339
0.0240469
0.0240072
0.0240066
0.0240264
0.0240061
0.0240048
0.0240256
0.0240181
0.0240178
0.0240287
0.0240171
0.0240175
0.0240283
0.024019
0.0240194
0.024026
0.0240075
0.0240081
0.0240209
0.0239815
0.0239807
0.0240001
0.0239931
0.0239929
0.0239994
0.0239973
0.0239971
0.0240005
0.0239921
0.0239935
0.0240031
0.0239821
0.0239829
0.0239955
0.0239561
0.0239555
0.0239744
0.0239677
0.0239677
0.0239739
0.0239721
0.0239721
0.0239751
0.0239679
0.023969
0.023978
0.0239577
0.0239582
0.0239705
0.0239308
0.0239306
0.0239493
0.0239428
0.0239431
0.0239492
0.0239481
0.0239482
0.0239512
0.0239451
0.0239455
0.0239543
0.0239336
0.0239335
0.0239458
0.0239054
0.0239055
0.0239243
0.023918
0.0239184
0.0239246
0.0239242
0.0239244
0.0239274
0.0239221
0.0239218
0.0239307
0.0239092
0.0239087
0.0239211
0.0238798
0.0238799
0.0238991
0.0238995
0.0238997
0.0239028
0.0238979
0.0238972
0.0239064
0.0238842
0.0238835
0.0238961
0.0238538
0.0238539
0.0238735
0.0238723
0.0238722
0.0238786
0.0238585
0.0238579
0.0238708
0.0238272
0.0238268
0.02384
0.0238271
0.0238265
0.0238463
0.0238396
0.0238303
0.0238408
0.0186032
0.0235397
0.0235819
0.0238324
0.0238328
0.0238525
0.023832
0.0238321
0.023845
0.023801
0.0238006
0.0238137
0.0238009
0.0238002
0.0238199
0.0238
0.0186545
0.0186084
0.0223243
0.023805
0.0238252
0.0238057
0.0238064
0.0238259
0.0238056
0.0238058
0.0238189
0.0237747
0.0237743
0.0237875
0.0237514
0.020969
0.0186625
0.0230641
0.0237755
0.0237982
0.0237796
0.0237802
0.0237933
0.0239781
0.0239812
0.0239813
0.0239823
0.0239834
0.0239786
0.024001
0.0239977
0.0239979
0.0239541
0.0239571
0.0239571
0.0239593
0.0239594
0.0239551
0.0239771
0.0239725
0.0239736
0.0239304
0.0239334
0.0239332
0.0239366
0.023937
0.0239328
0.0239537
0.0239495
0.0239508
0.023906
0.0239091
0.0239089
0.0239133
0.023914
0.0239096
0.0239314
0.0239271
0.023928
0.0238886
0.0238882
0.023885
0.0239066
0.0239036
0.0239042
0.0238443
0.023859
0.0238638
0.0145869
0.0171951
0.0171961
0.0219851
0.0220051
0.0145874
0.0238818
0.0238786
0.023879
0.0240028
0.0240141
0.0240146
0.0239994
0.0239994
0.0239984
0.0240284
0.0240174
0.024017
0.0239993
0.0239995
0.024008
0.0240078
0.0240043
0.0240288
0.024018
0.0240184
0.0239802
0.0239865
0.0239866
0.0239881
0.0239863
0.02398
0.0239991
0.0239926
0.0239914
0.0239899
0.0239895
0.0239867
0.024
0.0239981
0.0239985
0.023981
0.0239903
0.0239889
0.0239879
0.0239879
0.0239818
0.0240004
0.0239941
0.0239942
0.0239554
0.0239615
0.0239614
0.0239633
0.0239616
0.0239555
0.0239738
0.0239677
0.0239663
0.023966
0.023969
0.023969
0.023961
0.0239645
0.0239628
0.0239746
0.0239729
0.0239715
0.0239718
0.0239696
0.0239722
0.0239572
0.023966
0.023965
0.0239635
0.0239639
0.023958
0.0239758
0.0239698
0.0239696
0.0239308
0.0239369
0.0239366
0.0239393
0.0239372
0.0239311
0.0239494
0.0239433
0.0239423
0.0239423
0.0239453
0.0239452
0.0239184
0.0239367
0.0239352
0.0239462
0.0239445
0.0239284
0.0239338
0.0239426
0.0239423
0.0239396
0.0239403
0.0239344
0.0239521
0.0239462
0.0239456
0.0239059
0.0239121
0.0239117
0.023915
0.0239126
0.0239063
0.0239249
0.0239188
0.0239181
0.0239183
0.0239214
0.0239212
0.0239016
0.023922
0.0239175
0.0239227
0.0239213
0.0239047
0.0238895
0.0238351
0.0238417
0.0239096
0.0239187
0.0239191
0.0239155
0.0239164
0.0239103
0.0239284
0.0239224
0.0239216
0.0238895
0.0238475
0.0238537
0.0238849
0.0238856
0.0238988
0.023885
0.0238912
0.0238948
0.0238908
0.0238916
0.0238853
0.0239041
0.0238979
0.0238971
0.0238682
0.0238611
0.0238599
0.0238669
0.0238662
0.0238759
0.0238206
0.0238268
0.023833
0.016472
0.0237276
0.0237124
0.0216973
0.021682
0.0153511
0.0238131
0.0238235
0.0208039
0.0238385
0.0238368
0.0238282
0.0238517
0.0238403
0.0238455
0.023977
0.0239778
0.0239762
0.0239885
0.0239836
0.0239821
0.0239844
0.0239843
0.0239875
0.0239849
0.0239826
0.0239866
0.0239985
0.0239982
0.0240001
0.0239877
0.0239894
0.0239898
0.0239753
0.023974
0.023973
0.0239873
0.0239863
0.0239866
0.0239882
0.0239851
0.0239853
0.0239856
0.023986
0.0239876
0.0239767
0.0239782
0.0239776
0.0239368
0.0239498
0.023948
0.023961
0.0239591
0.0239526
0.02396
0.0239601
0.023963
0.0239361
0.0238998
0.0239101
0.0237695
0.0237764
0.0238789
0.0239171
0.0239221
0.023946
0.0239651
0.0239608
0.0239621
0.0239576
0.0239604
0.0239614
0.0239719
0.0239737
0.0239752
0.0239623
0.0239631
0.0239605
0.0239707
0.023971
0.0239666
0.0239078
0.0239254
0.0239241
0.0239338
0.0239324
0.023914
0.0239362
0.0239364
0.0239394
0.0238354
0.0236883
0.0236859
0.0237085
0.023705
0.0238415
0.0238679
0.0237561
0.0237629
0.0236854
0.0236865
0.0238352
0.0239426
0.0239384
0.0239395
0.0239264
0.0239269
0.0239179
0.023948
0.0239481
0.023944
0.0238074
0.0232001
0.0231319
0.023537
0.0235198
0.0238209
0.023845
0.0237161
0.0237125
0.0231119
0.0230411
0.023798
0.0238995
0.023883
0.0238841
0.0238488
0.0238545
0.0238947
0.0239199
0.0239155
0.0239162
0.0239112
0.0239164
0.0239177
0.0239079
0.0239093
0.0239066
0.0239166
0.0239252
0.0239258
0.0239191
0.0239205
0.0239137
0.0239251
0.0239257
0.0239213
0.0238389
0.0236719
0.0236618
0.0237178
0.0237117
0.023841
0.0238276
0.0235694
0.0235535
0.0236509
0.0236392
0.0238359
0.0238801
0.0238681
0.0238676
0.0238554
0.0238597
0.0238863
0.0239027
0.0239049
0.0239064
0.0238967
0.0239013
0.0238986
0.0239011
0.0239006
0.0238975
0.0238338
0.0229875
0.0229094
0.0227507
0.0229307
0.0238303
0.023841
0.0237285
0.0237234
0.0238579
0.0237993
0.023793
0.0239906
0.0239938
0.023994
0.0239938
0.0239951
0.0239901
0.0240001
0.0239968
0.0239955
0.0239986
0.0239974
0.0239979
0.0238899
0.0238872
0.0238808
0.0239
0.0238936
0.0238931
0.0238933
0.0238965
0.0238963
0.0238858
0.0238957
0.0238926
0.0239019
0.0238988
0.0238869
0.0236512
0.0235083
0.0235249
0.0234008
0.0234273
0.0235971
0.0238593
0.0238658
0.023869
0.0239983
0.023998
0.0239992
0.0239906
0.0239922
0.0239929
0.0239955
0.0239971
0.0240022
0.0239904
0.0239954
0.0239938
0.0239947
0.0239945
0.0239913
0.023894
0.0239098
0.023905
0.0239159
0.0239114
0.0238949
0.023912
0.0239122
0.0239152
0.020904
0.0195267
0.0194158
0.0201157
0.0199957
0.0213581
0.0235519
0.0233553
0.0233757
0.0238944
0.0238913
0.0238917
0.0238883
0.0238904
0.0238951
0.023884
0.0238887
0.0238868
0.0216086
0.0203531
0.0202377
0.0208508
0.0207714
0.0219035
0.0238756
0.0238776
0.0238808
0.023871
0.0238743
0.0238739
0.0238757
0.0238753
0.0238721
0.0240153
0.0240092
0.0240088
0.0240098
0.0240096
0.0240155
0.0240012
0.0240075
0.0240079
0.0240042
0.0240039
0.024002
0.0240155
0.0240095
0.02401
0.0240089
0.0240092
0.0240152
0.0239935
0.0239905
0.0239916
0.0239962
0.0239976
0.0239996
0.0239924
0.0239934
0.0239928
0.0239967
0.0239963
0.0239945
0.0238358
0.0238448
0.0238904
0.0238969
0.0238876
0.0238878
0.0237217
0.0236141
0.0236233
0.0235405
0.0235538
0.0236783
0.0237282
0.0238357
0.0238339
0.0238383
0.0238371
0.0237344
0.0238744
0.0238653
0.0238644
0.0239754
0.023981
0.0239832
0.0239774
0.0239585
0.0239726
0.0239702
0.0239814
0.0239783
0.0239921
0.023991
0.0239899
0.0239915
0.0239911
0.0239928
0.0239798
0.0239789
0.0239797
0.0239823
0.0239816
0.0239807
0.0238258
0.0238337
0.0239106
0.0238985
0.0238116
0.0238186
0.023948
0.0239516
0.0239626
0.023957
0.023941
0.0239445
0.0239525
0.0239533
0.0239453
0.0239616
0.023961
0.0239596
0.0239639
0.0239625
0.023963
0.023956
0.0239553
0.0239539
0.0239582
0.0239568
0.0239574
0.0239431
0.0239509
0.0239517
0.0239694
0.0239703
0.0239691
0.0239732
0.0239727
0.0239713
0.0239757
0.0239742
0.0239747