/*--------------------------------*- C++ -*----------------------------------*\
| =========                 |                                                 |
| \\      /  F ield         | OpenFOAM: The Open Source CFD Toolbox           |
|  \\    /   O peration     | Version:  5.x                                   |
|   \\  /    A nd           | Web:      www.OpenFOAM.org                      |
|    \\/     M anipulation  |                                                 |
\*---------------------------------------------------------------------------*/
FoamFile
{
    version     2.0;
    format      ascii;
    class       volScalarField;
    location    "200";
    object      p;
}
// * * * * * * * * * * * * * * * * * * * * * * * * * * * * * * * * * * * * * //

dimensions      [0 2 -2 0 0 0 0];

internalField   nonuniform List<scalar> 
6584
(
20.9991
19.1747
17.3498
15.5252
13.7007
11.8763
10.0519
8.22808
6.40449
4.58085
2.75664
0.931247
-0.895713
-2.72413
-4.55341
-6.3829
-8.21209
-10.0408
-11.8693
-13.6973
-15.5251
-17.3522
-19.1784
-21.0036
21.0007
19.179
17.3554
15.5312
13.7069
11.8815
10.0548
8.22941
6.40563
4.58228
2.75835
0.933149
-0.893862
-2.72257
-4.55225
-6.38255
-8.2131
-10.0434
-11.8737
-13.703
-15.5311
-17.3583
-19.1832
-21.0049
21.001
19.1822
17.362
15.5393
13.7154
11.89
10.0612
8.23234
6.40727
5.0396
3.21705
1.39297
-0.433572
-2.26272
-4.09349
-6.38622
-8.22131
-10.0537
-11.8839
-13.7125
-15.5394
-17.3646
-19.1861
-21.0059
21.001
19.1828
17.3643
15.5444
13.7221
11.8979
10.0694
8.23909
6.41136
5.04186
3.22105
1.39877
-0.42751
-2.25918
-4.09853
-5.9372
-8.23724
-10.0677
-11.8955
-13.7219
-15.5464
-17.3681
-19.1875
-21.0067
21.0006
19.1826
17.3644
15.5461
13.7263
11.9038
10.0785
8.25386
6.8764
5.04662
3.22662
1.40705
-0.41841
-2.26282
-4.11757
-5.96099
-7.79397
-10.0805
-11.9057
-13.7295
-15.5507
-17.3701
-19.1888
-21.0075
21.0001
19.1822
17.3641
15.5461
13.7277
11.9078
10.0869
8.72094
6.89779
5.07414
3.47186
1.64964
-0.171329
-2.04642
-4.14132
-5.97975
-7.80795
-10.0912
-11.9141
-13.7346
-15.5534
-17.3718
-19.1899
-21.0082
20.9996
19.1817
17.3636
15.5455
13.7272
11.9085
10.089
8.72309
6.9041
5.08869
3.50549
1.80371
-0.010829
-2.06866
-3.93467
-5.99898
-7.82235
-10.1009
-11.9204
-13.7381
-15.5557
-17.3733
-19.191
-21.0089
20.9992
19.1812
17.363
15.5447
13.7262
11.9073
10.0884
8.72325
6.90117
5.08034
3.49296
1.80899
-2.02172
-3.97133
-6.01876
-7.83525
-10.1073
-11.9246
-13.7409
-15.5577
-17.3746
-19.1919
-21.0094
20.9988
19.1807
17.3624
15.5439
13.7251
11.9056
10.0856
8.72048
6.89459
5.06438
3.45917
1.71976
-2.13698
-4.01104
-6.03433
-7.84236
-10.1094
-11.9262
-13.7428
-15.5591
-17.3755
-19.1925
-21.0096
20.9985
19.1803
17.3619
15.5432
13.7242
11.9044
10.0838
8.71711
6.88782
5.05296
3.43883
1.68422
-2.18728
-4.03231
-6.04093
-7.84441
-10.1076
-11.9241
-13.742
-15.5594
-17.3759
-19.1927
-21.0096
20.9983
19.1799
17.3614
15.5427
13.7236
11.9038
10.083
8.7154
6.88558
5.05181
3.44041
1.70068
-2.16304
-4.02286
-6.03384
-7.83877
-10.1017
-11.9184
-13.7375
-15.5576
-17.3757
-19.1925
-21.0094
20.9982
19.1797
17.3613
15.5426
13.7236
11.9041
10.0834
8.71552
6.88764
5.05878
3.45664
1.74018
-2.09528
-3.9901
-6.01533
-7.82606
-10.0917
-11.9099
-13.7301
-15.5523
-17.3736
-19.1919
-21.0088
20.9982
19.1798
17.3614
15.5427
13.724
11.9051
10.0848
8.71733
6.89209
5.06858
3.47586
1.78078
-2.02206
-3.94861
-5.99095
-7.80872
-10.0784
-11.8988
-13.7207
-15.5447
-17.3695
-19.1908
-21.008
20.9984
19.1799
17.3616
15.5431
13.7246
11.9061
10.0862
8.26398
6.89596
5.0735
3.4811
1.77538
0.0584804
-2.06869
-3.91018
-5.96357
-7.78891
-10.0623
-11.8856
-13.7095
-15.5366
-17.3639
-19.1878
-21.0069
20.9985
19.18
17.3618
15.5434
13.725
11.9065
10.0856
8.25942
6.89154
5.05716
3.45889
1.64558
-0.176763
-2.03425
-4.10694
-5.94067
-8.22511
-10.0511
-11.8769
-13.7015
-15.5293
-17.3563
-19.1813
-21.0043
20.9986
19.1801
17.3618
15.5433
13.7249
11.9059
10.0828
8.25113
6.87551
5.04887
3.22826
1.63463
-0.195178
-2.26036
-4.09861
-5.93254
-8.21857
-10.0455
-11.8713
-13.6992
-15.525
-17.3508
-19.1759
-21.0015
20.9986
19.1801
17.3616
15.5431
13.7244
11.9043
10.0784
8.2459
6.41503
5.04712
3.224
1.39895
-0.428961
-2.2626
-4.09689
-5.92778
-8.2124
-10.039
-11.866
-13.6938
-15.5209
-17.3472
-19.1745
-21.0001
20.9986
19.1799
17.3613
15.5425
13.7232
11.9011
10.073
8.24133
6.41363
4.58898
3.22116
1.39648
-0.43583
-2.26435
-4.55199
-6.38055
-8.20863
-10.0355
-11.8626
-13.6899
-15.5166
-17.3434
-19.1707
-20.998
20.9986
19.1797
17.3608
15.5418
13.7221
11.8977
10.0678
8.23811
6.4119
4.58773
2.75872
0.937166
-0.891283
-2.72469
-4.5498
-6.37884
-8.20632
-10.0332
-11.8601
-13.6871
-15.5138
-17.3408
-19.1677
-20.9961
20.9984
19.1794
17.3603
15.541
13.7209
11.8951
10.0644
8.23645
6.41051
4.58639
2.75825
0.934841
-0.892624
-2.72344
-4.54889
-6.37769
-8.20452
-10.0314
-11.8581
-13.6849
-15.5118
-17.3387
-19.1653
-20.9946
20.9983
19.179
17.3596
15.5401
13.7196
11.8931
10.0622
8.23526
6.40954
4.58521
2.75768
0.932885
-0.89412
-2.72291
-4.54852
-6.37678
-8.20319
-10.0301
-11.8565
-13.6831
-15.51
-17.3368
-19.1634
-20.9933
20.9981
19.1786
17.3589
15.5391
13.7183
11.8917
10.0607
8.23432
6.40853
4.58426
2.75705
0.931809
-0.894909
-2.7228
-4.54836
-6.37613
-8.20223
-10.0291
-11.8553
-13.6818
-15.5087
-17.3353
-19.1617
-20.9922
20.9979
19.1782
17.3582
15.5382
13.7171
11.8905
10.0596
8.23319
6.40766
4.58352
2.75664
0.931138
-0.895388
-2.7227
-4.54825
-6.37563
-8.20153
-10.0283
-11.8543
-13.6808
-15.5075
-17.334
-19.1603
-20.9913
20.9976
19.1777
17.3575
15.5372
13.7159
11.8892
10.0585
8.23213
6.40688
4.58272
2.75631
0.930672
-0.895728
-2.72264
-4.54819
-6.37523
-8.20101
-10.0276
-11.8535
-13.6799
-15.5065
-17.3329
-19.1591
-20.9905
20.9974
19.1772
17.3568
15.5362
13.7147
11.8881
10.0576
8.23115
6.40599
4.58193
2.75603
0.930322
-0.895968
-2.72259
-4.54814
-6.37493
-8.2006
-10.0271
-11.8528
-13.6793
-15.5057
-17.332
-19.1581
-20.9898
20.9971
19.1768
17.3561
15.5353
13.7136
11.887
10.0567
8.23022
6.40509
4.58118
2.75526
0.929657
-0.896512
-2.72281
-4.54832
-6.37488
-8.20051
-10.0269
-11.8527
-13.679
-15.5052
-17.3313
-19.1573
-20.9892
20.9968
19.1763
17.3554
15.5345
13.7125
11.886
10.0558
8.2294
6.40422
4.57977
2.75387
0.928312
-0.897696
-2.72382
-4.54934
-6.3757
-8.2013
-10.0276
-11.8534
-13.6795
-15.5055
-17.3314
-19.1573
-20.989
20.9966
19.1758
17.3548
15.5336
13.7115
11.885
10.055
8.2286
6.40298
4.578
2.75219
0.926591
-0.899389
-2.72542
-4.55091
-6.37713
-8.20268
-10.0289
-11.8546
-13.6807
-15.5065
-17.3324
-19.1582
-20.9894
20.9963
19.1754
17.3541
15.5328
13.7106
11.8841
10.0542
8.22741
6.40134
4.57631
2.75051
0.924908
-0.901049
-2.727
-4.55247
-6.37857
-8.20408
-10.0302
-11.8558
-13.6818
-15.5076
-17.3335
-19.1592
-20.9897
20.9961
19.175
17.3536
15.5321
13.7097
11.8832
10.0531
8.22574
6.39972
4.57462
2.74887
0.923256
-0.902678
-2.72855
-4.55403
-6.37999
-8.20548
-10.0315
-11.8571
-13.683
-15.5087
-17.3345
-19.1603
-20.9901
20.9958
19.1746
17.353
15.5314
13.7087
11.8818
10.0512
8.22406
6.3981
4.57294
2.74724
0.921627
-0.904284
-2.73009
-4.55555
-6.38144
-8.2069
-10.0328
-11.8584
-13.6842
-15.5098
-17.3356
-19.1613
-20.9905
20.9956
19.1742
17.3524
15.5307
13.7072
11.8793
10.0492
8.22238
6.39648
4.5713
2.74562
0.920014
-0.905873
-2.73162
-4.55707
-6.38285
-8.20831
-10.0342
-11.8597
-13.6854
-15.511
-17.3368
-19.1624
-20.991
20.9954
19.1739
17.3519
15.5296
13.7047
11.8765
10.0472
8.2207
6.39488
4.56964
2.74402
0.918418
-0.907447
-2.73315
-4.55856
-6.3843
-8.20971
-10.0355
-11.861
-13.6867
-15.5122
-17.3379
-19.1635
-20.9914
20.9952
19.1735
17.3515
15.5281
13.7017
11.8736
10.0452
8.21902
6.39328
4.56801
2.74241
0.916834
-0.909012
-2.73465
-4.56006
-6.38572
-8.21112
-10.0368
-11.8623
-13.688
-15.5135
-17.3391
-19.1646
-20.9919
20.995
19.1732
17.351
15.5265
13.699
11.8709
10.0432
8.21733
6.39163
4.56635
2.74078
0.915261
-0.910564
-2.73613
-4.56154
-6.38711
-8.21254
-10.0382
-11.8636
-13.6892
-15.5147
-17.3403
-19.1658
-20.9923
20.9949
19.1729
17.3507
15.5255
13.6971
11.8686
10.0413
8.21568
6.39009
4.56475
2.73915
0.913695
-0.912117
-2.73769
-4.563
-6.38853
-8.21394
-10.0395
-11.8649
-13.6905
-15.516
-17.3415
-19.167
-20.9928
1.72827
-1.90836
-1.78984
1.68554
-1.97302
-1.92153
1.69669
-1.9521
-1.97506
1.73481
-1.88415
-1.94522
1.77642
-1.80437
-1.87419
1.78846
0.185548
0.0657286
-1.73539
-1.79482
1.81849
0.219128
-1.7729
-1.70613
3.46725
1.96267
2.03177
-1.02991
-0.886652
-2.12534
-3.55539
-3.51661
3.44175
1.92191
1.95487
1.69979
0.923304
0.948507
-1.19787
-1.15703
-2.18496
-3.58915
-3.56665
3.43818
1.92973
1.9206
1.68531
0.910999
0.90547
-1.23366
-1.24071
-2.16975
-3.58597
-3.59196
3.45186
1.96362
1.93328
1.71428
0.963689
0.9399
-1.12319
-1.1717
-2.10445
-3.55225
-3.57965
-1.0039
-1.07616
-2.03098
-3.50602
-3.54117
-0.904796
-0.947114
1.64923
0.168071
0.175353
-0.0622495
-1.56736
-1.72732
0.953204
1.0038
1.75987
0.884928
0.831896
0.993845
0.894906
-1.15365
-1.07068
-1.86235
-1.15096
-1.20693
0.906096
0.920151
1.695
0.831218
0.814273
0.827539
0.832369
-1.23643
-1.20319
-1.95869
-1.2592
-1.275
-1.20977
-1.25541
-1.95144
0.936609
0.914182
1.68738
0.821661
0.84899
0.814732
0.819278
-1.17714
-1.22957
-1.9686
-1.26733
-1.23582
-1.27794
-1.27104
-1.97226
0.851404
0.878194
0.851482
0.847869
-1.07914
-1.12196
-1.91185
-1.17714
-1.16312
-1.23147
-1.17864
-1.92084
0.914443
0.938462
0.882048
0.910501
-0.953452
-0.99785
-1.15749
-1.11559
-1.84388
0.964236
0.939781
0.940977
0.961861
-0.851121
-0.900257
1.77202
1.0141
1.10138
-0.536861
-0.384801
3.47132
2.0014
1.96849
1.75647
1.02306
0.996086
-0.495967
-0.521423
-1.96585
-3.46169
-3.49421
0.616284
0.491742
-1.00896
-1.13684
-1.84448
0.9924
0.967213
1.71924
0.431371
0.450746
0.510013
0.520681
0.44877
0.467543
-0.52512
-0.54695
-1.83398
-1.10946
-1.06667
0.522452
0.532023
-1.06059
-1.02133
-1.76705
0.224951
0.955249
1.0062
-0.868259
-0.742866
0.0978033
-0.564383
-0.97295
-0.614435
-0.455156
-0.595777
-0.952016
-1.17828
-1.18026
-1.24872
-1.24851
-1.15012
-1.14715
-1.02176
-0.630493
-1.05194
-0.470178
-0.493235
-0.579405
-0.555011
-0.927995
0.424394
0.857181
0.460117
0.481022
0.461838
0.849513
0.484255
0.544196
0.93462
0.477242
0.423489
-1.11979
-1.11541
0.817642
0.81776
0.842617
0.841832
-1.21062
-1.20769
-1.24866
-1.60071
-1.59083
-1.61146
-1.60358
-1.25166
-1.22987
-1.56727
-1.54817
-1.58688
-1.57256
-1.23053
0.835912
0.837787
0.81394
0.814842
-1.19146
-1.19622
-1.23613
-1.59835
-1.60892
-1.57994
-1.59407
-1.23192
-1.28571
-1.6163
-1.61331
-1.61166
-1.61602
-1.28568
0.435554
0.862047
0.487739
0.467357
0.506713
0.486226
0.866046
0.832324
0.471239
0.83588
-1.09996
-1.1019
-1.2042
-1.55886
-1.57432
-1.53783
-1.55375
-1.20309
0.490011
0.507381
0.894308
0.523949
0.506608
0.544837
0.526084
0.89833
0.46876
0.487821
-0.972428
-0.603695
-0.582809
-0.623462
-0.603331
-0.978997
-0.541286
0.525026
0.536967
0.201478
0.533761
0.52039
-0.00937598
-0.416407
-0.467448
-0.0459357
3.4851
2.12903
2.00543
1.79239
1.12587
1.11013
-0.0333989
-0.742488
-0.788395
0.427852
1.04915
1.02677
1.76176
0.288721
0.281623
0.177725
0.525907
0.502297
0.289789
0.30354
-0.367298
-0.401358
0.040914
0.312592
0.62299
0.629007
-0.363237
-0.270216
0.17868
0.931821
1.29234
1.28204
-1.18132
-1.0213
-1.16534
0.906142
1.2687
1.27105
1.26834
1.26716
0.905399
-1.24279
-1.24519
-1.13574
-1.15143
-0.228957
-0.234731
-0.921832
-0.55203
-0.559027
0.880567
0.8702
0.197287
0.949564
0.556462
0.66709
-1.13716
-0.981021
-1.01462
-1.19014
-1.50568
-1.47207
-1.54079
-1.51464
-1.20058
0.909383
1.27239
1.26789
1.28049
1.27295
0.910956
0.822993
0.629167
0.656051
0.62445
0.623748
0.816
0.658629
0.657668
0.83684
-1.2276
-1.19739
-1.25451
-1.41229
-1.3852
-1.43397
-1.42805
-1.26649
1.27352
1.27849
0.924504
0.828614
0.651269
0.626713
0.813573
0.624057
0.62467
0.622975
0.621253
0.816732
-1.17492
-1.21705
-1.2552
-1.42252
-1.42854
-1.36141
-1.39757
-1.23425
-1.28294
-1.43837
-1.43426
-1.43142
-1.43525
-1.27982
-1.08766
-0.91298
-0.91301
-0.977596
-0.958421
-1.11529
-1.18751
-1.51636
-1.53245
-1.49473
-1.51079
-1.182
0.925762
0.562387
0.547162
0.604155
0.595188
0.929145
0.329044
0.332119
0.94979
0.615554
0.607379
0.321025
0.327599
-0.222382
-0.222763
-0.482009
-0.153222
-0.45811
-0.276199
-0.507803
-0.336383
-0.313403
-0.348431
-0.512551
0.556053
0.380587
0.482613
0.358074
0.536319
0.42402
0.436104
0.299311
0.292431
0.515403
0.344719
0.347139
0.344259
0.342445
0.516181
0.446515
0.45186
-0.532786
-0.533272
0.527166
0.358873
0.350799
0.300598
0.29506
-0.659804
-0.812841
-0.773032
-0.855195
-0.824497
-0.680279
-1.17676
-1.1701
-1.24498
-1.24781
-1.14125
-1.14595
-0.664001
-0.815619
-0.825341
-0.803592
-0.813919
-0.658901
-0.832395
-0.854027
-0.829759
-0.829533
-0.480032
-0.299321
-0.290495
-0.31855
-0.300791
-0.482854
-0.238766
-0.270573
0.451648
0.648509
0.638716
0.671974
0.653196
0.45261
0.6162
0.617856
0.634016
0.617746
0.510298
0.69802
0.677557
0.451699
0.446597
-0.96278
-0.974229
-1.13363
-0.921778
-0.885427
-0.864802
-0.911047
-0.892093
-1.09745
-0.943389
-0.955741
0.621343
0.623716
0.821592
0.563651
0.561945
0.600669
0.566221
0.564611
0.565825
0.562862
0.565525
0.815734
0.623876
0.62203
0.593509
0.588227
0.617969
0.601753
0.597377
0.602059
0.59003
0.595418
0.837341
0.656767
0.654265
-1.22494
-1.2012
-1.4186
-1.41271
-1.24962
-1.26353
-1.42718
-1.41975
0.66034
0.656221
0.831384
0.600593
0.601964
0.559276
0.594728
0.595856
0.605618
0.601017
0.597307
0.623077
0.624035
0.81424
0.565185
0.563539
0.566224
0.56513
0.560803
0.559479
0.563278
0.562035
0.815557
0.621878
0.622765
-1.1776
-1.21088
-1.41165
-1.4192
-1.24993
-1.2289
-1.40043
-1.40825
-1.43978
-1.43794
-1.28463
-1.28195
-1.43746
-1.43848
0.436205
0.472831
0.654134
0.661325
0.644615
0.650781
0.459827
0.499037
0.672652
0.649222
0.663147
0.669753
0.491757
0.624799
0.623142
0.614064
0.624524
0.479936
0.637705
0.6437
0.623483
0.633791
0.474734
-0.936578
-0.919112
-1.0914
-0.870995
-0.897579
-0.857668
-0.861491
-0.90232
-1.11096
-0.948874
-0.930745
0.494491
0.317845
0.326171
0.343173
0.316637
0.496915
0.299471
0.471642
0.328347
0.475423
-0.6218
-0.793243
-0.800457
-0.779184
-0.789898
-0.614015
-0.561774
-0.572725
0.334568
0.346867
0.298959
0.318105
-0.197508
-0.220239
-2.00764
-3.50403
-3.47381
-1.75871
-1.06941
-1.03707
0.363151
0.49392
0.480371
-0.0170963
0.0248584
0.294961
-1.73803
-0.997397
-0.992567
1.30859
1.29494
0.935148
-1.192
-1.15184
-1.15867
-1.23822
-1.24213
1.2914
1.29901
0.949704
-1.13314
-1.12514
-1.16514
-0.910827
-0.894726
-1.0661
0.970703
1.33022
1.31255
0.67828
0.681209
0.836628
-0.914961
-0.937178
-1.092
0.850703
0.664411
0.677218
-1.2329
-1.16594
-1.17194
-1.20665
-1.33363
-1.33122
-1.27198
-1.38073
-1.3746
-1.24098
0.927457
1.28148
1.28815
0.666283
0.659249
0.843511
-1.18086
-1.14535
-1.13947
-1.22581
-1.26368
-1.32504
-1.328
-1.27978
-1.33755
-1.3358
-1.33095
-1.33364
-1.27477
0.826036
0.681385
0.671482
-1.21552
-1.35403
-1.35957
-1.13979
-1.4725
-1.48915
0.221996
0.22131
0.63091
0.618894
0.952378
0.219179
0.221196
-0.553028
-0.53422
-0.883794
-0.523893
-0.474634
0.427298
0.399128
0.402705
0.451383
0.446524
0.390784
0.39506
0.412296
0.409482
0.464908
-0.501053
-0.49173
-0.542928
0.355988
0.357681
0.528126
-0.826366
-0.415595
-0.435503
-0.583714
-0.626801
-0.679825
-0.665101
-0.75825
-0.741929
-0.760176
-0.720878
-0.53832
-1.1218
-1.12657
-1.17566
-1.17901
-1.12418
-1.12636
-1.24999
-1.24869
-1.09439
-1.09255
-1.14975
-1.14331
-1.09128
-1.08907
-0.705974
-0.714933
-0.684795
-0.690972
-0.639867
-0.724377
-0.732981
-1.06284
-0.891239
-0.885655
0.425959
0.458156
0.515613
0.515677
0.545315
0.538761
0.476618
0.496241
0.499593
0.512456
0.495435
0.455971
0.69828
0.703903
0.517832
0.465205
0.400148
0.403317
0.425947
-0.787534
-0.776081
0.653617
0.658944
0.849082
0.50225
0.504915
-1.21478
-1.20501
-1.35908
-1.35344
-1.22139
-1.23661
-1.36858
-1.36366
0.84164
0.65939
0.660275
-1.18564
-1.20062
-1.34237
-1.34232
-1.28571
-1.28567
-1.34194
-1.34217
0.439172
0.488128
0.543768
0.545016
0.523618
0.522409
0.462892
0.684256
0.682607
0.829064
0.506776
0.503255
0.513774
0.520188
0.475067
0.527247
0.525636
0.499564
0.497336
-1.3423
-1.34759
-1.21063
-1.19347
-1.33176
-1.33758
0.511942
0.661063
0.666333
0.652097
0.655839
0.508177
-0.593548
-0.739454
-0.776208
-0.727267
-0.733555
-0.591321
-0.621918
-0.682277
-0.681802
-0.543465
-0.505989
-0.588283
0.1924
0.22758
0.240906
0.207534
0.541712
0.372481
0.358874
0.38292
0.375556
0.516174
-0.0600991
-0.0864895
-0.285852
-0.281233
-0.456929
0.398562
0.427447
0.36476
0.284768
0.281806
0.333169
0.324204
0.171298
0.303102
0.258549
0.255172
0.251929
0.256191
0.305147
0.106227
-0.1554
-0.186833
-0.326201
-0.0663672
-0.107923
-1.14046
-1.14573
-1.18643
-1.02542
-1.05245
-1.05541
-1.06477
-1.05835
-1.24144
-1.24327
-1.02107
-1.02885
-1.00678
-1.01287
-1.15807
-1.11655
-1.10849
-0.236562
-0.182452
-0.171453
-0.196501
-0.191946
-0.241135
-0.991195
-1.03442
-1.02743
-1.0516
-1.04343
-1.00313
-1.22977
-1.20532
-1.17355
-1.17385
-1.26909
-1.32888
-1.32641
-1.15798
-1.15118
-1.18035
-1.2228
-1.31827
-1.32187
-1.26003
-1.34019
-1.33885
-1.28125
-1.27775
-1.33596
-1.3377
-0.972995
-1.01061
-1.00431
-1.00268
-1.00842
-0.965946
0.21949
0.217325
0.213846
0.215276
0.323349
0.267093
0.265373
-0.118504
-0.120505
-0.221346
-0.158166
-0.165993
-0.162503
-0.156818
-0.220281
-0.429313
-0.446738
-0.504535
-0.372834
-0.190523
-0.269806
-0.229891
-0.335856
-0.311253
-0.24255
-0.324997
-0.382324
-0.390395
-0.376346
-0.377542
-0.316234
-0.363947
-0.400083
-0.402521
-0.399224
-0.405024
-0.359049
0.394268
0.462053
0.431984
0.377921
0.372588
0.394688
0.387344
0.423721
0.449153
0.404548
0.399893
0.297676
0.295417
0.400398
0.402107
0.347649
0.38353
0.386495
0.445158
0.364557
0.36293
0.359776
0.459487
0.394739
0.384035
-0.471438
-0.47673
-0.53251
-0.430548
-0.435705
-0.410637
-0.420752
-0.537019
-0.481835
-0.473802
0.297457
0.242167
0.247103
0.23415
0.237582
0.29511
-0.709151
-0.693758
-0.63842
-0.698133
-0.732319
-0.723731
-1.09706
-1.174
-1.12906
-1.13483
-1.07905
-1.07217
-1.09216
-1.08628
-1.24781
-1.24923
-1.05225
-1.05925
-1.03691
-1.04492
-1.1462
-1.08705
-1.08027
-1.10124
-1.09502
-1.14285
-1.06525
-0.696707
-0.699064
-0.64982
-0.697954
-0.702099
-0.838886
-0.789254
-0.779328
-0.809043
-0.799895
-0.846941
-0.831791
-0.775345
-0.771761
-0.772067
-0.76955
-0.830602
-0.737964
-0.313116
-0.371946
-0.375593
-0.248169
-0.259671
0.420151
0.514947
0.514307
0.454208
0.460252
0.528996
0.52005
0.48848
0.492179
0.556065
0.553607
0.61712
0.488777
0.48657
0.396591
0.395735
0.456015
0.364305
0.430645
0.390814
0.396992
-0.968665
-1.02162
-1.01675
-1.02492
-1.02397
-0.968105
-0.941377
-0.932018
-0.878245
-0.828068
-0.842243
-0.815261
-0.819517
-0.872333
-0.901236
-0.853758
-0.861399
-0.893114
0.562315
0.56125
0.595399
0.545703
0.547148
0.534845
0.570887
0.56502
0.565498
0.563692
0.564622
0.588279
0.52655
0.529222
0.529604
0.527207
0.587129
0.616307
0.558426
0.557966
0.535663
0.554762
0.611431
0.505584
0.498046
0.599225
0.543987
0.541641
0.548185
0.546113
0.600862
0.592155
0.535516
0.532211
0.539
0.53656
0.593618
-1.21937
-1.20154
0.602522
0.55079
0.552049
0.547373
0.548898
0.602615
0.562897
0.550234
0.542324
0.57782
0.595806
0.534274
0.537287
0.535233
0.532806
0.598842
0.599918
0.544086
0.545781
0.540351
0.542567
0.598752
0.56534
0.565192
0.566695
0.565199
0.560331
0.559633
0.563067
0.563375
-1.18038
-1.20551
-1.28565
-1.34215
-1.34131
-1.33943
-1.34088
-1.28411
0.44101
0.537031
0.541449
0.485809
0.459327
0.523905
0.529532
0.513314
0.510103
0.624287
0.565081
0.567122
0.619641
0.564305
0.549358
0.568326
0.568068
0.622927
0.519927
0.516504
0.52478
0.527384
0.478424
0.497734
0.511585
-0.933495
-0.989882
-0.991567
-0.979672
-0.985298
-0.926807
-0.881239
-0.889954
-0.852023
-0.822218
-0.817333
-0.854627
-0.939762
-0.989992
-0.995636
-0.989836
-0.987936
-0.933292
0.320095
0.374689
0.374204
0.377511
0.376046
0.322825
0.327954
0.389256
0.396393
0.375899
0.381183
0.318166
0.292914
0.351882
0.349308
0.359439
0.355717
0.329651
0.374676
0.377744
0.349996
0.359544
0.324601
-0.679303
-0.682399
-0.626749
-0.551389
-0.582721
0.216558
0.21848
0.306206
0.242771
0.234014
0.26343
0.258738
0.313412
0.213693
0.214067
-0.0993638
-0.110755
3.23281
2.09737
2.31669
1.64446
0.280433
0.495647
-0.176836
-1.56874
-1.33633
-2.04001
-3.20282
-3.19185
5.08669
3.95529
4.16344
3.50126
2.13678
2.10302
1.68222
0.209755
0.286271
-0.0193364
-1.58394
-1.57614
-2.05792
-3.46698
-3.44333
-3.92829
-5.07357
-5.06224
5.08582
3.95106
3.95728
3.49923
2.03983
2.14817
1.82879
1.16437
1.12984
0.0193194
-0.741011
-0.747837
-1.969
-2.55434
-2.5415
-3.96168
-5.09784
-5.08468
5.07279
3.92568
3.94616
3.48507
3.02973
3.04017
1.79776
1.57365
1.5874
-2.06792
-2.74346
-2.71537
-4.00204
-5.12228
-5.11003
5.05751
3.90404
3.91907
3.45204
2.98868
2.99717
1.71213
1.47581
1.48397
-2.16433
-2.81093
-2.7888
-4.02997
-5.14041
-5.13283
5.05107
3.89982
3.90143
3.43726
2.97268
2.97394
1.68367
1.44597
1.44637
-2.18699
-2.82947
-2.82778
-4.02808
-5.1418
-5.14359
5.05462
3.91019
3.90143
3.44355
2.98271
2.97843
1.70491
1.47235
1.46742
-2.13969
-2.79691
-2.81218
-3.99976
-5.12499
-5.13536
5.06364
3.92606
3.91405
1.74562
1.51773
1.51152
-2.06736
-2.73994
-2.76234
-3.95912
-5.09728
-5.1119
5.07275
3.93843
3.92987
-1.996
-2.57114
-2.58586
-3.91926
-5.06649
-5.08193
5.06759
4.15069
4.16095
3.46014
2.10147
2.11648
1.76725
1.09437
1.1021
0.0304926
-0.314273
-0.353426
-2.03475
-3.42427
-3.45174
-4.118
-5.03424
-5.05096
5.05086
4.13978
4.14297
3.2299
2.09205
2.09889
1.63686
0.266996
0.283411
-0.191759
-1.56993
-1.56859
-2.03075
-3.1806
-3.41882
-4.10089
-5.02033
-5.02454
3.22593
2.31384
2.31672
1.40073
0.48951
0.26351
-0.426523
-1.34425
-1.57029
-2.2613
-3.1792
-3.17815
1.49333
1.50404
1.73791
-1.89336
-1.62309
-1.64672
-1.5549
-1.57543
-1.80769
1.44775
1.45014
1.68786
-1.96954
-1.70695
-1.71305
-1.65355
-1.67214
-1.93295
1.46272
1.45833
1.69314
-1.95832
-1.69512
-1.68461
-1.71398
-1.7152
-1.97561
1.50557
1.50003
1.72952
-1.89311
-1.62056
-1.66154
-1.68034
-1.6664
-1.93768
-1.8141
-1.58869
-1.57849
-1.65223
-1.64147
-1.864
1.10629
1.13083
1.79503
0.163689
0.294741
0.286752
-0.067807
-0.0918847
0.103746
-1.56809
-1.55753
-1.78521
1.11202
1.1741
1.8295
0.422577
0.453792
0.478755
0.901745
0.941932
0.265819
0.262564
0.355549
-1.75899
-1.51933
-1.53503
-0.990576
-0.990306
-1.72959
3.00715
3.01827
3.47612
1.99116
2.5613
2.54727
2.58941
2.57593
2.00152
-1.0129
-0.876641
-0.906087
-0.7613
-0.785828
-0.907245
-2.7815
-2.75283
-2.08335
-3.54291
-3.09267
-3.1086
-3.0598
-3.07592
-3.52977
2.97699
2.98193
3.44624
1.93139
2.51648
2.51086
2.53481
2.52448
1.93585
1.46273
1.46878
1.70557
0.926111
1.046
1.04307
1.06887
1.06414
0.944356
-1.10842
-1.10834
-1.15945
-2.82746
-2.81483
-2.17111
-3.58376
-3.14444
-3.15108
-3.12294
-3.13506
-3.5763
2.97516
2.97315
3.43711
1.92219
2.50774
2.51075
2.50759
2.50661
1.92054
1.44831
1.44663
1.68413
0.908801
1.03087
1.03261
1.02766
1.02732
0.905114
-2.81785
-2.82631
-2.18432
-3.59027
-3.15284
-3.14769
-3.15469
-3.15526
-3.59241
2.99342
2.98782
3.44748
1.9497
2.52752
2.53462
2.51526
2.52095
1.94519
1.48303
1.4776
1.70952
0.953163
1.30236
1.31073
1.05725
1.06019
0.942767
-1.12597
-1.06236
-1.06109
-2.77005
-2.78986
-2.13118
-3.56255
-3.11955
-3.10726
-3.14014
-3.13069
-3.57182
-1.00983
-0.870601
-0.861692
-1.02056
-1.01735
-1.073
-2.60158
-2.61609
-2.0583
-3.51783
-3.06709
-3.05353
-3.09416
-3.08063
-3.52965
-0.91018
-0.795304
-0.789691
-0.83398
-0.827365
-0.94071
1.19723
1.09108
1.6521
0.18844
0.866261
0.858849
0.498706
0.489134
0.145762
-0.747413
-0.741418
-0.041792
-1.57211
-0.978846
-1.09945
-1.02512
-0.98684
-1.70128
0.958326
1.07919
1.07377
1.35791
1.33588
0.977904
1.74835
1.51601
1.52943
0.874369
0.71693
0.733018
0.979831
0.870307
0.887804
0.774425
0.787091
0.906605
-1.14875
-1.09892
-1.10529
-1.01875
-1.02726
-1.07929
-1.64139
-1.6604
-1.87891
-1.16563
-1.27146
-1.25787
-1.33134
-1.32355
-1.21907
0.906977
1.02907
1.02818
1.04031
1.03747
0.916432
1.69093
1.45341
1.45764
0.828276
0.768127
0.771488
0.751454
0.751722
0.815253
0.773594
0.775068
0.834448
-1.69459
-1.70455
-1.96474
-1.26145
-1.30768
-1.30453
-1.2181
-1.34689
-1.33978
-1.30235
-1.29815
-1.25059
-1.94289
-1.67719
-1.691
0.933367
1.051
1.05403
1.03487
1.03734
0.918009
1.68995
1.45435
1.45097
0.823467
0.761359
0.757925
0.788885
0.786697
0.847087
0.813835
0.751171
0.751416
0.755317
0.753794
0.818457
-1.70744
-1.69874
-1.9639
-1.28517
-1.28881
-1.23892
-1.97464
-1.71433
-1.71004
0.855065
0.710062
0.70447
0.762844
0.759305
0.874437
0.854412
0.792384
0.79124
0.703012
0.697162
0.844224
-1.0817
-1.02495
-1.02302
-1.06396
-1.06672
-1.12094
-1.64155
-1.62601
-1.90262
-1.17326
-1.30902
-1.31391
-1.27393
-1.27971
-1.16903
-1.22642
-1.27644
-1.28084
-1.31902
-1.32513
-1.18885
-1.92951
-1.66145
-1.64671
0.918345
0.806141
0.801991
0.827124
0.82416
0.935493
0.886086
0.771242
0.766867
0.797807
0.793495
0.906472
-0.959807
-0.847141
-0.840563
-0.858661
-0.851781
-0.991798
-1.15147
-1.26222
-1.26816
-1.45022
-1.4668
-1.1341
-1.85389
-1.63076
-1.62021
0.97193
0.645721
0.63517
0.610241
0.64181
0.96848
0.944124
0.832829
0.829948
-0.878923
-0.524455
-0.497503
1.54393
1.55893
1.78487
1.0502
1.38976
1.36537
1.3683
1.35147
1.06342
-0.308599
-0.339284
-0.40894
1.98794
2.55703
2.56407
2.54205
2.54958
1.98317
1.52982
1.52383
1.75107
1.01156
1.29704
1.3037
1.2832
1.29018
1.0077
-0.499087
-0.439217
-0.436489
-0.46198
-0.46098
-0.518789
-2.54414
-2.55742
-1.98807
0.596479
0.546084
0.569858
0.421946
0.433534
0.504732
-1.06567
-1.40991
-1.37539
-1.46059
-1.4228
-1.0852
-1.82606
-1.59762
-1.61988
0.981557
1.32644
1.2774
1.31413
1.32302
0.977987
1.72429
1.49423
1.48859
0.512592
0.456802
0.454503
0.462905
0.460692
0.518716
-0.529526
-0.472201
-0.465962
-1.60966
-1.59915
-1.82403
-1.09103
-1.42764
-1.44465
-1.35167
-1.42213
-1.08497
0.524417
0.468037
0.465538
0.474651
0.473252
0.530404
-1.04208
-1.32981
-1.34124
-1.30898
-1.31899
-1.03629
-1.77594
-1.54742
-1.53782
0.572813
0.610161
0.287128
1.02404
0.712338
0.678193
0.706466
0.720761
1.02393
-0.852517
-0.720402
-0.739303
-0.423345
-0.411097
-0.816983
0.155814
-0.270897
-0.295075
-0.829461
-0.865878
-0.993477
-0.517516
-0.659858
-0.631525
-0.648978
-0.632424
-0.577802
-0.930039
-0.811984
-0.835802
-0.882013
-0.872698
-1.01573
-1.05671
-1.00221
-1.00102
-0.473888
-0.414871
-0.4114
-0.43424
-0.431049
-0.490147
-0.570002
-0.713912
-0.720581
-0.700173
-0.707041
-0.566092
-0.934322
-0.820702
-0.814066
0.701249
0.712554
0.865226
0.842375
0.683466
0.696974
0.490794
0.557009
0.550621
0.609979
0.599078
0.533479
0.920041
0.802153
0.816869
-1.06798
-1.07268
-1.12545
-1.109
-1.05721
-1.0628
0.753362
0.75407
0.819052
0.816604
0.752793
0.753117
0.780918
0.782372
0.844965
0.839809
0.779022
0.779993
-1.31056
-1.30772
-1.24637
-1.59757
-1.49273
-1.49571
-1.48623
-1.48878
-1.59426
-1.60908
-1.50307
-1.50491
-1.49834
-1.50085
-1.60653
-1.25542
-1.31703
-1.31364
-1.28318
-1.28012
-1.2279
-1.56138
-1.45761
-1.46337
-1.44435
-1.45129
-1.55512
-1.58236
-1.47798
-1.48237
-1.4685
-1.47333
-1.57767
-1.23143
-1.28572
-1.28358
0.777378
0.776128
0.834876
0.838781
0.779694
0.778646
0.750857
0.75094
0.814411
0.814595
0.75117
0.751059
-1.30256
-1.30645
-1.24046
-1.60221
-1.49009
-1.48592
-1.49777
-1.49412
-1.60585
-1.58481
-1.47616
-1.47579
-1.48193
-1.47875
-1.58968
-1.22822
-1.29471
-1.29857
-1.61578
-1.5078
-1.50772
-1.50635
-1.50736
-1.61487
-1.61368
-1.5036
-1.50101
-1.50697
-1.50566
-1.61526
0.747033
0.712317
0.858771
0.505724
0.561549
0.56329
0.545412
0.545906
0.485149
0.870251
0.754807
0.750506
0.840067
0.694067
0.685477
-1.04549
-1.04294
-1.09798
-1.10383
-1.0487
-1.04706
-1.25778
-1.25836
-1.20495
-1.5639
-1.45599
-1.45047
-1.46937
-1.46233
-1.56906
-1.54319
-1.43489
-1.4294
-1.44542
-1.4403
-1.54858
-1.20116
-1.25555
-1.25649
0.491514
0.434078
0.433699
0.451056
0.446331
0.503972
0.78041
0.775878
0.890227
0.520926
0.579331
0.58206
0.564327
0.565242
0.506199
0.534854
0.680222
0.685158
0.670779
0.675229
0.531638
0.902381
0.789071
0.784744
0.469185
0.410236
0.411817
0.432248
0.429029
0.48463
-0.860015
-0.853842
-0.966105
-0.601258
-0.65884
-0.661291
-0.640358
-0.643838
-0.586458
-0.662939
-0.665021
-0.60332
-0.985655
-0.872519
-0.866202
0.529425
0.39034
0.384838
0.40176
0.392889
0.533802
0.5361
0.479021
0.476595
-0.424545
-0.279135
-0.26296
-0.40821
-0.40518
-0.46379
2.13219
2.5809
2.5814
2.57055
2.5763
2.01622
1.1205
1.34262
1.34724
1.33278
1.33774
1.11496
-0.267749
-0.262841
-0.0264512
-0.752993
-0.502496
-0.502364
-0.489642
-0.517701
-0.772046
1.04074
1.32238
1.32783
1.31023
1.31649
1.0375
1.7669
1.54138
1.53568
0.225814
0.236293
0.210641
0.515584
0.403006
0.388639
0.395303
0.399708
0.507318
-0.377087
-0.24385
-0.224221
-0.252355
-0.259583
-0.386875
0.124463
-0.0178712
-0.0469263
0.42437
0.486638
0.335998
0.632423
0.538836
0.523893
0.510792
0.533461
0.631473
-0.344766
-0.263142
-0.283106
-0.122003
-0.0666468
-0.275594
0.26856
0.0191917
0.0304202
1.05224
1.04896
0.928851
1.28799
1.16887
1.17235
1.16292
1.16596
1.28594
-1.16182
-1.10782
-1.10885
1.02844
1.02943
0.907223
1.26857
1.14891
1.14812
1.15179
1.15033
1.2706
1.26696
1.14715
1.14769
1.14735
1.14726
1.26793
0.905101
1.02739
1.0277
-1.07333
-1.06708
-1.13046
-0.807489
-0.801208
-0.915836
-0.571382
-0.686925
-0.693504
-0.674432
-0.680516
-0.565255
0.877986
0.657433
0.607382
0.647479
0.652851
0.874249
0.205744
0.425928
0.420445
0.83361
0.851823
0.964864
0.599154
0.740334
0.717725
0.783897
0.763361
0.616042
-1.08464
-1.09148
-1.14345
-1.29487
-1.28363
-1.17855
-1.49428
-1.38862
-1.3997
-1.3646
-1.37715
-1.48425
-1.53288
-1.42841
-1.43661
-1.40988
-1.41959
-1.52441
-1.21
-1.3146
-1.30511
1.03148
1.0301
0.908058
1.26991
1.15031
1.15193
1.14818
1.14929
1.26985
1.27702
1.1577
1.16041
1.15345
1.15561
1.27593
0.913189
1.03506
1.03302
0.7599
0.76391
0.826215
0.638079
0.700978
0.695112
0.712599
0.708032
0.650033
0.624215
0.688503
0.688476
0.688611
0.688485
0.623922
0.814908
0.751823
0.752191
0.658933
0.71612
0.71508
0.716613
0.716457
0.658454
0.835016
0.775913
0.776809
-1.30676
-1.30837
-1.25991
-1.41031
-1.36254
-1.36168
-1.43139
-1.37612
-1.37794
-1.3727
-1.3746
-1.43083
1.27445
1.15587
1.15386
1.16057
1.1583
1.2772
0.921468
1.03996