/*--------------------------------*- C++ -*----------------------------------*\
| =========                 |                                                 |
| \\      /  F ield         | OpenFOAM: The Open Source CFD Toolbox           |
|  \\    /   O peration     | Version:  5.x                                   |
|   \\  /    A nd           | Web:      www.OpenFOAM.org                      |
|    \\/     M anipulation  |                                                 |
\*---------------------------------------------------------------------------*/
FoamFile
{
    version     2.0;
    format      ascii;
    class       volScalarField;
    location    "200";
    object      p_rgh;
}
// * * * * * * * * * * * * * * * * * * * * * * * * * * * * * * * * * * * * * //

dimensions      [0 2 -2 0 0 0 0];

internalField   nonuniform List<scalar> 
6584
(
0.00549235
0.00593452
0.00646196
0.00724699
0.00824364
0.00951848
0.011051
0.012852
0.01473
0.0165551
0.0177986
0.0178973
0.0164501
0.0135571
0.00979052
0.00584141
0.00225018
-0.000824872
-0.0032953
-0.00522476
-0.00667371
-0.00776205
-0.0084747
-0.00904892
0.00533711
0.00582217
0.00631924
0.00709888
0.00807425
0.00935112
0.0109044
0.012798
0.0148173
0.0168777
0.0183625
0.0186262
0.0171318
0.0139883
0.00992932
0.00567564
0.00194165
-0.00118691
-0.00363795
-0.00552591
-0.00691973
-0.00797749
-0.00863731
-0.00925459
0.00500379
0.00550063
0.0059412
0.00668372
0.00760458
0.00887061
0.0104761
0.0126275
0.0149657
0.0171346
0.0199069
0.0212192
0.0201435
0.016548
0.011554
0.00507189
0.000997966
-0.00223702
-0.00461371
-0.0063613
-0.00760262
-0.00854773
-0.0090967
-0.00969529
0.00456532
0.00503147
0.00538925
0.00604889
0.00686421
0.00805501
0.00968894
0.0121068
0.0153127
0.0183966
0.0228228
0.025856
0.0250373
0.0196878
0.0124978
0.00595335
-0.000638863
-0.0039778
-0.00615798
-0.00763124
-0.00861984
-0.00936537
-0.00975359
-0.0102608
0.00405456
0.00444796
0.00469199
0.00520434
0.00583409
0.00681122
0.00831092
0.0107756
0.0137796
0.0193188
0.0263215
0.0329881
0.0329974
0.0238123
0.0123778
0.00370415
-0.00183663
-0.00669256
-0.00839849
-0.00932529
-0.00992729
-0.0103678
-0.0105456
-0.0108937
0.00349986
0.00377866
0.00387585
0.00416263
0.00449666
0.00499657
0.00605597
0.00764052
0.0116153
0.0177636
0.0278778
0.0447848
0.0511616
0.032526
0.00958059
-0.00150129
-0.00671009
-0.0102835
-0.0112153
-0.0113671
-0.0114536
-0.0114887
-0.0114128
-0.0115395
0.00294287
0.00307259
0.00300077
0.00299825
0.00295327
0.00279998
0.00312326
0.00406137
0.00600131
0.0109054
0.0240837
0.0556139
0.0974053
0.0345187
0.00182785
-0.0116876
-0.0138443
-0.0149209
-0.014496
-0.0136256
-0.0130743
-0.0126247
-0.0122696
-0.0121278
0.00243099
0.00239384
0.00215275
0.00183469
0.00136409
0.00046018
-0.000334513
-0.000547229
-0.00206325
-0.0030319
0.00115667
0.0217391
-0.00837229
-0.0267407
-0.0275662
-0.0232069
-0.0200503
-0.0178647
-0.0158435
-0.0145988
-0.0136406
-0.0130128
-0.0125827
0.00200861
0.00181077
0.00142941
0.000829441
-2.77859e-05
-0.00160021
-0.00353982
-0.0052852
-0.0106565
-0.0199435
-0.0337377
-0.0707939
-0.119725
-0.0661844
-0.0446906
-0.032475
-0.0245646
-0.020655
-0.0176363
-0.0157835
-0.0143839
-0.0135357
-0.0128356
0.00170908
0.001383
0.00092051
0.000139608
-0.000951951
-0.00287742
-0.00552817
-0.00842893
-0.0159476
-0.0297252
-0.052777
-0.106069
-0.169922
-0.0897065
-0.0545852
-0.0381272
-0.0271417
-0.0221547
-0.0186103
-0.0163963
-0.0147197
-0.0137478
-0.0128364
0.00154682
0.00114487
0.000677026
-0.000144008
-0.0012523
-0.00310361
-0.00576599
-0.00895052
-0.0159038
-0.028052
-0.0480262
-0.0868836
-0.149235
-0.0856877
-0.0530125
-0.0380761
-0.0269983
-0.021979
-0.0185482
-0.0163069
-0.0145737
-0.0135992
-0.0125654
0.00151367
0.00109486
0.000692189
-3.49738e-05
-0.000960034
-0.00238037
-0.0044338
-0.00703339
-0.0113957
-0.0179312
-0.0278891
-0.0429668
-0.0887426
-0.0615795
-0.0422494
-0.0329008
-0.0243429
-0.0202569
-0.017492
-0.0155398
-0.0139576
-0.0130959
-0.012038
0.00158215
0.00119798
0.000907025
0.000362477
-0.000259844
-0.00108319
-0.00222468
-0.00376101
-0.00506012
-0.00552761
-0.00493743
0.00266842
-0.0273704
-0.0322264
-0.028081
-0.0250769
-0.0201648
-0.0175348
-0.0157042
-0.0142511
-0.0129702
-0.012296
-0.0113013
0.00171435
0.0013996
0.00123584
0.000903517
0.000602452
0.0003506
3.08784e-05
0.000621189
0.000415981
0.00409614
0.010055
0.0299343
0.0854166
0.0117747
-0.00987242
-0.0157239
-0.0172492
-0.0156328
-0.0144701
-0.0135532
-0.0126643
-0.0117414
-0.0112902
-0.01042
0.00187181
0.00164231
0.00159489
0.00145546
0.00142198
0.00158218
0.00187353
0.00290195
0.00395608
0.0083411
0.0148377
0.0272715
0.0346927
0.0166369
-0.000329406
-0.00765914
-0.0105272
-0.0115389
-0.0115623
-0.0113678
-0.01099
-0.0104068
-0.0101752
-0.0094604
0.0020226
0.0018786
0.0019214
0.00193068
0.00208218
0.00248356
0.00308704
0.00443728
0.00569266
0.0092236
0.0146657
0.0192721
0.0183561
0.0105212
0.00289144
-0.0033107
-0.00711691
-0.00844708
-0.00911591
-0.00936956
-0.00938345
-0.00908623
-0.00903875
-0.00848888
0.00214465
0.00207649
0.00217879
0.00228856
0.00254159
0.0030581
0.00372339
0.00515717
0.00660507
0.00847557
0.0114358
0.0130772
0.012715
0.00803108
0.00305922
-0.00117028
-0.00449413
-0.00613727
-0.00713254
-0.00765055
-0.00792994
-0.0078429
-0.00793703
-0.00754205
0.00222552
0.00221902
0.0023524
0.00252091
0.00280677
0.00334334
0.00393601
0.00511129
0.00640057
0.00763296
0.00910403
0.0111392
0.00641409
0.00559069
0.00171417
-0.000443855
-0.00273705
-0.00449127
-0.00557199
-0.0062282
-0.0066644
-0.00672291
-0.00691252
-0.00665119
0.00226068
0.00230104
0.00244307
0.00263978
0.00291286
0.0034183
0.00388436
0.00484068
0.0054824
0.00730561
0.00445013
0.00920254
0.00790597
0.00113103
0.00249622
-0.000322946
-0.00191865
-0.00342499
-0.00440536
-0.00509258
-0.00559428
-0.00574425
-0.00598829
-0.00583674
0.00225112
0.00232533
0.00246062
0.00266711
0.00290203
0.00336489
0.0036763
0.00454116
0.00459567
0.00652271
0.004526
0.0071672
0.00642754
0.0017845
0.00245399
-0.000350289
-0.00131744
-0.00268726
-0.00352166
-0.00419318
-0.00470104
-0.0049041
-0.0051714
-0.00510633
0.00220114
0.00229889
0.002418
0.00262473
0.00280814
0.00323363
0.00339058
0.00420148
0.00393141
0.00555854
0.00404978
0.0051001
0.00459246
0.00171651
0.00205554
-0.000320934
-0.000884577
-0.00215914
-0.00283686
-0.00347866
-0.00395808
-0.00419028
-0.00445882
-0.00445993
0.0021166
0.00223024
0.00232802
0.00253098
0.00265797
0.00305256
0.00307641
0.00382299
0.00338444
0.00468991
0.00341809
0.00386537
0.00346877
0.00136178
0.00163983
-0.000306334
-0.000619803
-0.00178094
-0.00230656
-0.00291108
-0.00334146
-0.00358761
-0.0038427
-0.0038932
0.00200399
0.00212814
0.00220267
0.00240079
0.00247301
0.00284166
0.00276247
0.00344099
0.00292505
0.00398527
0.00292643
0.00304303
0.00272781
0.00109055
0.0013042
-0.000303791
-0.000460496
-0.0015019
-0.00189516
-0.00245838
-0.00282981
-0.00308021
-0.00331271
-0.00339917
0.00186973
0.00200083
0.00205244
0.002246
0.0022693
0.00261569
0.00246265
0.00307569
0.0025373
0.00340142
0.00251712
0.00241594
0.00215999
0.000863504
0.00102539
-0.00030452
-0.000362135
-0.00128807
-0.00157283
-0.00209348
-0.00240415
-0.0026527
-0.00285776
-0.0029696
0.00171976
0.00185544
0.0018859
0.00207555
0.00205776
0.00238442
0.00218221
0.00273362
0.002205
0.00291005
0.00216926
0.00193351
0.00171482
0.0006647
0.000790857
-0.000306802
-0.000302081
-0.00111928
-0.0013173
-0.00179557
-0.00204813
-0.00229081
-0.00246665
-0.00259567
0.00155939
0.00169801
0.00170992
0.00189615
0.00184569
0.00215435
0.00192272
0.00241737
0.00191699
0.00249468
0.00186614
0.00155165
0.00136377
0.000502204
0.000598051
-0.000308508
-0.000265827
-0.000982492
-0.00111235
-0.00154868
-0.00174814
-0.00198216
-0.00212911
-0.00226888
0.00139316
0.00153348
0.00152976
0.00171279
0.00163767
0.00192946
0.00168365
0.00212715
0.00166512
0.00214512
0.00160406
0.00125123
0.00110037
0.000371515
0.000441054
-0.000308808
-0.000243862
-0.000868239
-0.000945175
-0.00134078
-0.00149324
-0.0017166
-0.00183613
-0.00198126
0.00122488
0.00136578
0.00134937
0.00152899
0.00143636
0.00171208
0.00146353
0.00186192
0.00144202
0.00184824
0.00138229
0.00101383
0.000887346
0.000248346
0.000312091
-0.000305991
-0.000227334
-0.000767985
-0.000804553
-0.00116102
-0.00127301
-0.00148408
-0.00157864
-0.00172497
0.00105768
0.00119793
0.00117155
0.0013471
0.00124315
0.0015032
0.00126024
0.00161972
0.00124189
0.0015908
0.00118877
0.000814392
0.000709701
0.000147388
0.000209121
-0.000300229
-0.000212847
-0.000678063
-0.000683546
-0.00100236
-0.00107994
-0.00127735
-0.00134955
-0.0014937
0.000894081
0.0010323
0.000998339
0.00116875
0.00105839
0.00130286
0.00107107
0.00139672
0.00106057
0.00136485
0.00101789
0.000645152
0.000560669
6.54782e-05
0.000127296
-0.000290625
-0.000197504
-0.000594875
-0.000576443
-0.000858957
-0.000907553
-0.00108997
-0.00114234
-0.00128139
0.000736084
0.000870486
0.00083087
0.000994597
0.000881814
0.00111098
0.000893138
0.00118815
0.000892788
0.00116258
0.000864205
0.00049979
0.000434626
-1.16432e-06
6.3033e-05
-0.00027621
-0.000179158
-0.000515223
-0.000478406
-0.000726044
-0.000750418
-0.000916509
-0.000951552
-0.00108276
0.000585669
0.000713892
0.000670349
0.000824968
0.000713494
0.000926331
0.000724852
0.000991524
0.00073503
0.000977511
0.000722773
0.000373013
0.000326079
-5.55249e-05
1.38127e-05
-0.000256258
-0.000156396
-0.00043667
-0.000386074
-0.000599845
-0.000604252
-0.000752636
-0.000772636
-0.000893353
0.00044347
0.000562038
0.000516329
0.000658634
0.000551375
0.000744457
0.000562635
0.000800978
0.000582228
0.000801765
0.000588092
0.000260845
0.000232287
-9.65417e-05
-2.06228e-05
-0.000228803
-0.000128087
-0.000356678
-0.000296678
-0.000476816
-0.000465321
-0.000594041
-0.000601179
-0.000708401
0.000314854
0.000419303
0.000373482
0.000499194
0.000399464
0.00056863
0.000409929
0.000617614
0.000436352
0.000633815
0.000454592
0.000160259
0.000149155
-0.000130513
-4.23607e-05
-0.000193182
-9.40756e-05
-0.000273784
-0.000209435
-0.000355671
-0.000332848
-0.00043973
-0.000436532
-0.000527002
0.000186152
0.000266091
0.000225097
0.000322599
0.000240159
0.00037121
0.000246868
0.000407982
0.000272828
0.000435715
0.000305809
7.32862e-05
8.03757e-05
-0.000128059
-4.27409e-05
-0.000139228
-5.39251e-05
-0.00018055
-0.000121475
-0.000226804
-0.000199206
-0.000277099
-0.000266936
-0.000333229
0.00011946
0.000174917
0.000142533
0.000211929
0.000150641
0.000244863
0.000156649
0.000276294
0.000184149
0.000317904
0.000147926
-6.93429e-06
7.86542e-06
-0.000212278
-4.31961e-05
-8.49468e-05
-1.09905e-05
-9.30493e-05
-4.60259e-05
-0.000116601
-9.21416e-05
-0.000144501
-0.0001333
-0.000177155
-0.062193
-0.117932
-0.00391325
-0.104905
-0.181667
-0.130754
-0.0913557
-0.163405
-0.183796
-0.0489601
-0.101879
-0.157144
-0.00231046
-0.0327988
-0.0929893
0.0285755
0.0958978
0.0918891
0.0151871
-0.0250075
0.0325162
0.0978897
0.0112401
0.0454232
-0.0256881
-0.0545818
0.0174722
-0.0919096
0.0454955
-0.108371
-0.0643944
-0.0267185
-0.0503495
-0.0951015
-0.0624291
-0.0909156
-0.131649
-0.10556
-0.225349
-0.188962
-0.167453
-0.0993526
-0.0756788
-0.0511831
-0.0847456
-0.0962382
-0.104267
-0.141112
-0.14809
-0.254961
-0.261326
-0.155293
-0.100533
-0.102894
-0.0336788
-0.0465701
-0.0807051
-0.0718188
-0.0875917
-0.112777
-0.162268
-0.199939
-0.0967732
-0.0745161
-0.0958093
-0.0691187
-0.11015
-0.0344852
-0.0397126
-0.0659407
0.0187665
-0.0177823
0.0298042
0.0340504
0.0871027
0.0332355
0.0235133
0.0172871
-0.100633
-0.0489216
-0.0299659
-0.0543656
-0.108436
0.0595252
-0.0441094
-0.185222
-0.103735
-0.0731305
-0.0987925
-0.181472
-0.147385
-0.134404
-0.0956841
-0.138889
-0.153093
-0.113267
-0.138141
-0.258878
-0.2273
-0.167363
-0.229038
-0.244368
-0.184551
-0.227184
-0.160198
-0.115999
-0.138274
-0.101892
-0.143757
-0.118298
-0.15276
-0.145726
-0.202241
-0.25273
-0.178401
-0.23736
-0.206683
-0.245759
-0.239462
-0.181674
-0.0865422
-0.0580737
-0.116093
-0.0904654
-0.113163
-0.158539
-0.126672
-0.155179
-0.112571
-0.204128
-0.157891
-0.134835
-0.0192848
0.0069928
-0.0538505
-0.0235056
-0.0234349
-0.0635357
-0.107162
-0.0685096
-0.0663548
0.0357732
0.0545363
0.0098353
0.0330983
0.0469715
0.0224989
-0.0174206
-0.038321
0.0530552
-0.0443715
0.114088
-0.0102893
-0.00386698
-0.0410878
-0.0247913
-0.0236665
-0.0527141
0.00884217
-0.0146004
0.00985178
-0.0111323
-0.0314577
0.112142
-0.0140603
0.0370807
-0.0851261
-0.0559091
-0.056702
-0.0838135
-0.0663056
-0.0816579
-0.0651708
-0.000496614
0.0132311
-0.0624107
-0.0442673
-0.0180656
-0.0399864
-0.0577673
-0.0628978
-0.0247215
0.0143351
0.0242124
-0.0193953
0.0137306
-0.00370921
0.160305
0.106919
0.073543
0.0620438
0.102267
0.160561
-0.0626843
-0.0366295
-0.0588658
0.102831
-0.0411868
-0.0166002
-0.216125
-0.213321
-0.262678
-0.262688
-0.18191
-0.184054
-0.0860016
-0.0714086
-0.087381
0.0348044
0.0119755
-0.0150674
0.00743525
-0.00107243
-0.0904534
-0.0826185
-0.116415
-0.0867754
-0.118798
-0.0900581
-0.0810574
-0.0200732
-0.00311879
-0.0279296
-0.0848237
-0.153625
-0.149111
-0.147798
-0.147949
-0.12577
-0.126851
-0.251512
-0.251712
-0.235891
-0.205644
-0.195481
-0.21562
-0.20837
-0.236483
-0.206129
-0.172543
-0.153762
-0.191644
-0.177839
-0.209548
-0.133413
-0.131184
-0.153228
-0.152084
-0.236418
-0.237944
-0.221951
-0.204205
-0.213699
-0.186265
-0.200217
-0.220216
-0.248032
-0.220172
-0.21732
-0.216143
-0.219961
-0.247897
-0.0832992
-0.0753365
-0.0836527
-0.0984805
-0.0640975
-0.0809865
-0.0709736
-0.106055
-0.100143
-0.101868
-0.133178
-0.13611
-0.18303
-0.166435
-0.18091
-0.146515
-0.1615
-0.179013
-0.0210791
-0.00235088
-0.0407807
-0.0437929
-0.0612532
-0.0229316
-0.0412515
-0.0365188
-0.0417365
-0.0236747
-0.0405362
-0.0414593
-0.0183579
-0.0682083
-0.043947
-0.0465362
-0.0433569
0.0467284
0.0614365
0.0804825
0.0259736
0.0411409
0.0958187
0.0564064
0.0372854
0.212246
0.00762748
0.0212443
0.000733941
0.016072
0.0278488
0.0101153
0.0570422
0.0428183
0.0469642
0.163065
0.00500023
-0.019659
-0.018887
0.0132724
0.0150061
0.0811934
0.0642603
0.0714374
0.0161497
0.0178577
0.065748
0.0608844
0.0892548
0.24073
0.172416
0.12661
0.133918
0.176612
0.24379
-0.122391
-0.101833
-0.112229
-0.221189
-0.209806
-0.201208
-0.146952
-0.125075
-0.122328
-0.125749
-0.12671
-0.147942
-0.259426
-0.26169
-0.171954
-0.191567
0.0444292
0.0354245
0.00423444
0.0104026
0.0300789
0.053642
0.0464783
0.0583059
0.0124239
-0.00794048
0.104966
-0.172845
-0.197148
-0.208305
-0.137725
-0.112377
-0.0798126
-0.146592
-0.12113
-0.148398
-0.143412
-0.121812
-0.126243
-0.113784
-0.121269
-0.141619
-0.143858
-0.156982
-0.149382
-0.165872
-0.164539
-0.150854
-0.147781
-0.144448
-0.133261
-0.25687
-0.236999
-0.233528
-0.216442
-0.215906
-0.23547
-0.230978
-0.241596
-0.11973
-0.114307
-0.129414
-0.139913
-0.148867
-0.154662
-0.154037
-0.167438
-0.166226
-0.157399
-0.163011
-0.148856
-0.215706
-0.247297
-0.231289
-0.226128
-0.230489
-0.193243
-0.202789
-0.21447
-0.247253
-0.238589
-0.235357
-0.232911
-0.235675
-0.244313
-0.122019
-0.122995
-0.115919
-0.170361
-0.158449
-0.148685
-0.136511
-0.12649
-0.141469
-0.106617
-0.121337
-0.13046
-0.00703718
-0.00414309
-0.0204801
0.0111735
0.00032879
-0.00333887
0.0511493
0.0594928
0.0197546
0.0229919
0.0140879
0.0345136
0.0474287
0.0549475
0.0474719
0.017943
0.158983
0.0427664
0.0115472
-0.00128907
9.08633e-05
0.0128343
-0.0031404
-0.00464018
0.0516749
0.0501676
0.15407
0.02327
0.0327913
-0.077271
-0.0710718
0.00376588
0.0117494
0.00643638
0.00945133
0.00155685
0.0156369
0.0113182
0.00814671
-0.0530883
-0.0491401
-0.0274144
-0.0304497
0.0180056
0.0180934
0.0166993
0.0187576
0.0224793
-0.0991316
-0.0774118
-0.0386114
-0.117689
-0.088351
-0.109371
-0.220026
-0.204664
-0.260727
-0.263264
-0.174567
-0.189247
-0.0849807
-0.0804808
-0.0899647
-0.0682987
-0.0773504
-0.079785
-0.102463
-0.110886
-0.0927828
-0.0995641
0.0249337
0.0318326
0.0413701
0.0157924
0.0278074
0.0219913
0.02829
0.0158888
-0.1055
-0.0887609
-0.100911
-0.0675896
-0.0841425
-0.101564
-0.117376
-0.124149
-0.104571
-0.114817
-0.0581846
-0.0416899
-0.0620636
-0.0594428
-0.0672106
-0.17107
-0.194255
-0.169555
-0.183812
-0.149274
-0.126762
-0.180296
-0.155362
-0.130546
-0.150409
-0.166975
-0.160789
-0.157937
-0.144298
-0.158256
-0.16354
-0.153165
-0.157828
-0.168509
-0.169703
-0.164278
-0.166445
-0.15087
-0.163455
-0.161402
-0.137583
-0.142842
-0.12632
-0.135196
-0.14931
-0.151765
-0.144214
-0.148402
-0.132431
-0.143293
-0.139012
-0.256603
-0.24904
-0.224374
-0.217832
-0.235107
-0.240732
-0.230679
-0.225049
-0.141565
-0.147869
-0.13793
-0.151963
-0.145214
-0.163114
-0.153789
-0.135284
-0.125
-0.143067
-0.137082
-0.167026
-0.167323
-0.153324
-0.171717
-0.172029
-0.17004
-0.171912
-0.167942
-0.163523
-0.171212
-0.168626
-0.150426
-0.163959
-0.16645
-0.226576
-0.243938
-0.217798
-0.223445
-0.228399
-0.215589
-0.206587
-0.214919
-0.239527
-0.237958
-0.248091
-0.245627
-0.23763
-0.238234
-0.0884189
-0.0884838
-0.0835008
-0.0781886
-0.093023
-0.0855831
-0.0952193
-0.0678539
-0.0658362
-0.0615562
-0.0757851
-0.0682969
-0.0706642
-0.117861
-0.111132
-0.122574
-0.120218
-0.104418
-0.10128
-0.0954399
-0.108779
-0.102237
-0.106352
-0.134561
-0.125973
-0.12522
-0.133165
-0.141438
-0.113774
-0.129475
-0.14781
-0.145497
-0.155325
-0.139457
-0.0123763
-0.0119189
-0.0204175
-0.000741071
-0.00913409
-0.00945211
0.00139679
-0.0328347
-0.0234802
-0.0299223
-0.0560847
-0.0572707
-0.0653531
-0.0444408
-0.0544938
-0.0529981
-0.0558704
-0.0587641
0.0619303
0.0724413
0.0244615
0.0311026
0.0722198
0.0578721
0.00432755
-0.0151279
0.00715772
0.00212207
0.0201201
0.0356136
0.321127
0.246473
0.215708
0.232536
0.264698
0.32796
0.0383224
0.0829684
0.0517524
-0.0853409
-0.099183
-0.118817
-0.223553
-0.237424
-0.239144
-0.257692
-0.261318
-0.100429
-0.0921021
-0.102212
-0.214194
-0.211082
-0.197268
-0.113471
-0.104571
-0.101184
-0.0826369
-0.0633575
-0.0813064
-0.120383
-0.112689
-0.102898
-0.119765
-0.14347
-0.124923
-0.117989
-0.13054
-0.122619
-0.257559
-0.241688
-0.244048
-0.229243
-0.247279
-0.246156
-0.24317
-0.212124
-0.207722
-0.221163
-0.126119
-0.111141
-0.103886
-0.124562
-0.131407
-0.123889
-0.204625
-0.218665
-0.21618
-0.25092
-0.235453
-0.240546
-0.242203
-0.246318
-0.249131
-0.248329
-0.243972
-0.245571
-0.241671
-0.113707
-0.118195
-0.122771
-0.196243
-0.188301
-0.192115
-0.0907728
-0.0864359
-0.101519
0.0565951
0.0595323
0.0393876
0.02658
0.0226883
0.0464479
0.0521446
0.0355944
0.0503052
0.0353337
-0.0329925
-0.028386
-0.0800924
-0.0645988
-0.0666592
-0.0678725
-0.0596821
-0.060357
-0.0624171
-0.0451883
-0.0472653
-0.0454281
-0.0418018
-0.0387445
-0.0370168
0.0230687
0.0191465
0.019273
0.0943814
0.151647
0.120709
-0.0763337
-0.0764881
-0.0655646
-0.0501886
-0.133608
-0.12494
-0.0258602
0.0133401
0.0202079
-0.220872
-0.232087
-0.218568
-0.210489
-0.210595
-0.213509
-0.264208
-0.263172
-0.179335
-0.176105
-0.17961
-0.185517
-0.195442
-0.18646
-0.0895022
-0.0921544
-0.0678107
-0.0704861
-0.0741561
-0.0945397
-0.0976705
-0.0981209
-0.101161
-0.0917952
-0.0946947
-0.111939
-0.108353
-0.111931
-0.0790271
-0.0847736
-0.0917584
-0.130592
-0.133005
-0.114799
-0.120344
-0.122581
-0.0113882
-0.0356576
-0.0498178
-0.0393669
-0.0424502
-0.0396346
-0.0777497
-0.151315
-0.143007
-0.137588
-0.132714
-0.119318
-0.135567
-0.13721
-0.252458
-0.251833
-0.191685
-0.185768
-0.197394
-0.2189
-0.202864
-0.197465
-0.126129
-0.133417
-0.13947
-0.233636
-0.239366
-0.250933
-0.251039
-0.248264
-0.248115
-0.250638
-0.250694
-0.0849429
-0.0861847
-0.0841926
-0.0817836
-0.0971507
-0.0945755
-0.0976527
-0.109376
-0.115926
-0.11023
-0.117874
-0.116369
-0.127262
-0.125198
-0.101737
-0.101849
-0.0994503
-0.115405
-0.114285
-0.177202
-0.182996
-0.193299
-0.16945
-0.165466
-0.171321
-0.0495205
-0.0469394
-0.0426566
-0.0572194
-0.0519976
-0.0524311
-0.0317183
-0.0335463
-0.0412694
-0.0214272
-0.0276625
-0.0282866
-0.0631052
-0.0628322
-0.0650942
-0.0489968
-0.0463216
-0.0673103
0.0691058
0.0692011
0.0774757
0.0236681
0.0336139
0.0313007
0.0248064
0.0453834
0.0343492
0.0361779
0.0872806
0.0714579
0.0445033
0.0528144
0.0473832
0.125444
0.215447
0.0812845
0.014158
0.0146279
0.0732624
0.0899428
0.105751
0.0167154
0.01773
0.0177784
0.0183639
0.0179917
0.0170887
0.103449
0.0871579
0.0747352
0.163703
0.237343
0.206052
-0.236332
-0.236491
-0.222228
-0.21496
-0.204604
-0.197355
-0.219125
-0.215307
-0.259286
-0.261089
-0.176768
-0.178786
-0.168703
-0.173144
-0.194291
-0.207495
-0.204369
0.0409963
0.0431663
0.0467261
0.0356738
0.0399279
0.037919
-0.200418
-0.18726
-0.18421
-0.194314
-0.19075
-0.204262
-0.256721
-0.230787
-0.244348
-0.249366
-0.242204
-0.245196
-0.244171
-0.234665
-0.223182
-0.207027
-0.250278
-0.236888
-0.238846
-0.233829
-0.250181
-0.249587
-0.246626
-0.243296
-0.246922
-0.247876
-0.16337
-0.154796
-0.160195
-0.149469
-0.15195
-0.160054
0.0612438
0.0622424
0.0326997
0.0385059
0.0386481
0.0376619
0.0328047
0.0577148
0.0551498
0.0525527
0.0549396
0.0570145
0.04951
0.0519328
0.0501683
0.00918374
-0.00565051
-0.00626796
0.0213341
0.130148
0.111393
0.148088
0.0499447
0.0685895
0.0905211
0.00357157
0.00424534
0.0007356
0.0112086
0.00787003
0.00733781
-0.0102269
-0.00880597
-0.0140569
-0.00268343
-0.00589137
-0.0064629
0.0665634
0.0735029
0.0451878
-0.0105684
-0.0257452
0.0160535
0.00791361
-0.0792573
-0.0695336
-0.068468
-0.0707187
0.00660324
0.0094562
0.00119683
0.00369923
0.00436312
-0.0570624
-0.058668
-0.0567218
-0.0459225
-0.0439328
-0.0482468
-0.0462401
-0.0502516
-0.0549095
-0.0265487
-0.0232359
-0.0246437
-0.0243216
-0.0287899
-0.0176947
-0.0209278
-0.033841
-0.0356843
-0.0320463
0.0197406
0.0192309
0.0188019
0.0199486
0.0196757
0.0209318
-0.0916449
-0.0792619
-0.0866391
-0.122126
-0.115853
-0.102498
-0.233094
-0.218818
-0.233499
-0.235509
-0.222284
-0.221487
-0.22576
-0.223722
-0.262738
-0.264057
-0.185885
-0.189967
-0.18106
-0.183486
-0.177061
-0.173251
-0.170595
-0.201653
-0.198634
-0.187327
-0.199097
-0.0800302
-0.0862528
-0.0766364
-0.073258
-0.0761436
-0.105396
-0.111474
-0.107894
-0.116394
-0.114482
-0.108259
-0.0952437
-0.0931358
-0.0903538
-0.104006
-0.0971719
-0.0972953
-0.103219
0.0194257
0.0176946
0.0141631
0.0237592
0.0197337
-0.100364
-0.101308
-0.10505
-0.108814
-0.0983799
-0.0911753
-0.0965958
-0.126942
-0.128763
-0.129729
-0.12764
-0.121892
-0.121053
-0.1247
-0.0614888
-0.0535545
-0.0507162
-0.038352
-0.0755631
-0.076985
-0.0690849
-0.175731
-0.172683
-0.167383
-0.182004
-0.178011
-0.184344
-0.196204
-0.187384
-0.142721
-0.153258
-0.161514
-0.132896
-0.143705
-0.135491
-0.175281
-0.166432
-0.172342
-0.16459
-0.160093
-0.162624
-0.153994
-0.159454
-0.158416
-0.164025
-0.16286
-0.168949
-0.169261
-0.165106
-0.165818
-0.139892
-0.142299
-0.139895
-0.145342
-0.144021
-0.141515
-0.128627
-0.133337
-0.131673
-0.14098
-0.134989
-0.131105
-0.138772
-0.142527
-0.150222
-0.153338
-0.15233
-0.155399
-0.154489
-0.15111
-0.14546
-0.147707
-0.146842
-0.151572
-0.150533
-0.147219
-0.253854
-0.250068
-0.149683
-0.150807
-0.151796
-0.147401
-0.149466
-0.14742
-0.161185
-0.153619
-0.155615
-0.155428
-0.132686
-0.137493
-0.138407
-0.134006
-0.136314
-0.128948
-0.140988
-0.143314
-0.145323
-0.139429
-0.14109
-0.138926
-0.171363
-0.171154
-0.17019
-0.171926
-0.16636
-0.165056
-0.17028
-0.168759
-0.230113
-0.241397
-0.248552
-0.251129
-0.2507
-0.248988
-0.24994
-0.247098
-0.0863857
-0.084542
-0.084875
-0.0875091
-0.0970867
-0.0911621
-0.0871613
-0.12151
-0.119653
-0.115615
-0.118258
-0.120338
-0.122884
-0.126201
-0.127571
-0.122697
-0.124828
-0.122259
-0.123733
-0.123179
-0.105391
-0.10426
-0.103158
-0.113139
-0.106042
-0.131665
-0.134219
-0.136607
-0.128485
-0.131497
-0.128939
-0.136333
-0.138364
-0.118221
-0.125461
-0.119555
-0.125502
-0.151414
-0.143548
-0.146561
-0.138606
-0.140662
-0.147256
-0.0150649
-0.0158285
-0.0124884
-0.0217065
-0.0189309
-0.0180877
-0.00339942
-0.00268042
-0.000710459
-0.00899743
-0.00556582
-0.00653415
-0.00186803
-0.0374848
-0.0356095
-0.0418348
-0.0394703
-0.0256305
-0.026613
-0.0244192
-0.0333766
-0.0299355
-0.0281307
-0.0577284
-0.0604953
-0.0592258
-0.0526538
-0.0622261
0.0633946
0.0649081
0.0265766
0.0228295
0.02074
0.0290154
0.0262363
0.0286466
0.0264164
0.0289914
0.0648283
0.0599982
0.0279501
0.0376062
0.029909
0.0413667
0.0465058
0.0342631
0.0456614
0.035924
0.0293302
0.0307224
0.0183684
0.0180407
0.0150012
0.0217633
0.022747
0.0264999
0.0465141
0.040096
0.056728
0.0886751
0.052063
0.088165
0.0483915
0.0387476
0.0358687
0.0112365
0.0162277
0.00571794
-0.00165596
0.00313707
0.00483988
0.00629746
0.0193994
0.00899266
0.0266053
0.0466082
0.0556421
0.0887672
0.0767979
0.139076
0.0983754
0.0800209
0.0336795
0.0174459
0.0233302
-0.0176366
-0.0173148
-0.00817197
-0.0117768
-0.0218317
-9.55062e-05
-0.0076674
-0.00851137
0.00281513
0.00949018
0.0124269
0.027253
-0.0524304
-0.0471584
-0.0205551
-0.0570281
-0.0410672
-0.0287036
-0.0262
-0.0424864
-0.0283497
-0.0407283
-0.0498089
-0.0414143
-0.0784983
-0.0882084
-0.0799397
-0.146746
-0.113814
-0.0916258
-0.08656
-0.061397
-0.0525451
-0.030266
-0.0439988
-0.0445903
-0.0537213
-0.0641435
-0.0635151
-0.106425
-0.11772
-0.117481
-0.170468
-0.134368
-0.13151
-0.0892931
-0.0672478
-0.0664467
-0.0236771
-0.0299907
-0.0414883
-0.0439574
-0.0505649
-0.0558353
-0.0821615
-0.0884694
-0.0938871
-0.128094
-0.107547
-0.120359
-0.0687696
-0.0575172
-0.064015
-0.0116341
-0.0104913
-0.0251939
-0.0368972
-0.0385504
-0.0453768
-0.0646744
-0.0601913
-0.0785504
-0.0393272
-0.0391686
-0.0488472
-0.000224286
0.00503187
-0.00595726
-0.00773071
-0.0177218
-0.0283983
-0.0142673
-0.0208515
-0.0295529
0.00675178
0.0101123
0.00726679
0.0148283
0.0257183
0.0247878
0.0318797
0.0426763
0.0472087
0.0603231
0.0613225
0.0639173
0.0174939
0.00253356
-0.00636302
-0.00373209
-0.00806269
-0.013696
0.00910186
0.0120644
0.0116737
0.0155024
0.0193898
0.0240583
0.0209888
0.0223767
0.0361706
0.0217058
0.0167726
0.0216435
0.0132494
0.00687252
0.00361453
0.00213337
-0.00205215
-0.00447825
0.0129504
0.0141532
0.0164317
0.0146148
0.0169424
0.0191837
0.015424
0.0115359
0.0154715
0.00907513
0.00673156
0.0074389
-0.0704614
-0.0595898
-0.0524364
-0.103229
-0.116242
-0.139284
0.00355316
-0.0155525
-0.0206607
-0.116215
-0.113914
-0.102688
-0.178152
-0.198359
-0.204249
-0.145903
-0.164093
-0.141945
-0.0990525
-0.103856
-0.0953454
-0.169085
-0.188027
-0.178108
-0.205137
-0.206403
-0.184501
-0.0519557
-0.0581015
-0.054839
-0.109837
-0.118555
-0.104438
-0.174103
-0.161076
-0.150219
-0.0409067
-0.0401968
-0.031578
-0.0961443
-0.0864495
-0.0839278
0.0449687
0.0333579
0.0192865
0.0997334
0.0897493
0.0832378
0.085303
0.08099
0.0985319
-0.0229341
-0.0143868
-0.0174183
0.0650482
0.0902348
0.0528097
0.376263
0.331816
0.339821
0.0843374
0.102968
0.13931
0.372226
0.389735
0.0228891
0.034228
0.021138
0.0711632
0.0820405
0.042818
-0.0314322
-0.020236
-0.0167916
-0.0255943
-0.0230067
-0.0372392
0.00664186
-0.00789982
-0.0148651
-0.075388
-0.082438
-0.110998
0.0564993
0.0335024
0.0261881
-0.0844075
-0.0561993
-0.0673356
-0.0519787
-0.0556209
-0.0713411
-0.0242955
-0.039528
-0.0392909
-0.0609396
-0.0563436
-0.0462545
-0.085932
-0.0678291
-0.0731747
-0.0497175
-0.0599879
-0.0815178
-0.101408
-0.0953152
-0.0851108
-0.128757
-0.121892
-0.124845
-0.0984911
-0.103283
-0.109685
-0.196608
-0.199901
-0.193139
-0.130918
-0.117817
-0.153492
-0.0934399
-0.107568
-0.114619
-0.0856219
-0.0978517
-0.0855628
-0.0600498
-0.0629046
-0.0530956
-0.0935601
-0.0745205
-0.0706483
-0.076009
-0.0764055
-0.095558
-0.114879
-0.116827
-0.105731
-0.14353
-0.135814
-0.133951
-0.139768
-0.140086
-0.148474
-0.125267
-0.131748
-0.168225
-0.103391
-0.119021
-0.115236
-0.118845
-0.120309
-0.104314
-0.037789
-0.0444646
-0.0390788
-0.0622512
-0.050868
-0.0426466
-0.0651727
-0.0584732
-0.0673129
-0.076826
-0.0827455
-0.077075
-0.0984174
-0.0885028
-0.0794099
-0.108509
-0.1054
-0.109852
-0.165902
-0.163496
-0.160814
-0.0850138
-0.101454
-0.12046
-0.0825072
-0.09233
-0.0822956
-0.109229
-0.101458
-0.0897526
-0.0746713
-0.0768969
-0.0685366
-0.111028
-0.108293
-0.107271
-0.040418
-0.0515373
-0.0569689
-0.0482797
-0.0503649
-0.0401481
-0.0717097
-0.0608887
-0.0571105
0.0142016
0.0175377
0.0224416
-0.0165284
-0.0105995
-0.0121496
0.0343239
0.0402661
0.0315381
0.050957
0.0435907
0.0389371
0.0690494
0.0619927
0.0608554
0.0365412
0.0404047
0.0502043
0.0238234
0.0353232
0.0295254
0.0386564
0.0364165
0.0233304
-0.0951975
-0.087867
-0.0934408
-0.0349395
-0.0575468
-0.0754251
-0.0417338
-0.0473122
-0.0335847
-0.0650804
-0.079223
-0.0639622
0.044358
0.048681
0.0675367
-0.0508761
-0.0379936
-0.0320683
-0.181397
-0.189167
-0.193194
-0.108855
-0.117348
-0.112248
-0.0789103
-0.0972708
-0.0891886
-0.113194
-0.105532
-0.0923195
-0.163817
-0.156637
-0.166873
-0.146325
-0.138294
-0.139235
-0.127478
-0.130034
-0.137153
-0.0997006
-0.110691
-0.106497
-0.141004
-0.144341
-0.142612
-0.157317
-0.156781
-0.151972
-0.141209
-0.139723
-0.136097
-0.18609
-0.196019
-0.173354
-0.231112
-0.222603
-0.219177
-0.194711
-0.179424
-0.172185
-0.218006
-0.215404
-0.225076
-0.151736
-0.169075
-0.182582
-0.119368
-0.115069
-0.111865
-0.131731
-0.129423
-0.135346
-0.0989522
-0.108212
-0.111925
-0.142794
-0.145769
-0.147556
-0.120675
-0.122403
-0.120037
-0.15374
-0.157996
-0.157583
-0.149441
-0.150988
-0.146534
-0.199376
-0.191409
-0.174145
-0.200845
-0.204816
-0.209714
-0.183755
-0.205617
-0.201763
-0.0825831
-0.0848276
-0.0911723
-0.0605741
-0.0642535
-0.0620811
-0.113409
-0.11867
-0.119084
-0.0933829
-0.0988566
-0.0941115
-0.11597
-0.116327
-0.113672
-0.158987
-0.157199
-0.155012
-0.137883
-0.123562
-0.118344
-0.149547
-0.143727
-0.148661
-0.110767
-0.116194
-0.118348
-0.20167
-0.1946
-0.197453
-0.153948
-0.159616
-0.166461
-0.142716
-0.15639
-0.14268
-0.0150824
-0.0146362
-0.0190967
0.00828553
0.00498764
0.00368554
-0.049453
-0.0509877
-0.0559509
-0.0235012
-0.02794
-0.0277875
-0.0291369
-0.0286243
-0.0225391
-0.0656956
-0.0588796
-0.0579944
-0.101695
-0.099906
-0.105378
-0.0664302
-0.0812868
-0.0855724
-0.0750782
-0.0769271
-0.0675893
0.0451552
0.0568482
0.0441497
0.0656275
0.0596515
0.0466772
0.0133513
0.0146096
0.0113987
0.0377213
0.0541835
0.0588591
-0.0186386
-0.00302687
-0.00405381
-0.00104876
-0.00189911
-0.0272669
0.035305
0.0173326