/*--------------------------------*- C++ -*----------------------------------*\
| =========                 |                                                 |
| \\      /  F ield         | OpenFOAM: The Open Source CFD Toolbox           |
|  \\    /   O peration     | Version:  5.x                                   |
|   \\  /    A nd           | Web:      www.OpenFOAM.org                      |
|    \\/     M anipulation  |                                                 |
\*---------------------------------------------------------------------------*/
FoamFile
{
    version     2.0;
    format      ascii;
    class       surfaceScalarField;
    location    "200";
    object      phi;
}
// * * * * * * * * * * * * * * * * * * * * * * * * * * * * * * * * * * * * * //

dimensions      [0 3 -1 0 0 0 0];

internalField   nonuniform List<scalar> 
13181
(
8.44974e-06
0.00915681
8.02227e-06
0.00916743
6.7635e-06
0.00916776
5.41274e-06
0.00916785
3.31139e-06
0.0091691
-4.28591e-06
0.0091741
-9.03788e-06
0.0091714
-9.77407e-06
0.00916744
-8.48043e-06
0.00916536
-3.48564e-06
0.00916166
5.71619e-06
0.0091575
1.737e-05
0.009155
2.81422e-05
0.00915588
3.47624e-05
0.00916008
3.61192e-05
0.00916529
3.31396e-05
0.00916963
2.7442e-05
0.0091724
2.03858e-05
0.00917371
9.05899e-06
0.00917783
-7.03437e-07
0.00917676
-1.32759e-05
0.00917907
-1.84339e-05
0.00917166
-1.94932e-05
0.00916806
0.00914538
1.18939e-05
0.00914174
3.45133e-05
0.00914481
3.4608e-05
0.00916766
3.38368e-05
0.00916862
2.75641e-05
0.00917537
8.14717e-06
0.00919351
-1.71405e-05
0.00919669
-2.5179e-05
0.00917547
-2.40094e-05
0.00916419
-1.42571e-05
0.00457585
0.00457605
4.37856e-06
0.00456938
0.00456948
2.89004e-05
0.00456503
0.00456544
5.16171e-05
0.0045661
0.00456706
6.54152e-05
0.00457255
0.00457373
6.79689e-05
0.00458079
0.00458194
5.40741e-05
0.00918352
3.24248e-05
0.00919405
1.07583e-05
0.00919537
-1.21228e-05
0.00920071
-2.01713e-05
0.00918481
-2.08316e-05
0.00917973
-2.19496e-05
0.00917278
-5.20672e-08
0.00914616
0.00914125
-4.5714e-06
0.00914114
-1.76044e-06
0.009142
1.78198e-05
0.00914808
1.55798e-05
0.00917086
1.63381e-05
0.00917462
1.73576e-05
0.00919249
-1.57213e-05
0.00922977
-3.75018e-05
0.00919726
-1.96067e-05
0.0091707
-2.44105e-05
0.00457258
-1.63334e-05
0.00456399
-6.7373e-06
1.21288e-05
-4.28571e-07
0.00455676
8.70286e-06
-1.77707e-05
0.00455747
2.64028e-05
-3.3862e-05
0.00456689
3.95307e-05
-4.26127e-05
0.00458051
4.28977e-05
4.31203e-05
0.00460971
-3.32792e-05
-4.45295e-05
0.0046085
5.38937e-06
0.00923178
-7.13169e-06
0.00920789
-5.75264e-06
0.00919933
-7.22685e-06
0.00918629
-8.86159e-06
0.00918137
8.38756e-06
0.00915553
9.05203e-06
0.0091455
0.00914376
-1.07126e-05
0.00914474
-1.39714e-05
0.00914526
-1.47618e-05
0.00914887
-1.38749e-06
0.00915749
-6.31713e-06
0.00917955
-6.39457e-06
0.00919257
-1.10799e-05
0.00923445
-3.15359e-05
0.00921771
-3.55611e-05
0.00461535
-3.86796e-05
0.00459805
0.00456728
-3.18085e-05
-0.00457103
0.00454951
-1.89782e-05
-0.00455737
2.68346e-05
7.22714e-06
0.00453025
7.98704e-06
-0.00454547
-2.52363e-05
0.00452878
4.18783e-05
-0.00454542
-5.43854e-05
0.00456148
5.36415e-05
-0.00456074
-3.70262e-05
0.00461031
1.62143e-05
-0.0045895
-2.52637e-06
0.00461248
-2.4218e-07
3.38029e-05
0.00461205
-1.42071e-05
-2.72006e-06
0.00460286
2.74071e-05
0.00921429
1.91086e-05
0.00920763
8.27035e-06
0.00919712
1.95373e-05
0.0091701
1.85287e-05
0.00915654
1.29126e-05
0.00915111
0.00914793
-1.28049e-05
0.00914873
-1.78242e-05
0.00915028
-2.36626e-05
0.00915471
-2.60199e-05
0.00915985
-2.00004e-05
0.00917353
-2.39035e-05
0.00919648
8.90163e-06
0.00920165
1.88632e-05
0.00459053
6.58967e-06
0.00461063
0.00464276
-8.54703e-06
0.00457487
-3.48459e-05
-0.00456817
2.81442e-05
0.00454694
-4.21725e-05
-0.00454283
3.80641e-05
2.59661e-05
1.00093e-06
-0.00451
0.00224123
0.00224181
-3.43122e-05
6.7126e-05
-0.004506
0.00223662
0.00223656
-7.82784e-05
4.30199e-05
-0.00457869
0.00230088
0.00231307
-5.40976e-05
0.00460969
5.58386e-05
-0.00461143
-4.78249e-05
0.00461967
4.82362e-05
-0.00462008
-4.64061e-05
0.00461301
4.54393e-05
5.39362e-05
0.00924194
-4.37616e-05
-3.78199e-05
3.39926e-05
0.00922757
3.56966e-05
0.00919542
2.99936e-05
0.0091758
2.1431e-05
0.0091651
1.51593e-05
0.00915738
0.00915271
-1.41077e-05
0.00915272
-1.94352e-05
0.0091556
-2.62658e-05
0.00916154
-3.56611e-05
0.00916924
-4.13865e-05
0.00917925
-4.48092e-05
0.0091999
-2.80016e-05
0.00922147
-3.66317e-05
0.00459967
-3.71433e-05
0.00460501
-1.38273e-07
-0.00463694
3.20705e-05
0.00458168
1.8712e-05
-0.00458426
-1.61322e-05
-0.00228265
2.38779e-07
0.00228788
-5.46928e-06
-0.00222832
1.48927e-05
0.00223009
-1.66606e-05
-0.00221312
-2.12704e-05
0.0021999
3.44912e-05
-0.00228993
-2.88954e-05
0.00226137
5.74501e-05
-4.25096e-05
0.000106831
-0.00461618
-4.65412e-05
0.00229497
0.00230344
-0.000103201
0.00463513
8.91558e-05
-0.00462109
-7.3419e-05
-0.00462324
0.00463664
6.00197e-05
6.9007e-05
0.00927823
-5.49719e-05
-5.03326e-05
5.53563e-05
0.00924122
4.37049e-05
0.00920707
3.12396e-05
0.00918827
2.26008e-05
0.00917374
1.59556e-05
0.00916403
0.00915746
-1.4942e-05
0.00915682
-2.05086e-05
0.00916117
-2.70604e-05
0.0091681
-3.58722e-05
0.00917805
-4.84362e-05
0.00919182
-6.04124e-05
0.00921187
-3.93405e-05
0.00923984
-3.94366e-05
-0.00460877
0.00461863
-4.9203e-05
-0.00460675
0.00462194
-7.67777e-05
6.15915e-05
-0.00459254
0.00461726
9.63299e-05
-5.71767e-05
-6.38803e-05
-0.00227567
5.84721e-05
0.0022767
-5.94974e-05
-0.00111093
2.04964e-05
0.00110691
-1.64806e-05
-1.25406e-05
-0.0010553
0.0010496
1.82413e-05
-4.78215e-05
-0.00227938
9.40346e-05
-3.42184e-05
0.0011207
0.00114669
-0.000106573
-0.00230915
0.00232124
9.44755e-05
-0.00014295
-0.00465882
0.00468772
0.00011405
-9.05337e-05
-0.00465212
0.00467123
7.14241e-05
7.96334e-05
0.00930985
-5.53721e-05
-5.58824e-05
5.97331e-05
0.00926112
4.11606e-05
0.00922564
2.86794e-05
0.00920075
2.01616e-05
0.00918225
1.40556e-05
0.00917014
0.00916051
-1.42398e-05
0.00916013
-1.9455e-05
0.00916639
-2.53847e-05
0.00917403
-3.42424e-05
0.00918691
-4.59094e-05
0.00920348
-6.26419e-05
0.00922861
-3.82692e-05
0.00925872
-4.32553e-05
-0.00462912
0.00464011
-4.92627e-05
-0.00464152
0.00466066
-8.28832e-05
6.37405e-05
-0.0046517
0.00468962
0.000109435
-7.22085e-05
-7.51476e-05
-0.00231262
0.000100559
0.00233312
-0.00012106
-0.00112577
0.000106134
0.00113958
-0.000119943
-0.000145463
-0.00115847
0.00117239
0.000131541
-0.000148883
-0.00236708
0.00238891
0.000127055
-0.000166933
-0.00472566
0.00476294
0.000129652
-0.000101779
-0.00469411
0.00471444
8.14493e-05
7.62273e-05
0.00935679
-5.85539e-05
-6.46066e-05
4.60675e-05
0.00929128
3.1476e-05
0.00924024
2.16076e-05
0.00921062
1.55499e-05
0.00918831
1.19187e-05
0.00917377
0.00916278
-1.30971e-05
0.00916286
-1.64476e-05
0.00916974
-2.0998e-05
0.00917858
-2.65831e-05
0.0091925
-3.4133e-05
0.00921103
-4.45573e-05
0.00923903
-3.33523e-05
0.00927519
-2.76747e-05
-0.00464314
0.00465206
-4.22669e-05
-0.00468318
0.00469806
-7.24854e-05
5.75978e-05
-0.00472649
0.0047532
9.15938e-05
-6.22651e-05
-5.60402e-05
-0.00239193
8.66569e-05
0.00240715
-0.000101874
-0.00122878
8.95475e-05
0.00123743
-9.82032e-05
-0.000122633
-0.00127323
0.00128397
0.000111897
-0.000115406
-0.00244995
0.0024678
9.75553e-05
-0.000118197
-0.00479797
0.00482457
9.15978e-05
-7.10492e-05
-0.00473265
0.0047465
5.71905e-05
5.69425e-05
0.00937791
-3.35401e-05
-4.45242e-05
3.09319e-05
0.00931729
1.64201e-05
0.00925475
1.15867e-05
0.00921545
8.62296e-06
0.00919128
6.72894e-06
0.00917566
0.00916232
-1.07779e-05
0.00916441
-1.34918e-05
0.00917245
-1.57546e-05
0.00918084
-1.88695e-05
0.00919561
-2.11153e-05
0.00921328
-2.37306e-05
0.00924165
-1.63548e-05
0.00927753
-9.7112e-06
-0.00466
0.00466794
-2.42972e-05
-0.00470739
0.00471085
-3.10751e-05
2.76164e-05
-0.00476864
0.00477154
3.39817e-05
-2.25177e-05
-1.43681e-05
-0.00243403
2.82453e-05
0.0024361
-3.03085e-05
-0.00126795
2.06745e-05
0.00126821
-2.09275e-05
-2.6781e-05
-0.00132488
0.001326
2.56583e-05
-3.0522e-05
-0.00249967
0.00250296
2.72283e-05
-2.97664e-05
-0.00484026
0.00484361
2.64193e-05
-2.35932e-05
-0.00475565
0.00475912
2.01205e-05
2.20775e-05
0.00937698
-5.33284e-06
-1.58186e-05
2.25292e-05
0.00931684
4.76947e-06
0.00927251
-1.05299e-06
0.00922127
6.89428e-07
0.00918953
1.45034e-06
0.0091749
0.00915997
-8.66416e-06
0.00916535
-9.75658e-06
0.00917354
-1.03021e-05
0.00918138
-9.56484e-06
0.00919487
-8.81607e-06
0.00921253
-3.50245e-06
0.00923633
2.49281e-08
0.00927034
3.65313e-06
-0.00467062
0.00467129
-6.48557e-07
-0.00470863
0.00470122
1.14033e-05
-3.98683e-06
-0.00476282
0.00474532
-2.33911e-05
1.69949e-05
2.39007e-05
-0.002424
-2.82984e-05
0.00241523
3.70718e-05
-0.00124645
-3.79602e-05
0.00124135
4.306e-05
6.17843e-05
-0.00130112
0.001294
-5.46672e-05
5.37963e-05
-0.00249011
0.0024802
-4.38897e-05
5.61189e-05
-0.00483536
0.00481805
-3.88134e-05
2.48621e-05
-0.00475596
0.00474781
-1.67119e-05
-1.27415e-05
0.00935799
1.96161e-05
1.21227e-05
2.20236e-07
0.00930388
7.19749e-06
0.00926553
-1.34693e-05
0.00924194
-8.65596e-06
0.00918472
-4.29328e-06
0.00917054
0.00915588
-6.142e-06
0.0091654
-5.40324e-06
0.0091728
-4.22046e-06
0.0091802
-1.50567e-06
0.00919216
4.23906e-06
0.00920678
1.49418e-05
0.00922563
1.17158e-05
0.00925869
1.4883e-05
-0.00466588
0.00465997
1.76329e-05
-0.00469044
0.00467777
3.94962e-05
-2.68243e-05
-0.00472165
0.00469589
-5.77076e-05
4.07231e-05
4.27525e-05
-0.00238114
-5.96576e-05
0.00236857
7.22209e-05
-0.0011999
-6.39095e-05
0.0011935
7.03083e-05
0.000100226
-0.00123651
0.0012283
-9.20126e-05
0.000100542
-0.00243824
0.00242264
-8.49454e-05
0.000109982
-0.00479204
0.00476105
-7.8991e-05
5.83313e-05
-0.00473528
0.0047205
-4.35441e-05
-3.61619e-05
0.00932561
3.59998e-05
3.25335e-05
-1.66426e-05
0.00928436
-3.86018e-06
0.00925275
1.72759e-06
0.00923635
-1.68296e-05
0.00920328
-1.03583e-05
0.00916407
0.00914994
-4.02418e-06
0.00916489
-2.42129e-06
0.0091712
-2.33447e-07
0.00917801
4.25902e-06
0.00918767
1.09685e-05
0.00920008
2.29964e-05
0.0092136
1.9516e-05
0.00924187
2.02954e-05
-0.00465243
0.00464508
2.68649e-05
-0.00466437
0.00465185
4.82132e-05
-3.56901e-05
-0.00467031
0.00464803
-6.48086e-05
4.44101e-05
4.26741e-05
-0.0023327
-6.14568e-05
0.00232261
7.1544e-05
-0.00115247
-5.84682e-05
0.00114819
6.27549e-05
9.49834e-05
-0.00117
0.00116225
-8.72274e-05
0.000101458
-0.00237685
0.00236355
-8.81575e-05
0.000116241
-0.00472711
0.0046992
-8.83277e-05
6.78089e-05
-0.00470526
0.00469058
-5.31279e-05
-4.5295e-05
0.00929233
3.91224e-05
3.94588e-05
-2.40184e-05
0.00926308
-9.46482e-06
0.00923819
-7.70604e-06
0.0092346
-2.00461e-05
0.00921562
-1.57322e-05
0.00915975
0.00914269
-1.9773e-06
0.00916365
-5.04822e-07
0.00916973
2.47723e-06
0.00917503
6.62594e-06
0.00918352
1.30955e-05
0.00919361
2.26655e-05
0.00920403
3.52452e-05
0.00922929
3.22196e-05
0.00926063
2.31969e-05
-0.00463865
-0.00464215
-0.00464141
0.00463448
3.91526e-05
-0.00463064
0.00463781
3.36259e-05
-4.07932e-05
-0.00230848
-4.58935e-06
0.00233404
-2.09699e-05
-0.00115552
3.71258e-05
0.0011373
-1.89016e-05
-0.000336131
7.31304e-06
0.000344999
-1.61807e-05
3.36502e-05
-0.00112994
0.00227254
-6.95217e-05
2.86483e-05
-0.00113538
-0.00233521
6.98238e-05
0.00233117
-6.57861e-05
8.62511e-05
-0.00467798
0.00466204
-7.03138e-05
5.68277e-05
-0.00467978
0.00467652
-5.35721e-05
-4.20145e-05
0.00926767
3.11022e-05
3.55739e-05
-2.37571e-05
0.00924483
-1.07015e-05
0.00922514
-2.31669e-05
0.00924706
3.14595e-06
0.0091893
-1.75972e-05
0.0091805
0.00913723
-1.54081e-06
0.00916296
-1.10745e-07
0.0091683
2.11279e-06
0.00917281
5.14752e-06
0.00918048
1.033e-05
0.00918842
1.52367e-05
0.00919913
8.80972e-06
0.00923572
-9.63185e-06
0.00931061
-3.1541e-05
-0.00464431
0.00466247
-2.77872e-05
-0.00464826
0.00462834
-6.39677e-06
2.63197e-05
-0.00230045
-1.45672e-05
0.00229658
1.84382e-05
-0.00227685
-8.66594e-06
0.0022832
2.31948e-06
-0.000890458
2.86803e-05
0.00184835
-5.07517e-05
-0.000935822
-0.00229965
6.02542e-05
0.00229379
-5.43935e-05
-0.00463603
6.6361e-05
0.00464753
-0.000120698
4.28341e-05
0.000112378
-0.00465368
0.00464253
-0.000101225
-0.000123404
0.00926621
6.13354e-05
9.2817e-05
-0.00469262
-0.00460434
-9.72681e-05
0.00924153
-7.77429e-05
0.0092253
-6.00564e-05
0.00920745
-6.08818e-06
0.00919309
3.09205e-06
0.00918012
1.01755e-05
0.00917341
0.00916261
-1.14535e-06
0.00916253
-5.46532e-07
0.0091677
5.83644e-07
0.00917168
2.6166e-06
0.00917845
4.57522e-06
0.00918646
2.59915e-06
0.0092011
-2.18178e-05
0.00926014
-3.14019e-05
0.00931331
6.88725e-06
-0.00465914
0.00463034
-2.60157e-06
-0.00461559
0.00461499
1.31078e-05
-1.25094e-05
-0.00459985
0.00460801
1.02055e-06
-9.17772e-06
-0.00229604
6.2351e-06
0.00229603
-6.22306e-06
-0.00189371
2.00118e-05
0.00190815
-3.44521e-05
-0.00229355
3.57487e-05
0.00460372
-8.24771e-05
-0.00229831
3.48585e-05
-0.00463929
9.18688e-05
0.00463353
-8.61109e-05
-0.0046358
8.17101e-05
0.00463008
-7.59853e-05
-9.07442e-05
0.00923059
5.88788e-05
6.74837e-05
-6.24791e-05
0.00921327
-5.29013e-05
0.00921572
-4.77369e-05
0.00920229
-4.21954e-05
0.00918755
-3.55504e-05
0.00917348
-2.60564e-05
0.00916392
0.00915415
-1.683e-06
0.00916296
-1.07044e-06
0.00916709
-6.76772e-07
0.00917128
-2.52247e-07
0.00917802
-5.03914e-07
0.00918672
-1.16218e-05
0.00921222
-2.79794e-05
0.00927649
2.56769e-06
0.00928276
3.19804e-06
0.00925158
-0.00462922
-0.00462337
3.78748e-07
-0.00461747
0.00461939
1.2767e-06
-0.00461498
0.00462098
-8.30916e-06
2.31665e-06
-0.00455302
1.60137e-05
0.00455427
-1.72672e-05
-0.00396499
3.37385e-05
0.00399008
-5.88298e-05
-0.00461193
6.03369e-05
0.00461411
-6.25183e-05
-0.00462866
6.18222e-05
0.00462613
-5.9287e-05
-0.00462625
5.84948e-05
0.00462324
-5.54899e-05
-8.9498e-05
0.00921991
4.89252e-05
5.12527e-05
-7.38742e-05
0.00919764
-5.78233e-05
0.00919967
-4.1056e-05
0.00918552
-2.6172e-05
0.00917267
-2.00629e-05
0.00916737
-1.84533e-05
0.00916231
0.00915514
-2.02678e-06
0.00916381
-2.4585e-06
0.00916752
-3.30926e-06
0.00917213
-3.90608e-06
0.00917862
-8.10704e-06
0.00919092
-3.0211e-05
0.00923432
-2.93058e-05
0.00927559
-7.26646e-06
0.00926072
-1.25145e-05
0.00925683
-7.99769e-06
0.00925316
-0.00462269
-0.0046244
-1.05786e-05
-0.0046263
0.00463282
-1.45246e-05
-0.00455105
2.1443e-05
0.004537
-7.39268e-06
-0.00401412
3.03588e-05
0.00404398
-6.02123e-05
-0.00461639
4.3935e-05
0.0046189
-4.64476e-05
-8.79077e-05
0.00924233
-0.00462526
-0.00462164
4.5019e-05
4.74592e-05
-8.45969e-05
0.00923557
-0.00462051
-0.00461836
-7.72416e-05
0.00921255
-7.05788e-05
0.00919098
-5.6512e-05
0.00918561
-4.42436e-05
0.00917325
-3.40822e-05
0.00916251
-2.57732e-05
0.00915906
-1.39984e-05
0.00915053
0.00916177
-2.56747e-06
0.00916505
-4.02527e-06
0.00916898
-5.03872e-06
0.00917315
-6.47967e-06
0.00918006
-9.76144e-06
0.0091942
-2.65727e-05
0.00925113
-1.83698e-05
0.00926739
-9.97915e-06
0.00925233
-1.82239e-05
0.00926508
-2.85911e-05
0.00926353
-3.41235e-05
0.00929226
-0.00464297
-0.00464376
-5.4919e-05
0.00873327
-0.00448541
-0.00422706
-7.78944e-05
0.00851739
-0.00410459
-0.00438982
-7.44983e-05
0.00925509
-0.00462413
-0.00463436
-7.37213e-05
0.00924156
-7.25744e-05
0.00923442
-6.73037e-05
0.00920728
-6.21134e-05
0.00918579
-5.20895e-05
0.00917558
-4.34407e-05
0.0091646
-3.73572e-05
0.00915642
-2.7321e-05
0.00914903
-1.8982e-05
0.0091422
0.00916416
-3.21743e-06
0.00916667
-4.63977e-06
0.0091704
-6.70978e-06
0.00917522
-8.80759e-06
0.00918216
-1.23699e-05
0.00919776
-2.19117e-05
0.00926068
-1.74406e-05
0.00926292
-1.4663e-05
0.00924955
-2.06551e-05
0.00927107
-2.9514e-05
0.00927239
-3.48002e-05
0.00929754
-4.70972e-05
0.00874556
-6.05155e-05
0.0085308
-6.09998e-05
0.00925557
-6.34041e-05
0.00924396
-6.28175e-05
0.00923383
-5.93381e-05
0.0092038
-5.5152e-05
0.0091816
-4.80221e-05
0.00916845
-4.10796e-05
0.00915766
-3.48895e-05
0.00915023
-2.74865e-05
0.00914162
-2.05858e-05
0.00913529
0.00916529
-3.91364e-06
0.0091686
-6.22961e-06
0.00917272
-8.73931e-06
0.00917773
-1.13278e-05
0.00918475
-1.3913e-05
0.00920035
-1.7403e-05
0.00926417
-1.71724e-05
0.00926269
-1.76418e-05
0.00925002
-2.26211e-05
0.00927605
-3.0665e-05
0.00928043
-3.4177e-05
0.00930105
-4.25269e-05
0.00875391
-5.17849e-05
0.00854006
-5.16413e-05
0.00925543
-5.51217e-05
0.00924744
-5.4783e-05
0.00923349
-5.25381e-05
0.00920156
-4.96329e-05
0.0091787
-4.44538e-05
0.00916327
-3.88623e-05
0.00915207
-3.33568e-05
0.00914473
-2.69606e-05
0.00913523
-2.09376e-05
0.00912927
0.00916615
-4.61334e-06
0.00917079
-7.2425e-06
0.00917534
-9.58019e-06
0.00918007
-1.25218e-05
0.00918769
-1.54406e-05
0.00920327
-1.67101e-05
0.00926544
-1.85854e-05
0.00926456
-2.27839e-05
0.00925422
-2.38475e-05
0.00927711
-3.07881e-05
0.00928737
-3.38269e-05
0.00930409
-3.9106e-05
0.00875919
-4.51829e-05
0.00854614
-4.52431e-05
0.00925549
-4.83577e-05
0.00925056
-4.82318e-05
0.00923337
-4.69447e-05
0.00920027
-4.50309e-05
0.00917678
-4.04606e-05
0.0091587
-3.69237e-05
0.00914853
-3.1401e-05
0.00913921
-2.63724e-05
0.0091302
-2.16335e-05
0.00912453
0.00916617
-5.79166e-06
0.00917368
-7.65625e-06
0.00917721
-1.0732e-05
0.00918314
-1.34148e-05
0.00919037
-1.65216e-05
0.00920637
-1.79509e-05
0.00926687
-1.99771e-05
0.00926659
-2.40214e-05
0.00925827
-2.44454e-05
0.00927754
-3.04208e-05
0.00929335
-3.30587e-05
0.00930673
-3.63562e-05
0.00876249
-4.02619e-05
0.00855004
-4.01724e-05
0.0092554
-4.29086e-05
0.00925329
-4.28833e-05
0.00923334
-4.21564e-05
0.00919954
-4.02743e-05
0.0091749
-3.75437e-05
0.00915597
-3.43297e-05
0.00914532
-2.96025e-05
0.00913448
-2.5307e-05
0.0091259
-2.07588e-05
0.00911998
0.00916678
-5.92745e-06
0.00917621
-8.97065e-06
0.00918025
-1.1701e-05
0.00918587
-1.45452e-05
0.00919322
-1.77364e-05
0.00920956
-1.8731e-05
0.00926786
-2.08485e-05
0.0092687
-2.4659e-05
0.00926208
-2.71553e-05
0.00928003
-2.99704e-05
0.00929616
-3.20905e-05
0.00930885
-3.40955e-05
0.0087645
-3.65433e-05
0.00855249
-3.61466e-05
0.009255
-3.84866e-05
0.00925563
-3.85418e-05
0.0092334
-3.81558e-05
0.00919916
-3.67655e-05
0.00917351
-3.41693e-05
0.00915338
-3.15817e-05
0.00914273
-2.85026e-05
0.0091314
-2.48094e-05
0.00912221
-2.13525e-05
0.00911653
0.0091664
-6.51895e-06
0.00917884
-9.1807e-06
0.00918291
-1.25082e-05
0.0091892
-1.54508e-05
0.00919616
-1.81555e-05
0.00921227
-1.91561e-05
0.00926886
-2.13965e-05
0.00927094
-2.49394e-05
0.00926562
-2.82004e-05
0.00928329
-2.93335e-05
0.00929729
-3.10673e-05
0.00931059
-3.19896e-05
0.00876542
-3.37061e-05
0.00855421
-3.26238e-05
0.00925392
-3.48161e-05
0.00925783
-3.49327e-05
0.00923352
-3.48831e-05
0.00919911
-3.38978e-05
0.00917253
-3.22745e-05
0.00915175
-3.01708e-05
0.00914063
-2.66221e-05
0.00912785
-2.34251e-05
0.00911901
-2.04652e-05
0.00911357
0.00916646
-7.0611e-06
0.00918153
-9.79922e-06
0.00918565
-1.26705e-05
0.00919207
-1.56657e-05
0.00919916
-1.88485e-05
0.00921545
-1.98178e-05
0.00926983
-2.16273e-05
0.00927275
-2.49498e-05
0.00926894
-2.7954e-05
0.0092863
-3.44951e-05
0.00930384
-3.42583e-05
0.00931035
-3.3927e-05
0.00876509
-3.40937e-05
0.00855438
-3.26529e-05
0.00925248
-3.40957e-05
0.00925927
-3.4199e-05
0.00923362
-3.44854e-05
0.0091994
-3.40572e-05
0.0091721
-3.37902e-05
0.00915149
-2.9567e-05
0.0091364
-2.645e-05
0.00912473
-2.3156e-05
0.00911572
-2.01146e-05
0.00911053
0.00916638
-7.55344e-06
0.00918424
-1.03331e-05
0.00918843
-1.27147e-05
0.00919445
-1.6233e-05
0.00920267
-1.88617e-05
0.00921808
-2.02808e-05
0.00927125
-2.17278e-05
0.0092742
-2.48379e-05
0.00927205
-3.0123e-05
0.00929158
-3.58748e-05
0.00930959
-3.68326e-05
0.00931131
-3.69027e-05
0.00876516
-3.76334e-05
0.00855511
-3.63125e-05
0.00925116
-3.76748e-05
0.00926063
-3.77607e-05
0.00923371
-3.78626e-05
0.0091995
-3.66855e-05
0.00917092
-3.56875e-05
0.00915049
-3.42125e-05
0.00913493
-3.19171e-05
0.00912244
-2.99277e-05
0.00911373
-2.72248e-05
0.00910782
0.00915866
-7.99451e-06
0.00918695
-1.07907e-05
0.00919123
-1.36638e-05
0.00919733
-1.6175e-05
0.00920518
-1.87427e-05
0.00922065
-2.00981e-05
0.00927261
-2.17591e-05
0.00927586
-2.70999e-05
0.00927739
-3.17474e-05
0.00929623
-3.5408e-05
0.00931325
-3.59765e-05
0.00931188
-3.58475e-05
0.00876503
-3.62345e-05
0.00855549
-3.444e-05
0.00924936
-3.5609e-05
0.0092618
-3.57378e-05
0.00923383
-3.58785e-05
0.00919964
-3.52641e-05
0.00917031
-3.39708e-05
0.0091492
-3.27053e-05
0.00913366
-3.1173e-05
0.00912091
-2.89363e-05
0.00911149
-2.70026e-05
0.00910589
0.00915069
-8.3846e-06
0.00918965
-1.06758e-05
0.00919352
-1.35218e-05
0.00920017
-1.60198e-05
0.00920768
-1.90259e-05
0.00922365
-2.03196e-05
0.0092739
-2.40797e-05
0.00927962
-2.93147e-05
0.00928263
-3.16149e-05
0.00929853
-3.49262e-05
0.00931656
-3.53466e-05
0.0093123
-3.50141e-05
0.0087647
-3.51276e-05
0.00855561
-3.30458e-05
0.00924728
-3.40179e-05
0.00926277
-3.41314e-05
0.00923395
-3.42809e-05
0.00919979
-3.37e-05
0.00916972
-3.30495e-05
0.00914855
-3.14438e-05
0.00913206
-2.96257e-05
0.00911909
-2.85747e-05
0.00911044
-2.63649e-05
0.00910368
0.0091429
-8.21901e-06
0.0091918
-1.15012e-05
0.0091968
-1.38083e-05
0.00920248
-1.67903e-05
0.00921066
-1.87326e-05
0.00922559
-2.29917e-05
0.00927816
-2.71119e-05
0.00928374
-2.93034e-05
0.00928482
-3.15119e-05
0.00930074
-3.46496e-05
0.0093197
-3.47524e-05
0.0093124
-3.43929e-05
0.00876434
-3.4278e-05
0.00855549
-3.18712e-05
0.00924488
-3.27811e-05
0.00926368
-3.28212e-05
0.00923399
-3.30134e-05
0.00919998
-3.24392e-05
0.00916915
-3.1897e-05
0.009148
-3.04088e-05
0.00913057
-2.92508e-05
0.00911793
-2.73532e-05
0.00910854
-2.58126e-05
0.00910214
0.00913526
-9.00179e-06
0.00919442
-1.1257e-05
0.00919906
-1.35257e-05
0.00920475
-1.64886e-05
0.00921363
-2.19114e-05
0.00923102
-2.86427e-05
0.00928489
-2.71516e-05
0.00928225
-2.92522e-05
0.00928692
-3.13604e-05
0.00930285
-3.44373e-05
0.00932277
-3.44015e-05
0.00931236
-3.39769e-05
0.00876391
-3.38032e-05
0.00855532
-3.10878e-05
0.00924216
-3.1752e-05
0.00926435
-3.18647e-05
0.0092341
-3.20382e-05
0.00920015
-3.14491e-05
0.00916856
-3.04838e-05
0.00914704
-3.0076e-05
0.00913016
-2.85459e-05
0.0091164
-2.72574e-05
0.00910725
-2.58505e-05
0.00910073
0.00912724
-8.71641e-06
0.00919648
-1.14529e-05
0.00920179
-1.41839e-05
0.00920748
-1.6128e-05
0.00921557
-3.15929e-05
0.00924648
-2.82141e-05
0.00928151
-2.72335e-05
0.00928127
-2.9285e-05
0.00928897
-3.13806e-05
0.00930494
-3.43517e-05
0.00932575
-3.41596e-05
0.00931217
-3.37621e-05
0.00876351
-3.3493e-05
0.00855505
-3.05216e-05
0.00923919
-3.11041e-05
0.00926493
-3.11222e-05
0.00923412
-3.12657e-05
0.0092003
-3.06955e-05
0.00916799
-3.02804e-05
0.00914662
-2.89376e-05
0.00912882
-2.84988e-05
0.00911596
-2.67936e-05
0.00910555
-2.54895e-05
0.00909943
0.0091193
-9.36407e-06
0.009199
-1.10785e-05
0.00920351
-1.37708e-05
0.00921017
-2.47875e-05
0.00922659
-3.21537e-05
0.00925385
-2.87736e-05
0.00927813
-2.72555e-05
0.00927975
-2.9306e-05
0.00929102
-3.14219e-05
0.00930706
-3.44123e-05
0.00932874
-3.40541e-05
0.00931181
-3.376e-05
0.00876322
-3.35425e-05
0.00855483
-3.02078e-05
0.00923585
-3.06543e-05
0.00926538
-3.06647e-05
0.00923413
-3.07725e-05
0.00920041
-3.01506e-05
0.00916737
-2.9776e-05
0.00914625
-2.89684e-05
0.00912801
-2.76107e-05
0.0091146
-2.64599e-05
0.0091044
-2.4739e-05
0.00909771
0.0091119
-8.92158e-06
0.00920094
-1.16403e-05
0.00920623
-1.37902e-05
0.00921232
-2.73535e-05
0.00924015
-3.11521e-05
0.00925765
-2.83084e-05
0.00927529
-2.7316e-05
0.00927876
-2.93707e-05
0.00929308
-3.1529e-05
0.00930922
-3.46068e-05
0.00933181
-3.42675e-05
0.00931147
-3.39793e-05
0.00876293
-3.3793e-05
0.00855465
-3.01539e-05
0.00923221
-3.04471e-05
0.00926567
-3.03604e-05
0.00923404
-3.04328e-05
0.00920048
-2.97847e-05
0.00916672
-2.94497e-05
0.00914591
-2.86574e-05
0.00912722
-2.7865e-05
0.00911381
-2.62525e-05
0.00910278
-2.50915e-05
0.00909655
0.00910404
-8.86277e-06
0.00920282
-1.11185e-05
0.00920848
-1.32073e-05
0.00921441
-2.38315e-05
0.00925078
-2.95641e-05
0.00926338
-2.88512e-05
0.00927458
-2.72712e-05
0.00927718
-2.95369e-05
0.00929534
-3.17199e-05
0.0093114
-3.50529e-05
0.00933515
-3.4808e-05
0.00931123
-3.45123e-05
0.00876264
-3.43985e-05
0.00855453
-3.03523e-05
0.00922817
-3.04867e-05
0.0092658
-3.01967e-05
0.00923375
-3.03366e-05
0.00920062
-3.00706e-05
0.00916645
-2.93075e-05
0.00914515
-2.84962e-05
0.00912641
-2.72868e-05
0.0091126
-2.66727e-05
0.00910217
-2.5085e-05
0.00909496
0.00909618
-9.21427e-06
-1.15291e-05
-1.30616e-05
-1.87466e-05
-2.23834e-05
-2.88823e-05
-2.72809e-05
-2.96836e-05
-3.17624e-05
-3.5311e-05
-3.56551e-05
-3.51714e-05
-3.49099e-05
-3.10163e-05
-3.07429e-05
-3.01983e-05
-3.03152e-05
-2.94665e-05
-2.92763e-05
-2.84387e-05
-2.78071e-05
-2.62007e-05
-2.56764e-05
9.69522e-05
-0.000106652
-0.00121908
0.00127959
0.00013188
-0.00126607
-7.15434e-05
-7.38618e-05
-0.00114857
-0.000160961
0.00116406
2.98211e-05
-3.09983e-05
-0.00126678
0.00133428
3.96554e-05
-0.00133238
-1.94649e-05
-2.20819e-05
0.0012914
-6.61879e-05
-6.82521e-05
-3.23571e-05
3.72125e-05
-0.00125131
0.00130475
-5.32271e-05
-0.00131155
3.09742e-05
2.90483e-05
0.00133472
-1.23261e-05
-1.48948e-05
-6.23452e-05
6.86265e-05
-0.00120618
0.00123614
-9.85489e-05
-0.00124556
0.00010797
0.00129738
3.54534e-05
3.36998e-05
-6.04489e-05
6.55502e-05
-0.00115757
0.00116262
-9.78781e-05
-0.00117139
0.000106648
0.000110155
0.00122622
3.91665e-05
-5.42705e-05
-0.00114042
-7.99445e-06
0.000393302
-1.86416e-06
-0.000201416
-0.000182028
-2.11587e-05
-0.000145822
-0.000177145
0.00111986
-5.18391e-05
-0.00111913
5.11168e-05
0.000102235
0.00115537
9.99002e-05
-0.000110441
-0.00111523
-0.00104888
-6.18504e-08
0.0010364
0.000134823
-0.00113534
-0.000148046
-0.00111103
-5.35614e-05
0.00111677
9.68415e-05
-0.000115256
-0.00237352
0.00122362
-0.00121498
8.83142e-05
-0.00113747
9.54052e-05
0.0011482
0.000308678
0.00012405
-0.000609582
0.000309918
-6.57608e-05
-6.73034e-05
0.000112722
-0.000537044
-0.000122376
0.000546698
0.000119797
-0.00126115
0.00246436
0.000131141
-0.00244014
-0.000155358
-0.00236116
-0.000174838
0.00238711
4.42682e-05
-4.9707e-05
-0.00242859
0.00126035
-0.00125913
2.85978e-05
8.15818e-05
0.00123158
0.0012567
6.558e-05
-7.0904e-05
-0.00125138
0.0006443
-2.24771e-05
-0.000642536
4.20285e-05
-2.13149e-05
-0.000630112
-6.5409e-05
6.28479e-05
0.000632673
0.000323914
9.17172e-06
-0.000332388
-6.97426e-07
-0.000328547
5.08028e-05
-5.57447e-05
0.000333489
3.73455e-05
-0.00132257
0.00252229
5.39241e-05
-0.00251493
-6.12882e-05
-0.000136778
0.00248573
-1.59073e-05
2.28085e-05
-0.0024309
0.0012427
-0.00124702
-2.80438e-05
2.00686e-05
0.00126096
0.00126317
-5.00674e-06
7.43857e-06
-0.0012656
0.000656062
9.02225e-06
-0.000658017
-1.04946e-05
3.4275e-06
-0.000658997
-7.01826e-06
1.19472e-05
0.000658532
-4.46485e-06
0.000295958
-6.47975e-07
-0.000295797
4.87455e-07
-0.000300736
-2.831e-07
0.000300914
1.05422e-07
-4.66518e-05
-0.00130769
0.00250622
-3.47204e-05
-0.00251633
4.48312e-05
-3.31953e-05
0.00252497
-5.48407e-05
6.7049e-05
-0.00239335
0.00119991
-0.00120577
-5.64847e-05
-3.34092e-05
0.00123815
0.00122442
-5.14492e-05
5.73445e-05
-0.00123031
4.04112e-05
0.000614948
-0.000617082
-3.82772e-05
-0.000632746
1.60379e-05
-2.94251e-05
0.000629525
1.66084e-05
0.000313785
-3.92974e-05
-0.000321803
4.73158e-05
-0.000302344
-8.75227e-06
2.17911e-06
0.000308918
-8.94968e-05
-0.00124556
0.00244254
-9.16931e-05
-0.0024609
0.000110052
6.65911e-05
0.00249342
0.000550079
-7.29399e-05
-0.000552045
3.77872e-05
3.7119e-05
-0.000287189
-3.55085e-05
3.61007e-05
0.000286597
-8.99144e-05
-0.00117797
0.00237054
-0.000104794
-0.00238753
0.000121789
0.000118876
0.00242421
0.000506586
-5.49934e-05
-0.000508845
5.72515e-05
-0.000528531
-6.76031e-05
7.04728e-05
0.000525661
-1.54383e-05
8.12681e-06
-0.00226954
-1.49673e-05
0.000949202
-0.000937565
3.33044e-06
2.83541e-07
0.000400332
-3.0184e-05
-0.000875241
-6.5966e-05
0.002276
-0.00228619
7.61485e-05
2.97913e-05
0.00112372
-6.68601e-05
-0.000628646
6.53937e-05
-9.06756e-05
-0.000598271
8.50055e-05
0.000603941
-0.00118307
0.000112281
0.00119592
-0.000125131
-0.00059943
0.000605968
-4.89781e-05
-4.82357e-05
0.00063157
-0.000632829
-3.30902e-05
-3.25108e-05
8.66128e-05
-0.000536596
0.000543825
-9.38422e-05
9.27625e-05
-9.86566e-05
-0.000593536
4.51504e-05
-0.000330752
-4.29454e-05
6.17688e-05
-6.35457e-05
0.000310455
-0.00121877
0.00015209
-0.000168862
0.00123554
-0.000615078
-6.0979e-05
0.000622658
0.000115168
0.000330476
4.53561e-05
-0.000330681
-5.86865e-06
-0.000659497
1.51362e-05
-8.76664e-06
-2.27543e-05
4.07622e-05
0.000649996
-2.3704e-05
5.67455e-05
0.00126113
-6.11806e-05
-0.000321
0.000323826
-2.55803e-05
0.00033525
-6.14784e-06
-0.000334971
0.000317805
0.000318019
-3.35736e-05
-3.6089e-05
-2.30125e-05
-0.000320465
-1.92311e-06
-0.000302659
3.84625e-06
1.54102e-05
-5.06552e-06
0.000313569
-0.00131785
7.7474e-05
0.00132412
-4.06386e-05
-4.311e-05
-0.000328251
0.000321608
2.20527e-05
0.000329599
1.00226e-06
-0.000332525
0.000334071
4.72076e-05
1.68564e-05
-0.000335935
8.96488e-05
-0.00131049
-4.72642e-05
-4.97427e-05
1.63146e-05
-0.000635753
-2.76797e-05
1.43728e-05
8.12881e-06
-1.49177e-05
0.000649711
1.31396e-05
-1.25225e-05
0.00125965
1.60405e-05
-0.000333899
0.000329671
1.23568e-05
0.000313647
1.79075e-05
-0.000315239
0.000333859
-5.62775e-06
8.6641e-06
-0.000333541
-1.49241e-05
-0.000294312
6.89188e-06
-1.33452e-06
0.000295824
1.46791e-06
-0.0013277
-2.2484e-05
0.00132309
1.45884e-05
1.25057e-05
-0.000324136
0.000325378
-2.57707e-06
0.000308108
-1.98118e-05
-0.00030322
0.000327996
1.32031e-06
-2.11758e-06
-0.000322666
-1.0855e-05
-0.00133126
8.29317e-06
6.12339e-06
-0.000601946
-4.1153e-05
0.000601202
2.01569e-05
2.17404e-05
0.000585795
-4.68789e-05
4.86571e-05
-0.000587573
0.00031105
1.86343e-05
-0.00060301
2.08008e-05
2.06744e-05
-3.68149e-05
-0.000288743
3.83681e-05
-4.28938e-05
5.45526e-05
0.000302126
-0.00127243
-8.70081e-05
0.0012635
4.82976e-05
4.76402e-05
-0.000312941
0.000306444
-3.63975e-05
0.000585752
3.63289e-05
-6.88796e-05
-0.000590017
0.000313954
-1.45984e-05
-3.47453e-05
-0.000317493
-8.20486e-05
-0.00128111
4.59379e-05
4.47844e-05
-0.000566671
-4.73836e-05
0.000564254
4.98004e-05
0.000549315
-4.23818e-05
4.42893e-05
-0.000551222
-4.75617e-05
0.000584648
4.87082e-05
-4.77754e-05
5.04298e-05
-0.000569325
-6.82061e-05
-0.000531722
7.13968e-05