/*--------------------------------*- C++ -*----------------------------------*\
| =========                 |                                                 |
| \\      /  F ield         | OpenFOAM: The Open Source CFD Toolbox           |
|  \\    /   O peration     | Version:  5.x                                   |
|   \\  /    A nd           | Web:      www.OpenFOAM.org                      |
|    \\/     M anipulation  |                                                 |
\*---------------------------------------------------------------------------*/
FoamFile
{
    version     2.0;
    format      ascii;
    class       volScalarField;
    location    "200";
    object      pSat;
}
// * * * * * * * * * * * * * * * * * * * * * * * * * * * * * * * * * * * * * //

dimensions      [0 2 -2 0 0 0 0];

internalField   nonuniform List<scalar> 
6584
(
697.948
697.948
697.948
697.948
697.948
697.948
697.948
697.948
697.948
697.948
697.948
697.948
697.948
697.948
697.948
697.948
697.948
697.948
697.948
697.948
697.948
697.948
697.948
697.948
697.948
697.948
697.948
697.948
697.948
697.948
697.948
697.948
697.948
697.948
697.948
697.948
697.948
697.948
697.948
697.948
697.948
697.948
697.948
697.948
697.948
697.948
697.948
697.948
697.948
697.948
697.948
697.948
697.948
697.948
697.948
697.948
697.948
697.948
697.948
697.948
697.948
697.948
697.948
697.948
697.948
697.948
697.948
697.948
697.948
697.948
697.948
697.948
697.948
697.948
697.948
697.948
697.948
697.948
697.948
697.948
697.948
697.948
697.948
697.948
697.948
697.948
697.948
697.948
697.948
697.948
697.948
697.948
697.948
697.948
697.948
697.948
697.948
697.948
697.948
697.948
697.948
697.948
697.948
697.948
697.948
697.948
697.948
697.948
697.948
697.948
697.948
697.948
697.948
697.948
697.948
697.948
697.948
697.948
697.948
697.948
697.948
697.948
697.948
697.948
697.948
697.948
697.948
697.948
697.948
697.948
697.948
697.948
697.948
697.948
697.948
697.948
697.948
697.948
697.948
697.948
697.948
697.948
697.948
697.948
697.948
697.948
697.948
697.948
697.948
697.948
697.948
697.948
697.948
697.948
697.948
697.948
697.948
697.948
697.948
697.948
697.948
697.948
697.948
697.948
697.948
697.948
697.948
697.948
697.948
697.948
697.948
697.948
697.948
697.948
697.948
697.948
697.948
697.948
697.948
697.948
697.948
697.948
697.948
697.948
697.948
697.948
697.948
697.948
697.948
697.948
697.948
697.948
697.948
697.948
697.948
697.948
697.948
697.948
697.948
697.948
697.948
697.948
697.948
697.948
697.948
697.948
697.948
697.948
697.948
697.948
697.948
697.948
697.948
697.948
697.948
697.948
697.948
697.948
697.948
697.948
697.948
697.948
697.948
697.948
697.948
697.948
697.948
697.948
697.948
697.948
697.948
697.948
697.948
697.948
697.948
697.948
697.948
697.948
697.948
697.948
697.948
697.948
697.948
697.948
697.948
697.948
697.948
697.948
697.948
697.948
697.948
697.948
697.948
697.948
697.948
697.948
697.948
697.948
697.948
697.948
697.948
697.948
697.948
697.948
697.948
697.948
697.948
697.948
697.948
697.948
697.948
697.948
697.948
697.948
697.948
697.948
697.948
697.948
697.948
697.948
697.948
697.948
697.948
697.948
697.948
697.948
697.948
697.948
697.948
697.948
697.948
697.948
697.948
697.948
697.948
697.948
697.948
697.948
697.948
697.948
697.948
697.948
697.948
697.948
697.948
697.948
697.948
697.948
697.948
697.948
697.948
697.948
697.948
697.948
697.948
697.948
697.948
697.948
549.223
697.948
697.948
697.948
697.948
697.948
697.948
697.948
697.948
697.948
697.948
697.948
697.948
697.948
697.948
697.948
697.948
697.948
697.948
697.948
697.948
697.948
697.948
697.948
658.189
697.948
697.948
697.948
697.948
697.948
697.948
697.948
697.948
697.948
697.948
697.948
697.948
697.948
697.948
697.948
697.948
697.948
697.948
697.948
697.948
697.948
697.948
697.947
661.531
697.948
697.948
697.948
697.948
697.948
697.948
697.948
697.948
697.948
697.948
697.948
697.948
697.948
697.948
697.948
697.948
697.948
697.948
697.948
697.948
697.948
697.948
697.629
680.584
697.948
697.948
697.948
697.948
697.948
697.948
697.948
697.948
697.948
697.948
697.948
697.948
697.948
697.948
697.948
697.948
697.948
697.948
697.948
697.948
697.948
697.948
697.47
681.171
697.948
697.948
697.948
697.948
697.948
697.948
697.948
697.948
697.948
697.948
697.948
697.948
697.948
697.948
697.948
697.948
697.948
697.948
697.948
697.948
697.948
697.889
683.42
690.071
697.947
697.948
697.948
697.948
697.948
697.948
697.948
697.948
697.948
697.948
697.948
697.948
697.948
697.948
697.948
697.948
697.948
697.948
697.948
697.948
697.948
697.833
683.562
690.148
697.946
697.948
697.948
697.948
697.948
697.948
697.948
697.948
697.948
697.948
697.948
697.948
697.948
697.948
697.948
697.948
697.948
697.948
697.948
697.948
697.947
697.78
683.7
690.216
697.946
697.948
697.948
697.948
697.948
697.948
697.948
697.948
697.948
697.948
697.948
697.948
697.948
697.948
697.948
697.948
697.948
697.948
697.948
697.948
697.947
697.729
683.836
690.277
697.945
697.948
697.948
697.948
697.948
697.948
697.948
697.948
697.948
697.948
697.948
697.948
697.948
697.948
697.948
697.948
697.948
697.948
697.948
697.948
697.946
697.679
683.969
690.334
697.944
697.948
697.948
697.948
697.948
697.948
697.948
697.948
697.948
697.948
697.948
697.948
697.948
697.948
697.948
697.948
697.948
697.948
697.948
697.948
697.945
697.632
684.101
690.387
697.943
697.948
697.948
697.948
697.948
697.948
697.948
697.948
697.948
697.948
697.948
697.948
697.948
697.948
697.948
697.948
697.948
697.948
697.948
697.948
697.944
697.588
684.231
690.438
697.942
697.948
697.948
697.948
697.948
697.948
697.948
697.948
697.948
697.948
697.948
697.948
697.948
697.948
697.948
697.948
697.948
697.948
697.948
697.948
697.942
697.54
684.362
690.488
697.941
697.948
697.948
697.948
697.948
697.948
697.948
697.948
697.948
697.948
697.948
697.948
697.948
697.948
697.948
697.948
697.948
697.948
697.948
697.948
697.94
697.49
684.495
690.542
697.94
697.948
697.948
697.948
697.948
697.948
697.948
697.948
697.948
697.948
697.948
697.948
697.948
697.948
697.948
697.948
697.948
697.948
697.948
697.948
697.938
697.442
684.627
690.594
697.939
697.948
697.948
697.948
697.948
697.948
697.948
697.948
697.948
697.948
697.948
697.948
697.948
697.948
697.948
697.948
697.948
697.948
697.948
697.948
697.936
697.396
684.758
690.645
697.938
697.948
697.948
697.948
697.948
697.948
697.948
697.948
697.948
697.948
697.948
697.948
697.948
697.948
697.948
697.948
697.948
697.948
697.948
697.948
697.934
697.353
684.888
690.696
697.937
697.948
697.948
697.948
697.948
697.948
697.948
697.948
697.948
697.948
697.948
697.948
697.948
697.948
697.948
697.948
697.948
697.948
697.948
697.948
697.932
697.31
685.017
690.746
697.937
697.948
697.948
697.948
697.948
697.948
697.948
697.948
697.948
697.948
697.948
697.948
697.948
697.948
697.948
697.948
697.948
697.948
697.948
697.948
697.93
697.27
685.146
690.795
697.936
697.948
697.948
697.948
697.948
697.948
697.948
697.948
697.948
697.948
697.948
697.948
697.948
697.948
697.948
697.948
697.948
697.948
697.948
697.948
697.927
697.23
685.274
690.844
697.935
697.948
697.948
697.948
697.948
697.948
697.948
697.948
697.948
697.948
697.948
697.948
697.948
697.948
697.948
697.948
697.948
697.948
697.948
697.948
697.924
697.192
685.401
690.893
697.934
697.948
697.948
697.948
697.948
697.948
697.948
697.948
697.948
697.948
697.948
697.948
697.948
697.948
697.948
697.948
697.948
697.948
697.948
697.948
697.922
697.153
685.528
690.943
697.933
697.948
697.948
697.948
697.948
697.948
697.948
697.948
697.948
697.948
697.948
697.948
697.948
697.948
697.948
697.948
697.948
697.948
697.948
697.948
697.919
697.115
685.655
690.993
697.933
697.948
697.948
697.948
697.948
697.948
697.948
697.948
697.948
697.948
697.948
697.948
697.948
697.948
697.948
697.948
697.948
697.948
697.948
697.948
697.948
697.948
697.948
697.948
697.948
697.948
697.948
560.796
544.263
697.948
697.948
697.948
697.948
697.948
697.948
697.948
697.948
697.948
697.948
697.948
697.948
697.948
697.948
697.948
697.948
697.948
697.948
697.7
697.898
697.508
697.889
697.948
697.948
697.948
697.948
697.948
697.948
697.948
697.08
697.131
693.005
695.281
697.948
697.948
697.948
697.948
697.948
697.948
697.948
697.423
697.256
696.52
694.391
697.948
697.948
697.948
697.665
697.584
697.948
697.948
697.948
697.879
697.826
697.948
601.627
561.103
625.286
697.948
697.948
697.914
697.948
697.948
697.946
697.805
697.948
697.947
697.9
697.948
697.948
697.948
697.931
697.173
697.642
697.948
696.927
694.942
697.74
697.036
695.416
697.491
697.948
697.718
697.215
697.925
697.729
697.948
697.232
697.094
697.948
694.983
696.012
694.879
694.921
694.31
692.862
697.948
697.057
697.256
697.209
697.067
697.948
695.988
696.669
696.079
695.873
697.555
696.647
697.948
697.613
697.824
697.267
697.591
697.948
697.238
697.492
696.748
697.19
697.814
697.691
697.833
697.882
697.948
697.685
697.604
697.522
697.671
697.904
697.885
697.948
697.948
697.948
697.931
697.948
697.948
697.948
697.948
697.948
697.724
697.614
692.612
689.182
697.948
697.948
697.948
697.948
697.929
697.948
697.948
697.948
697.595
697.446
697.948
541.324
568.949
657.121
669.974
570.74
603.645
688.515
682.215
697.948
697.887
697.913
671.449
678.991
697.916
697.929
697.948
697.948
697.948
697.948
697.948
697.948
697.948
697.923
697.948
697.936
697.948
697.94
697.948
697.648
697.747
694.22
694.35
695.778
695.531
697.572
681.668
697.728
695.052
692.988
692.882
694.894
697.854
694.307
697.93
687.521
696.685
685.598
697.914
696.955
697.927
697.948
697.868
695.284
697.937
697.94
695.734
695.609
697.55
697.5
696.263
696.379
697.249
697.943
697.945
697.941
697.942
697.246
697.856
697.947
697.948
697.946
697.947
697.823
695.505
695.566
694.686
694.69
691.322
691.522
696.976
697.94
697.94
697.941
697.94
696.974
697.151
697.939
697.94
697.94
697.939
697.143
544.315
696.308
576.319
547.241
610.968
578.373
696.404
695.374
550.441
695.501
697.269
697.206
697.417
697.942
697.941
697.943
697.942
697.451
636.161
654.366
696.962
638.821
613.44
659.857
641.679
697.024
606.993
633.242
697.772
688.871
692.49
682.542
688.15
697.755
680.683
679.75
682.239
587.447
679.841
678.758
584.034
695.268
695.24
697.946
697.948
697.948
697.948
697.948
697.874
697.861
615.877
697.745
697.853
697.947
697.805
697.736
697.948
568.533
574.46
542.151
680.101
680.484
579.76
589.82
694.295
695.275
482.854
697.948
697.948
697.948
697.948
697.948
697.948
697.812
697.946
697.944
697.52
697.368
697.828
697.063
697.934
697.934
697.935
697.934
697.069
693.544
694.895
696.203
694.587
671.973
666.117
697.861
695.102
696.309
697.261
697.304
597.789
697.948
697.942
697.948
697.917
697.61
697.44
697.946
697.948
697.948
697.948
697.948
697.945
697.345
697.939
697.936
697.943
697.94
697.412
696.391
673.423
687.242
665.147
666.684
695.185
688.63
690.088
697.264
695.783
696.754
697.448
697.907
697.91
697.876
697.881
697.231
697.934
697.934
697.147
695.24
669.578
663.069
694.743
663.64
664.854
661.67
660.967
694.773
693.157
692.099
697.015
697.874
697.871
697.862
697.889
697.147
697.187
697.87
697.874
697.87
697.868
697.101
697.45
691.491
692.848
689.631
688.776
696.919
697.78
697.944
697.943
697.945
697.944
697.792
697.363
673.314
661.87
683.331
680.275
697.399
624.365
630.393
697.597
686.62
684.25
616.102
622.413
678.815
673.496
697.945
697.947
697.947
665.362
691.358
668.357
671.427
669.968
690.91
697.948
697.938
697.948
697.91
697.947
544.759
553.662
568.912
568.571
663.382
585.971
580.088
597.735
587.762
665.067
579.831
586.089
686.182
685.136
675.195
612.737
602.648
591.301
597.707
697.902
697.945
697.948
697.931
697.943
697.886
697.528
697.816
693.681
694.761
696.127
694.716
682.683
693.627
692.63
694.683
693.94
682.502
690.369
689.415
692.318
690.897
694.344
679.841
683.174
673.751
678.224
694.042
663.019
664.244
691.962
697.613
697.302
697.889
697.702
693.133
695.303
694.655
697.054
695.589
697.758
697.942
697.91
697.633
697.395
697.831
697.652
697.922
697.689
697.878
697.924
697.73
697.858
697.945
697.905
697.844
669.196
671.411
696.191
649.413
639.648
675.388
651.493
626.488
619.043
636.71
630.033
695.284
667.332
668.674
686.626
684.023
694.318
688.936
681.116
678.325
683.59
681.823
697.328
690.417
691.329
695.909
696.69
697.893
697.903
697.334
697.236
697.883
697.891
672.172
670.802
695.316
628.177
630.072
597.581
624.112
629.606
638.726
629.91
629.401
662.568
663.364
694.715
609.882
605.481
617.644
611.387
597.932
595.035
603.739
600.238
694.755
661.465
662.219
692.359
691.942
697.879
697.875
697.003
697.079
697.886
697.88
697.868
697.869
697.178
697.111
697.868
697.868
549.81
560.094
676.555
680.194
671.449
675.202
550.283
598.053
684.89
678.763
681.177
684.016
591.341
653.159
656.056
643.754
652.078
560.219
666.188
670.353
657.46
664.047
560.523
690.3
691.156
697.411
686.67
688.309
688.974
686.631
688.302
696.987
688.279
689.583
643.751
556.976
556.439
576.438
559.41
646.388
568.609
616.867
556.62
621.174
685.46
695.526
694.912
696.249
695.73
685.968
678.09
678.897
632.819
638.727
601.693
613.548
682.602
680.057
697.948
697.948
697.948
697.948
697.936
697.938
697.948
697.948
697.948
697.948
697.948
697.948
697.948
697.948
697.948
697.948
697.947
697.839
697.513
696.777
696.677
693.158
695.149
697.936
697.937
697.326
691.598
691.207
694.448
693.151
693.859
697.655
697.941
697.948
697.948
696.487
696.911
697.85
697.938
697.916
697.946
697.711
694.383
696.295
695.538
696.572
696.461
697.427
697.607
697.61
697.221
697.917
697.922
697.748
697.166
697.935
697.936
676.248
673.66
695.81
694.16
692.149
691.961
692.718
697.046
697.599
697.597
697.202
697.603
697.605
697.596
697.595
697.078
695.13
680.02
677.458
697.296
697.869
697.865
697.857
697.946
697.945
583.556
584.433
689.101
687.316
697.618
581.918
582.735
696.435
696.726
697.897
697.935
697.924
539.271
540.575
543.032
566.508
572.662
535.812
538.062
564.757
560.006
599.176
677.394
676.476
683.204
621.921
614.805
676.229
697.948
697.948
697.948
697.897
697.921
697.938
697.943
697.859
697.876
697.948
697.948
697.947
697.257
697.209
697.579
697.788
697.623
697.535
693.973
694.481
692.672
692.98
695.94
695.224
691.344
692.045
683.737
683.801
687.845
687.303
681.551
684.07
684.402
697.676
694.14
694.912
693.411
689.632
694.955
694.336
697.458
697.204
696.1
679.5
677.343
692.764
688.349
682.104
697.947
697.945
697.842
697.803
697.531
697.667
696.05
697.763
697.833
691.631
693.301
697.68
674.564
672.057
696.149
696.492
697.937
697.94
697.892
697.756
697.926
697.932
695.749
673.246
672.384
691.33
691.659
697.596
697.597
697.16
697.132
697.594
697.595
547.375
573.793
619.212
621.987
590.85
593.232
544.449
682.027
680.545
695.253
560.245
556.768
579.965
580.11
553.848
588.038
589.368
554.425
555.692
697.877
697.873
697.314
697.515
697.884
697.881
626.745
682.595
683.787
680.061
681.332
622.468
690.551
696.01
696.39
696.372
696.201
691.106
683.734
689.243
688.528
679.015
677.664
680.366
595.556
597.749
599.343
579.076
682.097
634.609
625.148
643.381
637.058
677.687
661.786
662.409
684.071
686.769
695.695
697.945
697.945
697.936
568.976
570.642
633.565
634.096
536.104
584.968
576.159
575.878
574.186
575.367
587.949
485.066
680.321
682.581
697.948
697.948
697.948
696.967
696.873
697.516
697.185
697.486
697.688
697.391
697.447
693.387
695.02
689.416
689.916
689.985
689.422
694.507
690.925
690.74
670.616
662.432
662.377
663.48
663.386
668.926
697.559
697.778
697.787
697.75
697.771
697.503
695.659
697.244
696.336
696.019
697.226
697.612
697.615
692.155
692.262
693.844
692.337
697.602
697.6
697.028
697.6
697.601
697.194
697.09
697.594
697.594
689.651
691.447
690.754
692.023
691.808
689.458
585.395
586.813
580.874
581.25
618.31
595.886
593.815
664.715
664.558
677.201
667.18
669.454
663.05
664.79
675.327
697.941
697.937
697.943
697.934
697.946
697.947
697.948
697.942
697.945
697.941
667.816
680.816
679.921
683.157
681.953
668.869
673.023
676.63
674.902
679.164
678.215
671.75
697.942
697.946
697.944
697.831
697.734
697.929
697.911
539.533
562.113
544.855
544.672
568.865
568.72
604.955
607.933
582.45
536.234
534.538
575.413
546.47
545.926
545.36
593.073
551.408
542.393
678.625
680.216
687.101
674.689
674.968
673.973
674.054
684.108
676.173
676.942
592.832
571.975
572.99
572.86
571.659
594.808
697.929
697.933
697.914
697.839
697.888
697.921
696.838
697.544
697.139
697.056
697.248
697.322
697.075
697.167
693.824
694.618
690.612
690.759
690.146
690.387
696.046
693.142
693.253
690.655
690.841
694.93
690.712
685.261
684.188
681.986
686.839
686.252
689.979
684.772
684.688
686.375
685.441
689.696
691.949
687.433
688.001
685.382
686.455
691.461
684.447
675.255
685.092
684.229
661.87
662.564
691.343
695.484
695.223
690.799
694.128
696.516
695.898
683.115
681.185
690.617
691.042
694.885
687.299
685.225
696.809
697.155
697.724
697.358
696.385
694.984
696.292
697.8
697.876
697.892
697.804
697.834
697.68
697.5
697.638
697.891
697.825
697.8
697.895
697.842
697.906
697.762
697.765
697.671
697.784
646.847
643.021
668.606
638.738
642.111
631.704
653.357
623.476
620.996
634.212
632.171
685.269
672.544
675.335
667.082
669.702
684.526
693.683
688.489
689.911
676.96
685.121
692.169
669.769
665.402
680.393
650.258
652.876
645.816
648.002
679.58
683.15
662.785
664.781
655.832
659.14
682.516
696.034
696.6
629.857
601.676
605.581
593.355
597.292
630.189
604.814
607.128
606.547
615.047
631.126
572.242
575.93
579.472
572.901
634.15
629.731
586.636
589.837
580.31
583.797
629.572
608.987
607.869
616.298
613.522
596.081
594.708
602.623
602.098
691.662
691.795
697.169
697.598
697.599
697.594
697.594
697.121
549.731
609.756
615.331
569.197
544.576
597.265
603.189
568.052
563.988
654.059
605.739
605.676
647.878
599.173
589.782
605.251
603.49
650.504
577.425
572.492
581.257
585.786
557.413
561.593
571.865
690.681
694.015
693.75
694.406
694.216
690.919
687.228
688.021
688.16
686.592
686.632
687.269
688.252
692.533
692.234
693.38
692.942
688.801
556.302
577.579
580.465
572.961
575.265
556.258
570.356
595.767
601.011
584.49
589.864
564.309
567.338
544.064
546.114
544.865
544.151
556.498
565.988
570.189
551.484
558.793
555.179
690.336
689.862
684.819
678.032
679.835
589.468
593.568
606.19
582.284
576.688
591.377
587.906
610.316
580.247
580.644
662.882
663.246
697.948
697.948
697.948
697.948
697.948
697.948
697.948
697.948
697.948
697.948
697.948
697.948
697.948
697.948
697.948
697.948
697.948
697.948
697.948
697.948
697.948
697.948
697.948
697.948
697.948
697.948
697.948
697.948
697.948
697.948
697.948
697.948
697.948
697.948
697.948
697.948
697.948
697.948
697.948
697.948
697.948
697.948
697.948
697.948
697.948
697.948
697.948
697.948
697.948
697.948
697.948
697.948
697.948
697.948
697.948
697.948
697.948
697.948
697.948
697.948
697.948
697.948
697.948
697.948
697.948
697.948
697.948
697.948
697.948
697.948
697.948
697.948
697.948
697.948
697.948
697.948
697.948
697.948
697.948
697.948
697.948
697.948
697.948
697.948
697.948
697.946
697.947
697.948
697.948
697.948
697.948
697.948
697.948
697.948
697.948
697.948
697.948
697.948
697.948
697.948
697.947
697.947
697.948
697.948
697.948
697.948
697.948
697.948
697.948
697.948
697.948
697.948
697.947
697.947
697.948
697.948
697.948
697.948
697.948
697.948
697.948
697.948
697.948
697.948
697.948
697.948
697.948
697.948
697.948
697.948
697.948
697.948
697.948
697.948
697.948
697.948
697.866
697.861
565.053
692.26
692.792
697.948
697.948
697.948
697.948
697.948
697.948
697.948
697.948
697.948
697.948
697.948
697.948
697.947
638.825
636.765
660.791
697.948
697.948
697.948
697.948
697.948
697.948
697.948
697.948
697.948
697.948
697.948
697.751
667.024
639.469
680.282
697.939
697.948
697.948
697.948
697.948
697.948
697.948
697.948
697.948
697.948
697.948
697.948
697.948
697.948
697.947
697.947
697.948
697.948
697.947
697.946
697.948
697.948
697.948
697.947
697.947
697.948
697.948
697.946
697.946
697.946
697.946
697.948
697.947
697.947
697.948
697.948
697.947
697.948
697.946
697.946
697.948
697.948
697.948
697.948
697.948
697.948
697.948
697.859
697.878
697.948
535.509
624.7
625.733
648.945
648.973
486.207
697.948
697.948
697.948
697.948
697.948
697.948
697.948
697.948
697.947
697.948
697.948
697.948
697.948
697.948
697.948
697.948
697.948
697.948
697.948
697.948
697.948
697.948
697.948
697.948
697.948
697.948
697.948
697.948
697.948
697.948
697.946
697.941
697.948
697.948
697.948
697.948
697.948
697.948
697.948
697.948
697.948
697.948
697.948
697.948
697.948
697.948
697.948
697.948
697.948
697.948
697.948
697.948
697.948
697.948
697.948
697.948
697.743
697.892
697.88
697.937
697.932
697.881
697.824
697.755
697.867
697.948
697.948
697.948
697.948
697.948
697.948
697.948
697.948
697.948
697.948
697.948
697.948
697.948
697.948
697.948
697.948
697.948
697.948
697.946
697.946
697.948
697.071
697.721
697.723
697.737
697.728
697.1
697.948
697.948
697.948
697.948
697.948
697.948
697.948
697.948
697.948
697.948
697.948
697.948
697.948
697.948
697.948
697.948
697.948
697.948
697.947
697.947
697.948
697.35
697.937
697.939
697.762
697.768
697.279
696.396
693.76
694.106
697.948
697.948
697.948
697.948
697.948
697.948
697.948
697.948
697.948
697.637
695.86
696.293
696.899
696.975
697.61
697.948
697.948
697.948
697.948
697.948
697.948
697.948
697.948
697.948
697.874
697.695
697.715
697.513
697.552
697.836
697.902
697.867
697.948
598.742
697.314
697.333
680.863
681.766
563.041
697.776
697.752
618.488
697.948
697.93
697.939
697.938
697.93
697.948
697.926
697.944
697.941
697.948
697.948
697.944
697.948
697.948
697.948
697.944
697.873
697.934
697.948
697.948
697.948
697.942
697.946
697.948
697.907
697.861
697.85
697.947
697.946
697.947
697.948
697.948
697.948
697.948
697.948
697.948
697.945
697.946
697.939
697.223
697.762
697.749
697.865
697.848
697.565
697.948
697.947
697.948
696.784
695.179
695.597
690.949
691.065
695.013
695.868
696.058
697.122
697.947
697.947
697.948
697.692
697.821
697.834
697.899
697.942
697.944
697.842
697.848
697.736
697.948
697.948
697.948
697.208
697.751
697.757
697.726
697.729
697.111
697.948
697.946
697.946
695.073
691.417
691.206
693.52
693.353
695.942
694.826
690.765
690.849
691.038
690.907
694.853
697.946
697.946
697.948
697.701
697.692
697.238
697.948
697.946
697.946
696.099
688.961
687.524
693.736
693.459
696.585
696.145
693.849
693.686
687.053
685.418
695.754
697.523
696.715
696.813
694.478
694.788
696.759
697.947
697.947
697.948
697.668
697.898
697.895
697.915
697.912
697.814
697.275
697.715
697.708
697.892
697.888
697.532
697.948
697.946
697.947
697.283
695.811
695.661
696.512
696.417
697.463
696.823
694.249
693.997
695.498
695.323
697.139
697.802
697.42
697.469
696.419
696.747
697.715
697.842
697.919
697.917
697.946
697.946
697.864
697.948
697.948
697.948
697.72
690.812
689.598
689.479
690.477
697.717
697.549
696.682
696.6
697.9
696.779
696.872
697.948
697.948
697.948
697.948
697.948
697.948
697.948
697.948
697.948
697.948
697.948
697.948
697.948
697.948
697.948
697.948
697.948
697.948
697.947
697.947
697.948
697.682
697.933
697.934
697.931
697.932
697.666
692.206
688.211
688.915
683.377
684.502
689.827
697.948
697.948
697.948
697.948
697.948
697.948
697.886
697.92
697.94
697.948
697.948
697.948
697.948
697.948
697.948
697.948
697.948
697.948
697.535
697.94
697.93
697.939
697.94
697.514
697.948
697.947
697.947
659.467
635.055
632.259
649.36
646.773
668.358
687.842
681.278
682.263
697.948
697.948
697.948
697.9
697.947
697.947
697.946
697.947
697.904
672.838
654.3
651.899
664.959
663.351
678.11
697.922
697.946
697.946
697.947
697.946
697.924
697.948
697.948
697.948
697.948
697.948
697.948
697.948
697.948
697.948
697.948
697.948
697.948
697.948
697.948
697.948
697.948
697.948
697.948
697.948
697.948
697.948
697.948
697.947
697.948
697.948
697.948
697.948
697.945
697.946
697.943
697.948
697.948
697.948
695.112
695.686
697.606
697.712
697.292
697.342
694.846
692.485
692.85
689.558
690.122
693.328
693.893
696.663
696.526
696.894
696.785
694.168
697.845
697.587
697.619
697.697
697.839
697.939
697.886
697.07
697.605
697.184
697.694
697.587
697.943
697.936
697.905
697.948
697.948
697.948
697.923
697.915
697.934
697.942
697.932
697.928
692.323
692.583
695.867
695.496
691.894
692.097
696.98
697.108
697.598
697.446
696.732
696.856
697.637
697.646
697.258
697.944
697.932
697.93
697.937
697.935
697.944
697.941
697.926
697.924
697.929
697.927
697.942
697.243
697.626
697.631
697.907
697.914
697.874
697.948
697.946
697.945
697.947
697.946
697.948
697.946
697.941
697.939
697.944
697.942
697.947
697.791
697.884
697.896
692.428
692.306
695.446
695.626
692.669
692.548
690.554
690.559
694.687
694.712
690.587
690.56
697.612
697.608
696.984
697.94
697.923
697.923
697.922
697.922
697.94
697.941
697.925
697.926
697.924
697.924
697.94
696.984
697.623
697.616
697.94
697.922
697.921
697.923
697.922
697.94
697.939
697.921
697.921
697.921
697.921
697.939
692.505
689.438
696.207
607.977
644.821
647.656
624.367
626.942
581.039
696.497
693.149
692.829
695.628
684.722
682.593
696.023
696.163
697.323
697.134
695.658
695.851
697.767
697.756
697.378
697.942
697.928
697.929
697.927
697.928
697.941
697.943
697.932
697.933
697.93
697.931
697.943
697.477
697.785
697.777
638.755
607.32
604.469
628.944
625.055
651.834
694.722
694.494
696.895
635.383
664.722
666.761
649.988
652.373
615.952
652.276
686.78
687.643
684.852
685.84
649.503
697.083
695.135
694.936
609.975
570.276
567.709
601.132
596.725
629.771
697.305
697.365
697.788
689.452
692.875
692.501
694.913
694.667
692.074
692.074
691.615
687.336
697.736
697.163
697.238
680.672
650.833
645.28
657.252
652.735
681.54
680.642
668.09
666.545
695.095
687.488
689.094
693.185
693.5
695.407
697.948
697.948
697.948
697.948
697.948
697.948
697.87
697.938
697.939
697.937
697.938
697.866
687.416
687.029
612.888
697.744
696.548
696.588
696.573
696.543
697.757
697.779
697.936
697.937
697.935
697.935
697.77
697.948
697.947
697.947
589.407
582.69
536.971
679.955
658.846
652.177
660.332
659.507
680.136
695.062
682.56
680.636
688.904
690.962
695.336
483.418
588.269
614.524
697.948
697.948
697.948
697.948
697.948
697.948
697.948
697.948
697.948
697.948
697.948
697.948
697.948
697.948
697.948
697.948
697.948
697.948
697.911
697.902
697.78
697.946
697.937
697.939
697.931
697.934
697.945
697.845
697.705
697.678
697.719
697.72
697.065
697.934
697.889
697.889
697.89
697.89
697.934
697.934
697.892
697.894
697.89
697.89
697.934
697.079
697.723
697.72
693.363
693.515
696.289
697.647
697.673
697.868
696.018
697.077
696.991
697.221
697.153
696.171
697.278
692.493
689.701
692.681
692.597
697.292
596.85
672.009
671.711
697.948
697.948
697.948
697.948
697.948
697.948
697.948
697.948
697.948
697.875
697.868
697.912
697.948
697.948
697.947
697.948
697.948
697.948
697.948
697.948
697.948
697.948
697.948
697.947
697.948
697.948
697.948
697.942
697.947
697.947
697.794
697.778
697.281
697.938
697.905
697.909
697.897
697.901
697.937
697.942
697.923
697.927
697.914
697.918
697.941
697.485
697.83
697.812
693.885
694.563
696.598
677.578
689.495
687.502
692.785
691.57
683.937
665.545
682.629
682.461
683.088
682.841
666.064
695.096
691.203
691.359
689.304
693.775
693.409
694.265
694.039
689.735
697.196
696.211
696.348
697.745
697.795
697.619
697.909
697.898
697.881
697.877
697.801
697.798
697.808
697.804
697.879
697.934
697.891
697.891
697.893
697.892
697.934
697.129
697.733
697.737
691.848
691.639
695.156
667.601
684.278
684.9
682.932
683.58
665.207
690.634
690.692
694.779
664.052
682.072
681.964
682.327
682.204
664.55
660.932
682.124
682.45
681.78
681.921
660.631
694.819
690.815
690.74
697.873
697.791
697.792
697.788
697.79
697.872
697.82
697.825
697.891
697.203
697.678
697.664
697.871
697.791
697.789
697.795
697.793
697.872
697.869
697.786
697.787
697.785
697.786
697.868
696.498
696.608
697.488
691.946
694.856
694.617
695.317
695.097
692.432
696.847
695.004
695.161
697.904
697.901
697.768
697.944
697.935
697.936
697.933
697.934
697.944
697.945
697.938
697.938
697.936
697.937
697.945
697.803
697.91
697.907
696.081
695.95
697.324
668.741
689.814
690.426
688.43
689.15
667.106
682.361
691.927
692.347
690.972
691.47
681.352
697.433
696.314
696.202
626.283
603.502
601.661
607.673
605.418
628.252
696.831
696.76
697.574
685.882
693.416
693.715
692.736
693.09
685.096
599.795
597.865
620.399
697.948
697.947
697.946
686.863
687.515
691.785
690.41
685.472
686.218
697.947
697.948
697.948
697.948
697.948
697.947
697.944
697.936
697.942
639.776
637.488
661.501
584.293
610.368
612.614
593.302
620.517
624.054
614.897
617.465
590.036
666.777
644.338
642.02
658.349
656.454
674.083
610.296
634.078
636.492
627.757
631.189
607.033
697.946
697.942
697.94
697.946
697.944
697.947
697.935
697.916
697.908
697.936
697.925
697.939
697.664
697.652
697.805
693.285
689.579
690.242
688.441
688.946
692.945
694.451
691.623
692
690.814
691.251
694.21
691.637
692.085
694.61
681.221
688.2
687.477
689.373
688.818
682.276
686.686
685.885
676.64
693.701
690.644
691.153
697.528
696.844
697.001
696.406
696.681
697.435
697.853
697.671
697.77
697.207
697.459
697.789
695.085
691.36
691.696
696.549
694.135
695.75
692.16
692.941
696.007
697.885
697.801
697.448
697.936
697.906
697.929
697.827
697.871
697.926
697.929
697.901
697.886
697.941
697.937
697.944
697.878
697.92
697.929
697.901
697.909
697.858
669.781
684.878
684.482
686.179
685.398
670.468
696.019
692.902
693.32
691.53
691.707
695.386
667.796
683.613
683.357
684.154
683.87
668.212
696.479
696.607
697.389
690.737
694.687
694.478
695.097
694.893
691.044
697.896
697.839
697.831
697.864
697.849
697.9
697.28
697.664
697.696
697.619
697.623
697.24
697.886
697.816
697.812
697.825
697.82
697.888
671.877
685.944
686.164
685.365
685.692
671.473
695.382
692.177
692.03
662.993
681.828
681.776
681.898
681.863
663.214
694.698
690.572
690.595
690.684
690.631
694.722
661.865
681.765
681.761
681.748
681.75
662.013
697.877
697.798
697.8
697.794
697.796
697.876
696.993
697.606
697.604
697.649
697.634
697.018
697.884
697.81
697.815
697.802
697.806
697.882
697.868
697.786
697.785
697.788
697.787
697.868
697.868
697.785
697.785
697.785
697.785
697.867
677.815
653.016
650.049
657.432
655.434
679.079
672.591
640.991
638.947
646.753
643.595
673.848
637.684
641.218
603.817
685.688
668.948
667.045
682.152