/*--------------------------------*- C++ -*----------------------------------*\
| =========                 |                                                 |
| \\      /  F ield         | OpenFOAM: The Open Source CFD Toolbox           |
|  \\    /   O peration     | Version:  5.x                                   |
|   \\  /    A nd           | Web:      www.OpenFOAM.org                      |
|    \\/     M anipulation  |                                                 |
\*---------------------------------------------------------------------------*/
FoamFile
{
    version     2.0;
    format      ascii;
    class       volVectorField;
    location    "200";
    object      U;
}
// * * * * * * * * * * * * * * * * * * * * * * * * * * * * * * * * * * * * * //

dimensions      [0 1 -1 0 0 0 0];

internalField   nonuniform List<vector> 
6584
(
(1.00008 -0.00020708 4.89183e-27)
(1.00006 -0.000453886 2.37323e-25)
(1.00007 -0.000614311 2.11662e-30)
(1.00007 -0.000833625 -4.23003e-25)
(1.00008 -0.0010623 0)
(1.00008 -0.00131257 0)
(1.00007 -0.00155768 0)
(1.00003 -0.00171806 4.32597e-25)
(0.999956 -0.00172822 4.38572e-25)
(0.999838 -0.00143155 0)
(0.999718 -0.000626306 1.94942e-25)
(0.999636 0.000627769 -1.59519e-25)
(0.99966 0.00202119 -1.07864e-26)
(0.999785 0.00310295 2.72794e-26)
(0.999931 0.00359835 8.79141e-27)
(1.00008 0.0035204 8.79957e-25)
(1.00015 0.00311533 7.87747e-25)
(1.00018 0.00259319 6.35825e-26)
(1.00017 0.00205881 5.53656e-25)
(1.00015 0.00158107 4.00695e-25)
(1.00012 0.00118784 0)
(1.00011 0.00084367 0)
(1.00008 0.000602912 6.1102e-25)
(1.0001 0.000269103 3.75821e-25)
(1.00032 -0.00043557 -2.31882e-25)
(1.00027 -0.00091509 -9.06361e-25)
(1.00033 -0.00121357 -1.21115e-24)
(1.00035 -0.00165673 0)
(1.0004 -0.00211775 -1.58588e-25)
(1.0004 -0.00263655 -1.34046e-24)
(1.00035 -0.00316973 -8.15164e-25)
(1.00014 -0.00354628 1.37459e-24)
(0.999834 -0.0036326 -6.15045e-26)
(0.999049 -0.003085 -3.19731e-25)
(0.998114 -0.00144365 -1.10757e-28)
(0.997526 0.00120062 0)
(0.997688 0.00417751 4.85505e-25)
(0.998558 0.00645322 3.09118e-25)
(0.999693 0.0074718 -1.9531e-24)
(1.00046 0.00725282 -5.1791e-25)
(1.00077 0.00632753 -1.21266e-24)
(1.00088 0.00520581 -1.58114e-24)
(1.00082 0.00409036 -4.10415e-24)
(1.00071 0.00311792 -3.39103e-24)
(1.00058 0.00233716 -2.3211e-25)
(1.0005 0.00165018 -9.86461e-26)
(1.00039 0.00120392 0)
(1.00043 0.000560515 3.27304e-25)
(1.00071 -0.000670468 -5.86456e-25)
(1.00067 -0.00135748 0)
(1.00079 -0.00177061 -2.34678e-25)
(1.00087 -0.0024385 -1.58025e-24)
(1.001 -0.00314414 -2.37925e-24)
(1.00104 -0.00398008 0)
(1.00095 -0.00492534 0)
(1.00047 -0.00564595 -3.38464e-25)
(0.999573 -0.00639938 -1.28825e-25)
(0.998228 -0.00446619 1.04108e-25)
(0.996675 -0.00244953 -1.82474e-25)
(0.995497 0.00102064 -2.57495e-25)
(0.995667 0.0052118 0)
(0.997235 0.00850573 0)
(0.999229 0.0100396 3.52233e-26)
(1.00118 0.011694 -2.20056e-24)
(1.00203 0.00975275 0)
(1.00225 0.00783296 -6.96672e-25)
(1.00207 0.00602338 0)
(1.00175 0.00452135 -5.28972e-25)
(1.00143 0.00336511 -1.46492e-24)
(1.00119 0.00235379 -8.84106e-25)
(1.00095 0.00174667 0)
(1.00093 0.000844523 2.54944e-25)
(1.00118 -0.000891739 -3.60699e-25)
(1.00119 -0.00174735 0)
(1.00141 -0.00225198 -3.15754e-25)
(1.00161 -0.0031325 0)
(1.00188 -0.00408693 0)
(1.00206 -0.0053022 0)
(1.00202 -0.00681604 -4.66369e-25)
(1.00137 -0.00827584 4.38723e-24)
(0.99965 -0.010085 -3.06463e-25)
(0.997055 -0.00809464 3.24848e-25)
(0.993679 -0.00571143 -1.92859e-25)
(0.99035 -0.000127208 4.63617e-26)
(0.990134 0.00786888 4.83488e-26)
(0.993851 0.0140885 0)
(0.998476 0.0159988 -3.25728e-24)
(1.00177 0.0146893 0)
(1.00447 0.0133931 0)
(1.00446 0.0104322 5.19695e-24)
(1.00395 0.00774743 3.43868e-24)
(1.00323 0.0056847 -1.16251e-24)
(1.00259 0.00418416 -8.19691e-25)
(1.0021 0.00289293 0)
(1.00167 0.00217255 3.66524e-25)
(1.00153 0.0010866 3.03466e-25)
(1.00172 -0.00107936 -1.40764e-25)
(1.00182 -0.00205009 -9.49186e-27)
(1.00217 -0.00261241 -4.49686e-26)
(1.00255 -0.00367465 -6.78272e-26)
(1.00306 -0.00484511 1.61541e-25)
(1.00358 -0.00646791 3.49719e-24)
(1.00382 -0.00867363 -5.32107e-24)
(1.00355 -0.0111192 5.04325e-24)
(1.00015 -0.0119922 2.41626e-25)
(0.996706 -0.0133084 1.47778e-24)
(0.990089 -0.0117781 -2.24891e-25)
(0.981082 -0.00349312 2.63277e-25)
(0.979414 0.0119322 -3.1446e-26)
(0.988813 0.0233058 4.63584e-24)
(0.998846 0.0247205 0)
(1.00453 0.0209325 3.19759e-24)
(1.00638 0.0158557 -7.2858e-25)
(1.00758 0.012191 -4.28339e-24)
(1.00647 0.00900515 -2.46041e-24)
(1.0051 0.00641616 9.38956e-25)
(1.004 0.00468589 -6.16271e-26)
(1.00316 0.00319299 -3.66004e-26)
(1.00251 0.00242562 4.19419e-25)
(1.00217 0.00125468 -1.61813e-25)
(1.00227 -0.00121355 7.03425e-26)
(1.00251 -0.0022304 -1.85079e-25)
(1.00302 -0.00279888 -1.13857e-26)
(1.00365 -0.00397427 0)
(1.0045 -0.00524763 -7.2498e-25)
(1.00558 -0.00721164 -2.77223e-25)
(1.00639 -0.00962288 -2.12841e-24)
(1.00521 -0.0121949 -5.39795e-25)
(1.00317 -0.0160742 2.23191e-24)
(0.999317 -0.0210874 8.39835e-24)
(0.986804 -0.0212225 1.78411e-24)
(0.969527 -0.0128953 2.68109e-28)
(0.96182 0.015282 -7.63936e-26)
(0.982144 0.0364872 6.93821e-25)
(1.00299 0.0378154 -7.17274e-24)
(1.01062 0.028145 0)
(1.0116 0.0199468 4.14842e-28)
(1.01166 0.0131597 8.90309e-25)
(1.00951 0.00954646 2.44945e-25)
(1.00725 0.00655338 1.02526e-24)
(1.00558 0.00475847 -3.9581e-25)
(1.0043 0.00318477 0)
(1.00337 0.00245618 -2.18138e-25)
(1.00279 0.00131922 -3.13105e-25)
(1.00281 -0.00127804 9.63663e-28)
(1.0032 -0.00226175 -8.53643e-26)
(1.00388 -0.0027708 1.08725e-25)
(1.00482 -0.0039605 4.48803e-27)
(1.00606 -0.00516936 1.20609e-26)
(1.00784 -0.00730995 -1.17384e-24)
(1.00956 -0.0097045 -1.61631e-24)
(1.00904 -0.0133679 -8.0094e-26)
(1.00935 -0.0194748 -3.35228e-25)
(1.0075 -0.0292257 1.24206e-24)
(0.992581 -0.0392391 0)
(0.95415 -0.0413107 1.18479e-24)
(0.91006 0.0221096 4.35549e-26)
(0.979439 0.0744987 3.18051e-24)
(1.01234 0.0527053 -2.22775e-26)
(1.0219 0.0339164 0)
(1.01928 0.0218357 2.17324e-24)
(1.0165 0.0124996 3.76511e-25)
(1.01283 0.00898347 3.09291e-25)
(1.0095 0.00591789 -8.43863e-26)
(1.00716 0.00430524 -8.50116e-25)
(1.00538 0.00281847 0)
(1.00418 0.00222984 -2.02039e-25)
(1.00332 0.00125759 -1.97863e-25)
(1.00328 -0.00126429 -8.88737e-26)
(1.00384 -0.00213563 7.76168e-26)
(1.00467 -0.00251557 4.12282e-26)
(1.00591 -0.00359921 3.30616e-26)
(1.00756 -0.00454047 -4.08031e-26)
(1.01004 -0.00653271 5.50299e-25)
(1.01287 -0.0083755 1.29773e-28)
(1.01386 -0.0125553 -2.05677e-25)
(1.01777 -0.0193733 2.11038e-28)
(1.02239 -0.0315869 -3.04663e-24)
(1.0178 -0.0540741 -8.86045e-26)
(0.993511 -0.107995 3.3734e-26)
(1.0219 0.130875 5.56725e-25)
(1.0415 0.0639457 -5.52994e-25)
(1.03823 0.0335614 1.16909e-24)
(1.02875 0.0198274 -2.25739e-25)
(1.0213 0.00966393 7.32699e-25)
(1.01592 0.00706254 7.40658e-25)
(1.01151 0.00441848 5.40354e-25)
(1.00853 0.00328825 -2.75036e-25)
(1.00627 0.00208539 0)
(1.00482 0.00174043 0)
(1.00368 0.00106039 -2.12216e-30)
(1.00364 -0.00117515 -1.711e-26)
(1.00435 -0.00186866 -3.66322e-27)
(1.00529 -0.00206247 -1.4537e-26)
(1.00676 -0.0029245 6.41473e-26)
(1.00872 -0.00341671 7.19925e-26)
(1.01171 -0.00490492 4.04395e-25)
(1.01545 -0.00567905 1.12186e-24)
(1.01833 -0.0093268 0)
(1.02577 -0.0142005 0)
(1.03777 -0.0226905 0)
(1.05183 -0.042653 -1.06373e-25)
(1.08354 -0.0877829 1.41412e-26)
(1.1243 0.109403 0)
(1.07888 0.0477817 0)
(1.05375 0.0228178 0)
(1.03725 0.0128443 2.37588e-25)
(1.02483 0.00480239 0)
(1.01808 0.00387061 -8.11844e-25)
(1.01291 0.00216662 -5.17264e-25)
(1.00943 0.001779 -4.82386e-26)
(1.00682 0.00104101 0)
(1.0052 0.0010209 1.16022e-26)
(1.00382 0.000736012 2.00637e-26)
(1.00388 -0.00102583 3.6481e-27)
(1.00468 -0.00150389 -5.25458e-27)
(1.00567 -0.00148657 5.92954e-27)
(1.00725 -0.0020554 3.06166e-26)
(1.00934 -0.00201714 -7.68059e-26)
(1.01247 -0.00278041 -5.88005e-27)
(1.01656 -0.00231546 -1.07049e-25)
(1.02084 -0.00444647 -7.20813e-27)
(1.02976 -0.00551546 0)
(1.04455 -0.00645122 -2.6916e-25)
(1.06782 -0.0117531 1.15543e-30)
(1.11517 -0.0186693 -3.53323e-26)
(1.16747 0.023789 -8.84773e-26)
(1.09841 0.0102976 -3.24069e-25)
(1.06069 0.00449559 -2.48359e-24)
(1.04149 0.00234126 0)
(1.02604 -0.00105059 -1.63744e-24)
(1.01876 -6.24036e-05 0)
(1.01339 -0.000500411 -1.40909e-26)
(1.00971 -2.8601e-05 0)
(1.00693 -0.000191734 -1.19298e-26)
(1.00524 0.000144398 1.00483e-27)
(1.0037 0.000312272 -2.13847e-26)
(1.00399 -0.000840986 0)
(1.00484 -0.00110153 -3.11289e-26)
(1.00579 -0.000889397 -3.35533e-26)
(1.00734 -0.00116023 1.64176e-26)
(1.00935 -0.000644125 -3.94286e-28)
(1.01223 -0.000688424 6.27582e-26)
(1.01602 0.000775794 3.35237e-25)
(1.02067 0.000488413 1.65026e-25)
(1.02849 0.00307942 0)
(1.04051 0.00883567 1.32527e-24)
(1.06077 0.0175622 4.0108e-25)
(1.09453 0.0400023 -1.61828e-26)
(1.14462 -0.0540671 -4.23622e-26)
(1.09158 -0.0269801 5.36721e-25)
(1.05667 -0.0139204 1.02154e-25)
(1.04009 -0.00835509 1.43249e-24)
(1.02467 -0.00651304 7.1427e-24)
(1.01784 -0.00395259 3.97438e-24)
(1.01285 -0.00312249 -2.68006e-24)
(1.00929 -0.00187474 -1.88436e-24)
(1.00656 -0.0014509 9.62829e-26)
(1.00493 -0.00079048 4.12172e-26)
(1.00331 -0.000169031 -1.01104e-25)
(1.00398 -0.000648458 3.12218e-27)
(1.00482 -0.000722594 3.37574e-27)
(1.00569 -0.000367454 6.13816e-27)
(1.0071 -0.000396682 1.71664e-26)
(1.00887 0.000439725 -3.78822e-34)
(1.01123 0.000915187 1.5098e-25)
(1.01428 0.00288622 5.29331e-25)
(1.01831 0.00404951 1.9402e-25)
(1.02344 0.0086835 0)
(1.02971 0.017479 -3.66337e-25)
(1.04044 0.0329178 -8.7145e-26)
(1.05296 0.0653276 -1.37436e-26)
(1.08879 -0.0945289 -8.87928e-27)
(1.06729 -0.0487588 0)
(1.0451 -0.0263002 -2.28008e-24)
(1.03423 -0.0162776 1.82931e-24)
(1.02133 -0.0105405 1.03089e-23)
(1.01566 -0.00710621 6.73467e-24)
(1.01145 -0.00530236 0)
(1.00829 -0.00351248 -1.67822e-24)
(1.00577 -0.00258697 -9.61321e-25)
(1.00429 -0.00168349 6.805e-26)
(1.0027 -0.000661976 -8.78868e-26)
(1.00389 -0.000472427 0)
(1.00468 -0.000412877 5.03108e-27)
(1.00543 1.59854e-05 -6.22356e-27)
(1.00665 0.000138676 -1.73603e-26)
(1.0081 0.00110193 0)
(1.00989 0.00181404 -5.81779e-26)
(1.01208 0.00380131 7.99817e-26)
(1.01495 0.00562624 -3.29155e-26)
(1.01729 0.0103876 -5.57133e-26)
(1.0181 0.0183117 1.9665e-25)
(1.01884 0.0325001 3.86072e-26)
(1.01138 0.0591511 0)
(1.03233 -0.0933639 -7.20884e-27)
(1.0396 -0.0523529 1.19212e-25)
(1.0316 -0.0305985 1.09157e-24)
(1.02647 -0.0201457 1.24643e-25)
(1.01705 -0.0127565 4.59431e-24)
(1.01281 -0.0091572 4.77279e-24)
(1.00952 -0.00681802 0)
(1.00688 -0.00477745 -2.27258e-26)
(1.00468 -0.00349326 3.72521e-25)
(1.00341 -0.00245868 2.11443e-25)
(1.0019 -0.0011258 7.42322e-27)
(1.00376 -0.000329203 0)
(1.00447 -0.000195719 0)
(1.0051 0.00024013 0)
(1.00612 0.000424011 0)
(1.00728 0.00134658 -1.64508e-26)
(1.00858 0.00206319 -1.69965e-26)
(1.01007 0.00365216 -1.59496e-25)
(1.01118 0.00591175 2.7601e-24)
(1.01233 0.0090832 0)
(1.01002 0.0139286 0)
(1.00554 0.021526 6.0655e-25)
(0.988629 0.0292163 2.05281e-24)
(0.587058 -0.0242053 -7.20666e-26)
(0.997654 -0.05688 -3.88432e-24)
(1.01966 -0.0431159 -7.03827e-25)
(1.02063 -0.0286101 -5.02215e-27)
(1.01912 -0.0204573 -2.80229e-26)
(1.01283 -0.0133896 -1.39027e-24)
(1.00989 -0.0101074 1.82194e-25)
(1.00739 -0.00764736 3.0466e-27)
(1.00527 -0.00561143 -1.75764e-24)
(1.00342 -0.00412905 0)
(1.00236 -0.00307184 7.88531e-26)
(1.001 -0.00153153 -1.81092e-25)
(1.00362 -0.000226095 0)
(1.00424 -7.31975e-05 -2.61631e-26)
(1.00477 0.000319402 2.78958e-27)
(1.00562 0.000493754 0)
(1.00656 0.00127391 0)
(1.00754 0.00183619 -1.02049e-24)
(1.00857 0.00301746 1.55088e-25)
(1.00931 0.00432888 3.46303e-24)
(1.00937 0.00647684 3.92523e-24)
(1.00685 0.00842168 2.15516e-24)
(1.00228 0.0101697 0)
(0.994419 0.00468552 -1.9176e-25)
(0.799112 -0.0188365 3.79628e-25)
(0.995278 -0.0323717 -3.46796e-25)
(1.01006 -0.0285996 3.56999e-25)
(1.01385 -0.0236846 -3.68102e-25)
(1.01151 -0.0166326 6.41559e-25)
(1.00928 -0.0128703 -1.21048e-25)
(1.00724 -0.0101634 -1.30416e-27)
(1.00532 -0.00789909 -4.26574e-27)
(1.00366 -0.00605162 0)
(1.00212 -0.0045046 -7.8515e-25)
(1.00125 -0.00351069 -9.11519e-25)
(1.00005 -0.00186584 -2.44792e-25)
(1.0035 -0.000163096 1.0749e-27)
(1.00404 -3.29485e-05 -2.97319e-26)
(1.0045 0.000286947 4.15324e-26)
(1.00522 0.000407484 6.11006e-30)
(1.00602 0.00100283 -1.73969e-25)
(1.00683 0.00135202 -7.43045e-25)
(1.00768 0.00209197 -1.83189e-24)
(1.00823 0.00278208 -2.38269e-24)
(1.00815 0.0038358 -8.90533e-25)
(1.00656 0.00401982 -1.22524e-25)
(1.00399 0.00267292 0)
(1.0008 -0.00188534 -2.99135e-26)
(0.828005 -0.015161 -6.65256e-25)
(1.00184 -0.0179805 -1.65292e-25)
(1.0082 -0.0207018 -1.14673e-25)
(1.01032 -0.0188752 -1.86983e-25)
(1.00857 -0.0144824 -2.99745e-24)
(1.00663 -0.0119169 0)
(1.00506 -0.0097177 -4.27223e-25)
(1.00349 -0.00776567 -1.16668e-25)
(1.00215 -0.00617455 -3.44278e-26)
(1.00086 -0.00466031 1.2089e-25)
(1.00015 -0.00378296 0)
(0.999107 -0.00212124 0)
(1.00341 -0.000135517 -1.0181e-27)
(1.00389 -5.58372e-05 5.065e-28)
(1.0043 0.000180037 2.72437e-26)
(1.00495 0.000227129 0)
(1.00568 0.000631594 -9.13537e-26)
(1.00643 0.000785857 0)
(1.00729 0.00109993 -1.65608e-24)
(1.00794 0.00142677 6.53979e-25)
(1.00849 0.000901567 -3.88835e-26)
(1.00745 0.00134366 -6.42141e-26)
(1.00713 -0.000220828 3.02804e-25)
(0.992866 -0.0041623 -3.3214e-25)
(0.866648 -0.0125231 -8.93241e-25)
(1.00402 -0.0135773 6.81002e-26)
(1.00822 -0.0153378 3.0335e-25)
(1.00856 -0.0150722 9.86989e-26)
(1.00642 -0.0124604 -1.43521e-24)
(1.00469 -0.0106647 1.6125e-24)
(1.00332 -0.00899661 0)
(1.00195 -0.00738502 6.05424e-25)
(1.00081 -0.00607711 -4.37994e-26)
(0.999695 -0.00465394 1.49656e-25)
(0.999104 -0.00391991 0)
(0.998202 -0.00230556 0)
(1.00337 -0.000136524 7.24491e-27)
(1.0038 -0.00012166 1.88999e-27)
(1.00419 3.18313e-05 -1.79795e-26)
(1.0048 4.71625e-06 1.72876e-26)
(1.00552 0.000236801 0)
(1.00628 0.000243441 0)
(1.00724 0.000263559 -5.66007e-25)
(1.00814 0.00026199 -8.14286e-26)
(1.00908 -0.000285631 1.05949e-25)
(1.00911 -0.00165016 -3.86048e-25)
(1.0095 -0.0014926 0)
(0.99048 -0.0032397 -4.50591e-25)
(0.878542 -0.0134755 -2.78212e-24)
(1.00608 -0.00951747 4.59202e-25)
(1.00797 -0.010807 1.14829e-24)
(1.00708 -0.0113122 2.02134e-24)
(1.00518 -0.0105483 1.35127e-24)
(1.00336 -0.00932556 1.35679e-24)
(1.00198 -0.0081715 -2.04975e-25)
(1.00069 -0.00686638 -1.29104e-25)
(0.999667 -0.00583759 -2.95339e-25)
(0.998664 -0.00453512 -1.06392e-24)
(0.998146 -0.00394972 1.85702e-26)
(0.997363 -0.00242689 -4.49046e-26)
(1.00338 -0.000158972 3.83883e-27)
(1.00376 -0.000212762 2.71781e-27)
(1.00416 -0.000132566 -2.01777e-26)
(1.00475 -0.000224054 -9.54742e-27)
(1.0055 -0.000135365 0)
(1.00631 -0.000224391 0)
(1.0074 -0.000408254 8.85166e-25)
(1.00846 -0.000503632 2.32757e-25)
(1.01001 -0.00143729 -2.58493e-25)
(1.00974 -0.00123077 -3.57072e-25)
(1.01355 -0.00600492 0)
(0.951056 0.0011605 -7.90744e-25)
(0.927616 -0.013648 -2.93899e-26)
(1.00972 -0.00647018 2.25719e-25)
(1.00766 -0.0100879 8.56013e-26)
(1.00706 -0.00926162 -5.30523e-25)
(1.00451 -0.00907991 -4.10625e-25)
(1.00248 -0.00815571 2.26961e-25)
(1.00099 -0.00737942 -6.08491e-26)
(0.999698 -0.00630417 -1.0276e-24)
(0.998706 -0.00552479 -3.255e-25)
(0.997773 -0.00434857 -1.3834e-24)
(0.997291 -0.003902 0)
(0.996605 -0.00249698 -1.96029e-25)
(1.00342 -0.000196516 -4.87638e-27)
(1.00378 -0.000315646 -3.26535e-27)
(1.00419 -0.000297022 0)
(1.00478 -0.000438643 -1.96185e-27)
(1.00558 -0.000467649 0)
(1.00643 -0.000599831 -3.88834e-25)
(1.00768 -0.000961939 -1.38929e-25)
(1.00883 -0.000955922 5.27661e-26)
(1.01081 -0.00235582 -1.9445e-25)
(1.0107 -0.00126159 -2.18953e-25)
(1.01365 -0.00651347 -4.90957e-26)
(0.952906 -0.000152723 -2.17864e-24)
(0.929441 -0.0109879 9.01354e-25)
(1.00927 -0.00483294 -2.16963e-25)
(1.00794 -0.00904711 -7.02159e-26)
(1.00708 -0.00752218 2.7285e-28)
(1.00403 -0.00796852 -2.11337e-25)
(1.00187 -0.00712373 -2.6106e-25)
(1.00023 -0.00666354 -5.74192e-25)
(0.998912 -0.00574873 -1.39954e-25)
(0.997908 -0.00518519 -8.43283e-26)
(0.997013 -0.00412704 -4.50062e-25)
(0.996542 -0.00380319 -1.94383e-25)
(0.99593 -0.00252704 -8.73918e-26)
(1.00351 -0.000244053 0)
(1.00385 -0.000420848 -1.20394e-26)
(1.00428 -0.000452352 -1.94086e-26)
(1.00488 -0.000628291 5.9831e-27)
(1.00573 -0.000755836 1.44615e-25)
(1.00663 -0.000885467 -5.72506e-25)
(1.00801 -0.00141439 0)
(1.00924 -0.00123336 -1.80913e-25)
(1.01145 -0.00297578 0)
(1.01171 -0.00138057 0)
(1.01412 -0.00650727 5.08526e-28)
(0.954333 -0.000767731 8.20884e-27)
(0.930976 -0.00935786 4.01658e-25)
(1.00932 -0.0038594 -1.32865e-25)
(1.0084 -0.00805065 -1.77701e-26)
(1.00707 -0.00617822 -1.03099e-26)
(1.00372 -0.00708897 4.37778e-26)
(1.00144 -0.00621474 -1.15726e-25)
(0.999651 -0.00603512 -1.53433e-25)
(0.998292 -0.00522306 2.57731e-25)
(0.997249 -0.00484604 -8.45482e-26)
(0.996372 -0.00389239 0)
(0.995893 -0.00367356 3.5162e-30)
(0.995336 -0.00252682 0)
(1.00363 -0.000297701 0)
(1.00396 -0.000522179 -2.16e-26)
(1.00441 -0.000593921 -1.3613e-26)
(1.00502 -0.000788751 2.83091e-26)
(1.00593 -0.00100034 0)
(1.00686 -0.00109453 4.98355e-26)
(1.00835 -0.00177046 -5.43773e-25)
(1.00968 -0.00140441 -4.00402e-25)
(1.01199 -0.00336162 -5.74275e-26)
(1.01259 -0.00146093 -3.6215e-28)
(1.01459 -0.00632985 2.76691e-25)
(0.955115 -0.00112228 -2.68792e-25)
(0.931862 -0.00818435 5.05845e-25)
(1.00946 -0.00320979 -7.85181e-26)
(1.00882 -0.00722602 9.82077e-26)
(1.00709 -0.00515639 -1.91302e-27)
(1.00355 -0.00637771 -8.72536e-26)
(1.00113 -0.00543451 7.9347e-26)
(0.999208 -0.00549539 1.93843e-25)
(0.997802 -0.00474039 -3.74828e-30)
(0.996706 -0.00452403 -4.02503e-26)
(0.995833 -0.00365885 -2.82087e-25)
(0.995336 -0.00352801 1.45818e-25)
(0.994818 -0.00250441 1.34792e-25)
(1.00377 -0.000354633 -1.56157e-26)
(1.0041 -0.000616019 -2.90091e-26)
(1.00457 -0.000720078 -7.28274e-34)
(1.00519 -0.000920259 7.19907e-26)
(1.00615 -0.00120396 1.9675e-25)
(1.00712 -0.00124347 3.46241e-26)
(1.00869 -0.00204219 -5.48479e-25)
(1.0101 -0.00150847 -3.75177e-25)
(1.01245 -0.00359239 2.12142e-25)
(1.01333 -0.00152645 0)
(1.01495 -0.00609595 5.58586e-26)
(0.95559 -0.00133982 -1.00976e-25)
(0.93241 -0.00729727 1.50625e-25)
(1.00952 -0.00274395 -6.25194e-26)
(1.00917 -0.00652901 -5.5826e-31)
(1.00711 -0.0043683 -1.56094e-25)
(1.00346 -0.0057941 -7.09314e-26)
(1.0009 -0.00477621 -1.55467e-26)
(0.998871 -0.00503667 1.03294e-25)
(0.997412 -0.00430731 -1.51463e-25)
(0.996259 -0.00422824 -2.37949e-25)
(0.995382 -0.00343552 -1.18846e-25)
(0.994859 -0.00337742 -1.25385e-25)
(0.994369 -0.00246637 1.17423e-25)
(1.00393 -0.000412806 -2.33706e-34)
(1.00426 -0.000700699 -1.72359e-26)
(1.00476 -0.000830825 2.00078e-26)
(1.00539 -0.00102567 4.10547e-26)
(1.00638 -0.0013709 2.87527e-29)
(1.00739 -0.00134743 0)
(1.00901 -0.00224448 -2.72832e-26)
(1.01052 -0.00157193 -3.59319e-25)
(1.01284 -0.00371638 1.80188e-25)
(1.01397 -0.00158168 0)
(1.01524 -0.00584012 -1.48832e-30)
(0.955899 -0.001468 7.59048e-26)
(0.932771 -0.00661775 -1.57665e-25)
(1.00952 -0.00240833 0)
(1.00947 -0.00593772 2.18327e-27)
(1.00714 -0.00375806 4.04728e-26)
(1.00343 -0.00530935 0)
(1.00073 -0.00422612 3.59499e-26)
(0.998613 -0.0046483 3.31106e-26)
(0.997101 -0.00392527 -3.85524e-25)
(0.995891 -0.00396231 -9.92644e-26)
(0.995003 -0.00322775 1.00411e-25)
(0.994452 -0.00322901 -1.2665e-25)
(0.993979 -0.00241794 0)
(1.0041 -0.000470771 1.96221e-26)
(1.00444 -0.000775764 -1.9134e-26)
(1.00495 -0.000927081 0)
(1.0056 -0.00110892 2.049e-26)
(1.00663 -0.00150587 7.34371e-26)
(1.00767 -0.00141901 1.51235e-26)
(1.00932 -0.00239077 0)
(1.0109 -0.00161131 1.40455e-27)
(1.0132 -0.00376686 1.65615e-25)
(1.01452 -0.00162973 0)
(1.01549 -0.00558647 4.02818e-26)
(0.956091 -0.00153873 2.87757e-26)
(0.932999 -0.00608526 -1.07826e-25)
(1.00948 -0.0021668 1.13341e-26)
(1.00973 -0.00543822 -4.02049e-26)
(1.00717 -0.00328647 -2.78897e-28)
(1.00342 -0.00490322 2.40676e-26)
(1.0006 -0.00377044 -9.65348e-27)
(0.998414 -0.0043199 1.75458e-27)
(0.996848 -0.00359296 -1.38175e-25)
(0.995586 -0.00372696 5.38288e-26)
(0.994685 -0.00303844 6.03424e-26)
(0.994104 -0.00308768 -1.8197e-26)
(0.993641 -0.00236327 -7.66672e-27)
(1.00428 -0.000527413 -2.0644e-27)
(1.00462 -0.000841514 -2.70606e-26)
(1.00515 -0.00101006 -5.89308e-27)
(1.00581 -0.0011741 0)
(1.00687 -0.00161357 4.23989e-25)
(1.00794 -0.00146817 0)
(1.0096 -0.00249271 -2.5077e-25)
(1.01127 -0.00163722 0)
(1.01351 -0.00376794 1.39629e-25)
(1.01502 -0.00167391 9.41836e-26)
(1.01566 -0.00534485 0)
(0.956192 -0.00157919 2.27303e-26)
(0.93314 -0.00566563 0)
(1.00939 -0.00199661 9.19506e-27)
(1.00994 -0.00501348 -1.09611e-26)
(1.00719 -0.00292318 0)
(1.00344 -0.00456056 0)
(1.0005 -0.00339676 -7.93929e-27)
(0.99826 -0.00404245 1.17942e-26)
(0.996641 -0.00330798 0)
(0.995333 -0.00352101 0)
(0.994414 -0.00286891 4.79515e-26)
(0.993806 -0.00295636 8.56248e-27)
(0.993345 -0.00230563 -3.91272e-26)
(1.00447 -0.000581823 2.08907e-27)
(1.00482 -0.000898604 2.03294e-27)
(1.00536 -0.00108107 0)
(1.00603 -0.00122508 -6.44124e-27)
(1.0071 -0.00169826 2.19332e-25)
(1.00821 -0.00150247 5.80558e-27)
(1.00987 -0.0025603 -2.19035e-25)
(1.01161 -0.00165692 -1.0424e-27)
(1.0138 -0.00373765 0)
(1.01546 -0.00171428 9.05675e-26)
(1.01578 -0.00512229 0)
(0.956219 -0.00161299 0)
(0.933247 -0.00533228 0)
(1.00926 -0.00187487 4.61102e-26)
(1.01012 -0.00464867 8.42544e-26)
(1.00722 -0.00264541 0)
(1.00346 -0.00426999 -1.21914e-27)
(1.00041 -0.00309414 0)
(0.998139 -0.00380824 0)
(0.996467 -0.00306701 0)
(0.995121 -0.00334247 0)
(0.994182 -0.00271996 -4.09552e-26)
(0.993549 -0.00283676 -3.15929e-26)
(0.993086 -0.00224803 4.66477e-31)
(1.00466 -0.000633163 0)
(1.00501 -0.000947765 1.0592e-26)
(1.00556 -0.00114127 -2.10047e-26)
(1.00625 -0.00126506 2.30469e-26)
(1.00733 -0.00176372 2.09767e-25)
(1.00847 -0.00152752 4.2883e-25)
(1.01011 -0.00260189 0)
(1.01192 -0.00167554 0)
(1.01406 -0.00368951 1.32121e-26)
(1.01585 -0.00175554 6.03364e-27)
(1.01585 -0.00492465 -2.5609e-33)
(0.956209 -0.00164371 6.54826e-27)
(0.933305 -0.00505848 1.27648e-25)
(1.00909 -0.00178926 3.64411e-26)
(1.01027 -0.00434239 3.62506e-27)
(1.00725 -0.00243563 0)
(1.0035 -0.00402389 -5.55974e-26)
(1.00034 -0.00285148 -8.04987e-26)
(0.998043 -0.00361069 0)
(0.996319 -0.00286571 -7.73137e-26)
(0.994941 -0.00318914 -6.79439e-41)
(0.99398 -0.0025909 1.01019e-25)
(0.993324 -0.00272997 5.75339e-26)
(0.992855 -0.00219249 4.85048e-26)
(1.00484 -0.000680607 -2.29819e-26)
(1.00521 -0.000989625 8.83058e-27)
(1.00577 -0.00119154 -1.10703e-26)
(1.00647 -0.00129663 4.53941e-26)
(1.00755 -0.00181312 1.90458e-25)
(1.00872 -0.00154741 8.22999e-25)
(1.01035 -0.00262407 0)
(1.01222 -0.00169567 0)
(1.01431 -0.00363205 1.19004e-26)
(1.01622 -0.00180058 0)
(1.0159 -0.00475109 0)
(0.956179 -0.00167533 0)
(0.933329 -0.00483586 0)
(1.00889 -0.00173574 -2.78645e-26)
(1.01039 -0.0040855 -5.24604e-26)
(1.00727 -0.00228069 -4.94481e-26)
(1.00353 -0.00381611 -8.93399e-26)
(1.00028 -0.00266032 -6.68022e-26)
(0.997965 -0.00344472 0)
(0.996191 -0.00270047 -1.92001e-26)
(0.994787 -0.00305892 0)
(0.993802 -0.00248122 0)
(0.993127 -0.00263643 2.58454e-26)
(0.992648 -0.00214084 1.72059e-26)
(1.00503 -0.000723286 -1.92824e-26)
(1.0054 -0.00102466 -1.26579e-26)
(1.00597 -0.00123251 -4.05384e-27)
(1.00669 -0.00132169 3.59075e-27)
(1.00777 -0.00184898 -5.36451e-34)
(1.00897 -0.00156515 3.93272e-25)
(1.01057 -0.00263207 0)
(1.01251 -0.0017189 -2.57898e-26)
(1.01454 -0.00357113 3.49324e-27)
(1.01657 -0.00185137 -3.48475e-27)
(1.01592 -0.00460089 5.16726e-26)
(0.956137 -0.00171119 5.03616e-28)
(0.933329 -0.00465845 4.06029e-26)
(1.00865 -0.00171106 0)
(1.0105 -0.0038708 0)
(1.00729 -0.00217106 3.80864e-28)
(1.00356 -0.00364178 3.59738e-26)
(1.00022 -0.00251355 2.40726e-31)
(0.997901 -0.00330643 -3.14195e-26)
(0.996077 -0.002568 0)
(0.994653 -0.00294976 0)
(0.993642 -0.0023904 1.1499e-26)
(0.992951 -0.00255633 0)
(0.992458 -0.00209463 0)
(1.00521 -0.000760283 0)
(1.0056 -0.00105297 -2.00875e-26)
(1.00616 -0.00126445 -1.40256e-26)
(1.0069 -0.00134146 -2.31722e-26)
(1.00798 -0.00187336 0)
(1.00921 -0.00158251 0)
(1.01079 -0.00262952 0)
(1.01278 -0.00174663 -2.53299e-26)
(1.01477 -0.00351138 0)
(1.01689 -0.00190979 -3.00985e-27)
(1.01592 -0.00447403 1.96378e-26)
(0.956091 -0.00175445 -2.36959e-27)
(0.933314 -0.00452157 3.07873e-26)
(1.00838 -0.00171293 2.61617e-26)
(1.01059 -0.00369333 3.13003e-26)
(1.00731 -0.00209996 0)
(1.00359 -0.00349699 -2.82673e-26)
(1.00017 -0.00240537 -3.55162e-26)
(0.997846 -0.0031926 0)
(0.995975 -0.00246529 0)
(0.994534 -0.00286007 0)
(0.993496 -0.00231786 1.07515e-26)
(0.992791 -0.00248975 0)
(0.992282 -0.00205531 0)
(1.00538 -0.00079047 9.5276e-28)
(1.00579 -0.00107442 -1.63086e-26)
(1.00635 -0.00128725 3.29833e-27)
(1.00711 -0.00135673 0)
(1.00818 -0.0018876 2.41406e-26)
(1.00945 -0.00159941 3.18057e-27)
(1.011 -0.00261895 0)
(1.01304 -0.00177918 -1.20995e-26)
(1.01499 -0.00345553 1.3528e-27)
(1.01721 -0.00197707 -4.40982e-27)
(1.0159 -0.00437109 -2.11639e-27)
(0.956045 -0.00180794 -5.65335e-27)
(0.93329 -0.00442174 4.3539e-26)
(1.00807 -0.00174037 7.49745e-28)
(1.01067 -0.00354981 -6.53674e-28)
(1.00733 -0.0020624 2.00547e-26)
(1.00362 -0.00337872 4.036e-28)
(1.00013 -0.00233088 -2.51079e-27)
(0.997799 -0.00310052 0)
(0.99588 -0.00238967 -2.20595e-26)
(0.994427 -0.00278837 -1.82624e-26)
(0.993361 -0.00226308 0)
(0.992643 -0.00243679 2.24267e-26)
(0.992116 -0.00202415 2.50576e-27)
(1.00555 -0.000812422 0)
(1.00597 -0.00108851 -1.03716e-26)
(1.00654 -0.00130055 -4.30133e-27)
(1.00733 -0.00136811 -1.04991e-27)
(1.00838 -0.00189224 0)
(1.00968 -0.00161619 1.7947e-25)
(1.0112 -0.0026023 -4.61877e-26)
(1.0133 -0.00181624 -1.98608e-26)
(1.01521 -0.00340542 4.03979e-28)
(1.01753 -0.00205423 6.8559e-27)
(1.01587 -0.00429439 4.25156e-27)
(0.956005 -0.00187584 -1.98801e-26)
(0.933264 -0.00435793 1.29106e-26)
(1.00773 -0.00179354 5.90301e-28)
(1.01073 -0.00343746 -1.49721e-26)
(1.00734 -0.0020541 -1.26624e-26)
(1.00364 -0.00328415 9.84008e-28)
(1.00008 -0.00228596 -2.57913e-27)
(0.997756 -0.00302806 0)
(0.99579 -0.00233895 -1.42996e-26)
(0.99433 -0.00273363 -1.402e-26)
(0.993233 -0.00222578 0)
(0.992507 -0.00239768 8.04353e-27)
(0.991958 -0.0020025 -1.16805e-26)
(1.00571 -0.000824395 -8.11872e-27)
(1.00616 -0.00109454 9.32949e-27)
(1.00673 -0.00130378 -2.07182e-26)
(1.00755 -0.00137513 -7.79235e-28)
(1.00858 -0.00188753 1.65444e-26)
(1.00993 -0.00163275 1.90007e-25)
(1.01141 -0.00258062 -1.977e-26)
(1.01357 -0.00185689 -6.13749e-27)
(1.01545 -0.00336174 2.23895e-27)
(1.01786 -0.00213877 1.44235e-26)
(1.01583 -0.00424556 1.1115e-27)
(0.955971 -0.00196312 1.54106e-26)
(0.93324 -0.00432717 -4.62961e-27)
(1.00735 -0.00187345 0)
(1.01078 -0.00335685 -7.06415e-27)
(1.00734 -0.00207187 -6.09753e-27)
(1.00367 -0.00321089 5.85102e-28)
(1.00003 -0.00226679 0)
(0.997717 -0.00297293 1.38991e-27)
(0.995702 -0.00231083 1.98753e-27)
(0.994238 -0.0026945 -1.0063e-26)
(0.993108 -0.00220547 -1.24252e-26)
(0.992374 -0.00237243 5.33308e-27)
(0.9918 -0.00199163 0)
(1.00585 -0.000822354 -5.57032e-27)
(1.00633 -0.00109061 7.99253e-27)
(1.00689 -0.00129459 -7.27481e-27)
(1.00774 -0.00137704 0)
(1.00876 -0.00187208 0)
(1.01015 -0.00164818 -4.05885e-26)
(1.01159 -0.00255235 2.02312e-26)
(1.01382 -0.0018982 6.16902e-27)
(1.01566 -0.00332318 7.23321e-27)
(1.01817 -0.00223228 -2.45064e-27)
(1.01578 -0.00424415 -1.36379e-26)
(0.955944 -0.0020844 0)
(0.933227 -0.0043404 0)
(1.00697 -0.0019836 0)
(1.01081 -0.00329958 0)
(1.00733 -0.00210873 -8.50222e-28)
(1.00368 -0.00315524 0)
(0.999986 -0.0022707 0)
(0.997685 -0.00293389 1.29624e-27)
(0.995623 -0.00230515 0)
(0.994162 -0.00267109 0)
(0.992997 -0.00220342 0)
(0.992261 -0.00236252 4.83863e-27)
(0.99166 -0.0019944 0)
(1.00606 -0.00080717 0)
(1.00661 -0.00107907 -6.87016e-28)
(1.00712 -0.00127547 -2.19073e-27)
(1.00806 -0.00137601 -2.45799e-28)
(1.00901 -0.00184899 3.92645e-27)
(1.01052 -0.00166414 -7.64893e-26)
(1.01185 -0.00252146 3.76033e-27)
(1.01423 -0.00194173 3.97678e-30)
(1.01598 -0.00329118 2.83364e-33)
(1.01869 -0.00229447 -5.44646e-31)
(1.01578 -0.00425728 -1.75959e-26)
(0.955889 -0.00224484 0)
(0.933205 -0.00434585 -5.83907e-27)
(1.00636 -0.00212482 -2.37377e-26)
(1.0108 -0.00330821 1.50662e-26)
(1.00728 -0.00216659 2.01847e-27)
(1.00371 -0.00311467 0)
(0.999901 -0.00229046 0)
(0.997653 -0.00290484 0)
(0.995499 -0.00231498 0)
(0.994063 -0.00265785 0)
(0.992831 -0.00221471 0)
(0.992104 -0.00236393 3.19359e-27)
(0.991448 -0.00200933 0)
(1.07536 -0.0949674 1.92642e-26)
(1.11976 0.128826 7.00276e-26)
(1.01305 0.146273 3.02223e-25)
(1.11443 -0.027785 -3.48207e-26)
(1.1747 0.0365942 -1.08446e-26)
(1.13104 0.119215 -5.74244e-26)
(1.09885 0.0345448 -1.49072e-26)
(1.15449 -0.0604875 -1.53556e-25)
(1.17606 0.0233563 -4.56173e-26)
(1.05857 0.0637935 -7.87817e-26)
(1.09729 -0.10109 2.11632e-25)
(1.14853 -0.0685331 0)
(1.01584 0.0614463 7.05995e-30)
(1.03425 -0.103148 -1.48417e-25)
(1.08906 -0.103553 1.45053e-25)
(0.989781 0.0335196 0)
(0.678729 0.0151368 -9.6484e-26)
(0.565316 -0.0282786 1.44339e-25)
(0.992121 -0.0680419 8.16164e-25)
(1.02712 -0.100577 -2.23813e-25)
(0.982124 -0.101769 1.91435e-25)
(0.909305 0.0018408 4.37619e-26)
(0.998224 0.13855 4.38933e-25)
(0.960276 0.0664432 1.01656e-24)
(1.04429 -0.0481827 -1.27425e-25)
(1.07076 -0.0851152 5.49462e-27)
(1.00215 -0.0970823 -2.48268e-25)
(1.07577 0.239706 0)
(0.94834 0.225708 -2.43182e-25)
(1.1141 0.117706 0)
(1.07627 0.0665197 1.18526e-26)
(1.0403 0.0756294 -1.37764e-24)
(1.06615 -0.020128 1.27583e-25)
(1.10718 -0.0258428 -3.26495e-26)
(1.07822 -0.0787883 6.41247e-27)
(1.10224 -0.0635186 -6.03952e-27)
(1.13517 -0.0783109 5.48045e-27)
(1.10981 -0.119723 -7.33914e-27)
(1.17847 0.0966585 8.31099e-26)
(1.15677 0.169568 3.06547e-26)
(1.16571 0.0352734 5.00679e-27)
(1.10659 0.02572 -3.90066e-25)
(1.0866 0.0585239 1.47279e-25)
(1.06426 0.0112664 2.62857e-25)
(1.09459 0.0302729 1.31032e-26)
(1.10805 -0.0175286 -2.02998e-28)
(1.11207 0.00711592 2.14746e-30)
(1.139 0.0196124 -3.29812e-26)
(1.14994 -0.0231837 -5.26219e-28)
(1.1651 -0.0187032 2.30206e-27)
(1.18774 0.0482195 -3.90891e-26)
(1.15045 -0.0460992 -1.69919e-25)
(1.10396 -0.0218386 5.43433e-26)