/*--------------------------------*- C++ -*----------------------------------*\
| =========                 |                                                 |
| \\      /  F ield         | OpenFOAM: The Open Source CFD Toolbox           |
|  \\    /   O peration     | Version:  5.x                                   |
|   \\  /    A nd           | Web:      www.OpenFOAM.org                      |
|    \\/     M anipulation  |                                                 |
\*---------------------------------------------------------------------------*/
FoamFile
{
    version     2.0;
    format      ascii;
    class       volScalarField;
    location    "200";
    object      xf;
}
// * * * * * * * * * * * * * * * * * * * * * * * * * * * * * * * * * * * * * //

dimensions      [0 0 0 0 0 0 0];

internalField   nonuniform List<scalar> 
6584
(
0.106537
0.106537
0.106537
0.106537
0.106538
0.106538
0.106538
0.106538
0.106538
0.106538
0.106538
0.106538
0.106538
0.106538
0.106538
0.106538
0.106538
0.106538
0.106538
0.106538
0.106537
0.106537
0.106537
0.106537
0.106421
0.106421
0.106421
0.106421
0.106421
0.106422
0.106422
0.106422
0.106422
0.106422
0.106422
0.106422
0.106422
0.106422
0.106422
0.106422
0.106422
0.106422
0.106422
0.106422
0.106421
0.106421
0.106421
0.106421
0.106305
0.106305
0.106305
0.106305
0.106305
0.106305
0.106306
0.106306
0.106307
0.106364
0.106364
0.106364
0.106364
0.106364
0.106364
0.106307
0.106306
0.106306
0.106306
0.106305
0.106305
0.106305
0.106305
0.106305
0.106189
0.106189
0.106189
0.106189
0.106189
0.106189
0.10619
0.10619
0.106191
0.106249
0.106248
0.106248
0.106248
0.106248
0.106248
0.106249
0.10619
0.10619
0.10619
0.106189
0.106189
0.106189
0.106189
0.106189
0.106073
0.106073
0.106073
0.106073
0.106073
0.106073
0.106074
0.106074
0.106132
0.106132
0.106132
0.106131
0.106131
0.106131
0.106132
0.106132
0.106132
0.106075
0.106074
0.106074
0.106073
0.106073
0.106073
0.106073
0.105957
0.105957
0.105957
0.105957
0.105957
0.105958
0.105958
0.106016
0.106015
0.106015
0.106043
0.106042
0.106041
0.106043
0.106015
0.106017
0.106017
0.10596
0.105959
0.105958
0.105958
0.105957
0.105957
0.105957
0.105841
0.105841
0.105841
0.105841
0.105842
0.105842
0.105843
0.1059
0.1059
0.105899
0.105924
0.105936
0.105934
0.105923
0.105928
0.105901
0.105902
0.105845
0.105844
0.105843
0.105842
0.105842
0.105841
0.105841
0.105725
0.105725
0.105725
0.105726
0.105726
0.105727
0.105728
0.105785
0.105785
0.105785
0.105807
0.105812
0.105816
0.105813
0.105788
0.105788
0.105731
0.105729
0.105728
0.105727
0.105726
0.105726
0.105725
0.105609
0.105609
0.10561
0.10561
0.105611
0.105612
0.105614
0.105671
0.105671
0.105672
0.105695
0.105699
0.105703
0.105701
0.105676
0.105675
0.105618
0.105614
0.105613
0.105612
0.105611
0.10561
0.105609
0.105493
0.105494
0.105494
0.105495
0.105496
0.105497
0.1055
0.105556
0.105558
0.105561
0.105585
0.105593
0.1056
0.105594
0.105566
0.105563
0.105505
0.1055
0.105498
0.105496
0.105495
0.105494
0.105494
0.105378
0.105378
0.105379
0.105379
0.105381
0.105382
0.105385
0.105442
0.105445
0.105449
0.105475
0.105487
0.105497
0.105487
0.105456
0.105451
0.105391
0.105386
0.105383
0.105381
0.10538
0.105379
0.105378
0.105262
0.105262
0.105263
0.105264
0.105266
0.105268
0.105271
0.105328
0.105331
0.105337
0.105365
0.105378
0.105391
0.105378
0.105345
0.105339
0.105278
0.105272
0.105269
0.105266
0.105264
0.105263
0.105262
0.105146
0.105147
0.105148
0.105149
0.105151
0.105153
0.105157
0.105214
0.105218
0.105224
0.105252
0.105263
0.105277
0.105266
0.105233
0.105226
0.105164
0.105158
0.105154
0.105151
0.105149
0.105147
0.105146
0.105031
0.105031
0.105032
0.105034
0.105035
0.105038
0.105042
0.105043
0.105103
0.105108
0.105134
0.105139
0.0580248
0.105141
0.105151
0.10512
0.105112
0.10505
0.105043
0.105039
0.105035
0.105033
0.105032
0.105031
0.104915
0.104916
0.104917
0.104918
0.10492
0.104923
0.104926
0.104927
0.104986
0.104991
0.105017
0.105003
0.0897448
0.10502
0.105004
0.105004
0.104937
0.104934
0.104927
0.104923
0.10492
0.104917
0.104916
0.104914
0.104799
0.1048
0.104801
0.104803
0.104805
0.104807
0.10481
0.104811
0.10487
0.104876
0.104872
0.104884
0.0900576
0.104873
0.104887
0.104889
0.104822
0.104819
0.104811
0.104807
0.104804
0.104801
0.1048
0.104798
0.104683
0.104684
0.104685
0.104687
0.104689
0.104691
0.104695
0.104696
0.104699
0.10476
0.104755
0.10455
0.0966578
0.104754
0.10477
0.104773
0.104706
0.104703
0.104696
0.104691
0.104688
0.104685
0.104683
0.104682
0.104568
0.104569
0.10457
0.104572
0.104574
0.104576
0.104579
0.104581
0.104584
0.104585
0.104639
0.1043
0.0965869
0.104634
0.104598
0.104595
0.10459
0.104587
0.10458
0.104575
0.104571
0.104568
0.104567
0.104565
0.104452
0.104453
0.104454
0.104456
0.104458
0.10446
0.104464
0.104465
0.104468
0.104469
0.104434
0.0956006
0.100387
0.104463
0.104481
0.104479
0.104473
0.104471
0.104463
0.104458
0.104455
0.104452
0.10445
0.104448
0.104336
0.104337
0.104339
0.10434
0.104343
0.104345
0.104349
0.10435
0.104353
0.104353
0.104295
0.0955031
0.100272
0.104344
0.104365
0.104362
0.104357
0.104355
0.104347
0.104342
0.104338
0.104335
0.104333
0.104331
0.10422
0.104222
0.104223
0.104225
0.104227
0.104229
0.104234
0.104235
0.104238
0.104238
0.104157
0.095403
0.100156
0.104223
0.104248
0.104246
0.104241
0.104239
0.104231
0.104226
0.104222
0.104219
0.104217
0.104215
0.104105
0.104106
0.104107
0.104109
0.104112
0.104114
0.104118
0.10412
0.104123
0.104122
0.104022
0.0953009
0.100038
0.104103
0.104131
0.10413
0.104125
0.104123
0.104115
0.104109
0.104105
0.104102
0.1041
0.104098
0.103989
0.10399
0.103992
0.103994
0.103996
0.103999
0.104003
0.104005
0.104008
0.104006
0.103888
0.0951973
0.0999191
0.103983
0.104015
0.104014
0.104009
0.104006
0.103998
0.103993
0.103989
0.103986
0.103983
0.103981
0.103873
0.103874
0.103876
0.103878
0.103881
0.103883
0.103888
0.10389
0.103893
0.103891
0.103755
0.0950927
0.0997989
0.103862
0.103898
0.103897
0.103892
0.10389
0.103882
0.103876
0.103872
0.103869
0.103867
0.103864
0.103757
0.103759
0.10376
0.103763
0.103765
0.103768
0.103773
0.103775
0.103778
0.103775
0.103624
0.0949872
0.0996778
0.103741
0.103782
0.103781
0.103776
0.103774
0.103766
0.10376
0.103756
0.103752
0.10375
0.103747
0.103642
0.103643
0.103645
0.103647
0.10365
0.103653
0.103658
0.10366
0.103663
0.103659
0.103492
0.0948812
0.099557
0.103621
0.103665
0.103665
0.10366
0.103658
0.103649
0.103643
0.103639
0.103635
0.103633
0.103631
0.103526
0.103527
0.103529
0.103531
0.103534
0.103538
0.103543
0.103545
0.103548
0.103544
0.103358
0.0947755
0.0994379
0.103502
0.103549
0.103549
0.103544
0.103542
0.103533
0.103527
0.103523
0.103519
0.103517
0.103514
0.10341
0.103412
0.103413
0.103416
0.103419
0.103422
0.103428
0.10343
0.103433
0.103428
0.103226
0.0946692
0.0993182
0.103383
0.103433
0.103433
0.103428
0.103426
0.103417
0.103411
0.103406
0.103402
0.1034
0.103397
0.103294
0.103296
0.103298
0.1033
0.103304
0.103307
0.103313
0.103315
0.103318
0.103312
0.103094
0.0945626
0.0991982
0.103263
0.103316
0.103317
0.103312
0.10331
0.103301
0.103295
0.10329
0.103286
0.103283
0.103281
0.103179
0.10318
0.103182
0.103185
0.103188
0.103192
0.103198
0.1032
0.103204
0.103196
0.102963
0.0944557
0.0990778
0.103144
0.1032
0.103201
0.103196
0.103194
0.103185
0.103178
0.103173
0.103169
0.103167
0.103164
0.103063
0.103065
0.103067
0.103069
0.103073
0.103077
0.103083
0.103085
0.103089
0.10308
0.102832
0.0943486
0.0989573
0.103025
0.103084
0.103085
0.10308
0.103078
0.103069
0.103062
0.103057
0.103053
0.10305
0.103048
0.102947
0.102949
0.102951
0.102954
0.102957
0.102962
0.102968
0.10297
0.102974
0.102965
0.102703
0.0942413
0.0988365
0.102905
0.102967
0.102969
0.102964
0.102962
0.102952
0.102946
0.10294
0.102936
0.102934
0.102931
0.102832
0.102833
0.102835
0.102838
0.102842
0.102847
0.102853
0.102855
0.102859
0.102849
0.102573
0.0941339
0.0987157
0.102786
0.102851
0.102853
0.102848
0.102846
0.102836
0.102829
0.102824
0.10282
0.102817
0.102814
0.102716
0.102718
0.10272
0.102723
0.102727
0.102731
0.102738
0.10274
0.102744
0.102733
0.102444
0.0940264
0.098595
0.102667
0.102735
0.102737
0.102732
0.10273
0.10272
0.102713
0.102708
0.102703
0.1027
0.102698
0.1026
0.102602
0.102604
0.102607
0.102611
0.102616
0.102623
0.102626
0.102629
0.102617
0.102314
0.0939189
0.0984743
0.102547
0.102618
0.102621
0.102616
0.102614
0.102604
0.102597
0.102591
0.102587
0.102584
0.102581
0.102485
0.102487
0.102489
0.102492
0.102496
0.102501
0.102508
0.102511
0.102515
0.102501
0.102184
0.0938115
0.0983538
0.102428
0.102502
0.102505
0.102499
0.102498
0.102488
0.10248
0.102475
0.10247
0.102467
0.102465
0.105713
0.105715
0.105813
0.105606
0.105612
0.105702
0.105501
0.10551
0.105599
0.105392
0.105404
0.105497
0.105278
0.105291
0.10539
0.105155
0.0410873
0.0570058
0.105171
0.105277
0.105827
0.105934
0.105828
0.105936
0.105722
0.105715
0.105815
0.105755
0.105809
0.105717
0.105727
0.10581
0.105612
0.105607
0.105701
0.105659
0.10562
0.10569
0.105568
0.105683
0.105612
0.10562
0.1057
0.105503
0.105501
0.105594
0.105554
0.105416
0.105484
0.104583
0.105101
0.10551
0.105514
0.105593
0.105393
0.105392
0.105487
0.105447
0.105342
0.105369
0.104858
0.104614
0.105404
0.105407
0.105487
0.104795
0.105005
0.105292
0.105296
0.105379
0.104666
0.104737
0.105033
0.0566348
0.0414535
0.0787566
0.105039
0.105155
0.105699
0.105752
0.105754
0.10575
0.105685
0.105811
0.105757
0.105689
0.105751
0.105755
0.10575
0.105697
0.105497
0.105606
0.105646
0.10552
0.105193
0.105671
0.105537
0.105131
0.105561
0.10565
0.1056
0.105451
0.105692
0.105606
0.105663
0.105373
0.10541
0.10554
0.105027
0.105097
0.105176
0.105027
0.10462
0.104544
0.105548
0.105346
0.105309
0.105446
0.105353
0.105561
0.10498
0.105066
0.105104
0.104965
0.105003
0.104887
0.105444
0.105274
0.105297
0.105301
0.105272
0.105458
0.10512
0.105123
0.105075
0.105117
0.104746
0.104792
0.105291
0.105241
0.105349
0.105097
0.104925
0.105122
0.105102
0.104475
0.104656
0.105768
0.105759
0.105813
0.105769
0.105804
0.10528
0.105278
0.105378
0.105335
0.105275
0.105308
0.102309
0.101694
0.105172
0.105182
0.105268
0.105807
0.105773
0.105812
0.105757
0.105769
0.105312
0.105338
0.105433
0.0683385
0.0730597
0.0906479
0.0939771
0.0732253
0.0795024
0.101581
0.10062
0.105335
0.105233
0.105168
0.0943917
0.0965097
0.105158
0.105081
0.105232
0.105875
0.105869
0.105819
0.105818
0.105869
0.105875
0.105765
0.105777
0.105767
0.105806
0.105771
0.105785
0.105617
0.105636
0.104855
0.104886
0.104804
0.104751
0.1048
0.100725
0.104999
0.102813
0.102381
0.102491
0.102886
0.104708
0.105412
0.105727
0.104783
0.105622
0.104602
0.105718
0.10565
0.10577
0.105779
0.105762
0.105501
0.105719
0.105724
0.105348
0.105327
0.105628
0.105618
0.105318
0.105343
0.105492
0.105627
0.105647
0.105601
0.10562
0.105487
0.105655
0.10568
0.1057
0.105653
0.105673
0.105646
0.105058
0.105061
0.105078
0.105067
0.104129
0.104186
0.105288
0.105524
0.105543
0.105499
0.105518
0.105279
0.105405
0.105575
0.105594
0.105549
0.105569
0.105398
0.0691743
0.105022
0.0764212
0.0713291
0.0828899
0.0766665
0.105034
0.1049
0.0721498
0.104915
0.10498
0.104969
0.105282
0.105473
0.105492
0.105447
0.105466
0.105287
0.0860111
0.0899468
0.105098
0.0884668
0.0832953
0.0929508
0.0890438
0.105104
0.0801029
0.0854238
0.104768
0.101769
0.102416
0.100824
0.101648
0.104774
0.1004
0.0959744
0.0966946
0.0509656
0.096753
0.0956785
0.0736756
0.102777
0.102852
0.105796
0.105165
0.105158
0.105263
0.105219
0.105188
0.10523
0.0772268
0.103977
0.104174
0.105797
0.10523
0.10527
0.105321
0.0607514
0.0617737
0.0323256
0.0952469
0.0948946
0.0631314
0.0653926
0.102339
0.102755
0.0412913
0.105838
0.10584
0.105811
0.105809
0.105839
0.105837
0.105653
0.105674
0.105654
0.105581
0.105606
0.105663
0.10544
0.105566
0.105546
0.105593
0.105573
0.105449
0.104707
0.105013
0.104818
0.104578
0.0978645
0.0969823
0.104698
0.102928
0.103227
0.104648
0.104591
0.0552483
0.105787
0.105776
0.105809
0.105702
0.105655
0.10562
0.105728
0.105735
0.105757
0.105707
0.105728
0.105721
0.105542
0.10562
0.1056
0.105647
0.105627
0.105557
0.105445
0.102963
0.104481
0.101579
0.101908
0.105248
0.104633
0.10481
0.105576
0.105214
0.105426
0.105543
0.105629
0.105636
0.105583
0.105594
0.105467
0.10554
0.10552
0.105392
0.105044
0.100436
0.0995835
0.105129
0.101109
0.101484
0.0994594
0.0997116
0.105034
0.104415
0.104382
0.105323
0.105516
0.105525
0.105473
0.10549
0.1053
0.105429
0.105568
0.105579
0.105528
0.105538
0.105373
0.104991
0.102907
0.103172
0.10282
0.102552
0.10493
0.105318
0.10542
0.10544
0.105393
0.105414
0.105314
0.105125
0.0960076
0.0933892
0.0991768
0.0983567
0.105125
0.0725276
0.0736803
0.105116
0.100086
0.0994327
0.0711484
0.072208
0.0989818
0.0980927
0.105783
0.105796
0.105788
0.0972629
0.102077
0.0979313
0.0983089
0.0982273
0.101998
0.105792
0.105786
0.105801
0.10578
0.105787
0.0685844
0.0703215
0.0623637
0.0611262
0.0922257
0.0670468
0.0663529
0.0694851
0.0672526
0.0926495
0.07461
0.0758803
0.101204
0.101038
0.0954485
0.0732546
0.0707989
0.0655399
0.0666317
0.105753
0.105762
0.105775
0.105744
0.105758
0.105748
0.105586
0.105658
0.104741
0.104982
0.104826
0.104582
0.10097
0.103061
0.10288
0.103253
0.103122
0.100922
0.102483
0.102369
0.102832
0.102575
0.102662
0.0995533
0.100073
0.098653
0.0992977
0.102598
0.0964957
0.0970034
0.105186
0.105698
0.105655
0.105742
0.105711
0.105292
0.105441
0.10536
0.105627
0.105474
0.105738
0.105763
0.105748
0.105728
0.105702
0.1057
0.105665
0.105706
0.105681
0.105723
0.10574
0.105689
0.105717
0.105736
0.105724
0.105705
0.102375
0.102716
0.105417
0.10038
0.099092
0.103293
0.10062
0.0971094
0.0957419
0.0986849
0.0977063
0.105268
0.102024
0.102284
0.104561
0.104266
0.105321
0.104793
0.103924
0.103614
0.104211
0.104004
0.105587
0.104853
0.104973
0.105241
0.10541
0.105613
0.105625
0.105519
0.105472
0.105598
0.105609
0.100598
0.100574
0.105049
0.0923371
0.0922843
0.0872577
0.0917237
0.0917162
0.0932126
0.0921322
0.0917553
0.100569
0.100986
0.105115
0.0934128
0.0918249
0.0954212
0.0938792
0.0886516
0.0870698
0.0911887
0.0894738
0.105043
0.0999192
0.100404
0.104254
0.104333
0.105504
0.105512
0.105314
0.105287
0.105493
0.105501
0.105554
0.105565
0.105423
0.105379
0.105541
0.105551
0.071074
0.0734718
0.0998127
0.100573
0.0988354
0.0995403
0.0715581
0.0803872
0.10158
0.0998709
0.100775
0.101386
0.0790128
0.0957255
0.0960492
0.0941483
0.0955981
0.0747943
0.0979089
0.0986526
0.0962621
0.097494
0.0750893
0.102771
0.102859
0.104989
0.101969
0.102292
0.102311
0.101945
0.102341
0.104932
0.102451
0.102639
0.0875261
0.0614223
0.0625946
0.0656186
0.0616614
0.0880957
0.062622
0.0819166
0.0630078
0.0828258
0.101242
0.103413
0.103297
0.103556
0.103453
0.101306
0.100065
0.100206
0.0742783
0.0756047
0.06764
0.0706435
0.0995699
0.0991865
0.105831
0.105839
0.105926
0.105217
0.105119
0.105014
0.105821
0.105822
0.105804
0.105801
0.105821
0.10582
0.105874
0.105871
0.105821
0.105702
0.105681
0.105663
0.105572
0.105454
0.105433
0.104623
0.105071
0.105487
0.105467
0.105357
0.103899
0.103794
0.104601
0.103219
0.103315
0.105
0.105723
0.10573
0.105709
0.105542
0.105598
0.105697
0.105743
0.105729
0.10574
0.105661
0.105314
0.105517
0.105159
0.105412
0.105388
0.105547
0.105527
0.105531
0.105457
0.105644
0.105652
0.105619
0.105387
0.105513
0.105493
0.100895
0.100549
0.105077
0.104608
0.104082
0.104
0.104505
0.105339
0.105458
0.105461
0.10544
0.105518
0.105522
0.105464
0.105468
0.105359
0.104871
0.101483
0.101091
0.105271
0.105461
0.105467
0.105273
0.105366
0.105386
0.0570757
0.0568278
0.10076
0.100279
0.105113
0.0576095
0.0573363
0.10325
0.103293
0.104613
0.105773
0.105773
0.067752
0.0661923
0.067054
0.0727484
0.0734184
0.0645282
0.0653249
0.0697923
0.0689603
0.0786275
0.0998441
0.0996724
0.100756
0.0751722
0.0736514
0.0957354
0.105843
0.105841
0.105812
0.10576
0.105761
0.105764
0.105769
0.105734
0.105739
0.105779
0.105793
0.105786
0.105556
0.105544
0.105602
0.105646
0.10562
0.105603
0.104811
0.104917
0.103913
0.103955
0.104832
0.104683
0.103613
0.103774
0.10116
0.101183
0.10175
0.101673
0.100735
0.101259
0.10134
0.105
0.103369
0.103521
0.105331
0.104982
0.105437
0.105377
0.105695
0.105667
0.105565
0.104011
0.103803
0.10523
0.104832
0.104296
0.105775
0.105767
0.10575
0.105752
0.105725
0.105741
0.105572
0.105716
0.105727
0.105012
0.105202
0.105654
0.103516
0.103257
0.105293
0.105368
0.105674
0.105682
0.105672
0.105624
0.105659
0.105667
0.105073
0.100535
0.100575
0.104101
0.104237
0.105494
0.105498
0.105411
0.105392
0.105486
0.10549
0.0700564
0.0760742
0.0862208
0.0866991
0.0807891
0.0811176
0.0706057
0.101724
0.101547
0.104885
0.0757428
0.0748676
0.0809666
0.0808309
0.0730623
0.0805272
0.0806445
0.0743182
0.0745197
0.10545
0.105455
0.105266
0.105281
0.105439
0.105445
0.0858614
0.100725
0.101001
0.100152
0.100434
0.0849593
0.102056
0.103425
0.103584
0.103493
0.103461
0.102158
0.100996
0.10198
0.101859
0.100168
0.0999116
0.100464
0.0573595
0.0592823
0.0593486
0.0588475
0.0974017
0.0784539
0.0760016
0.0804403
0.0790323
0.0953555
0.0949062
0.095165
0.100214
0.100676
0.102947
0.105794
0.105798
0.10579
0.0605458
0.0608193
0.0728044
0.0716336
0.0334728
0.064484
0.06157
0.0617623
0.0604551
0.0610707
0.0651189
0.0406606
0.0984541
0.0994899
0.105825
0.105823
0.105803
0.105494
0.105474
0.105577
0.105576
0.105618
0.105652
0.105597
0.105609
0.104668
0.105042
0.102899
0.103009
0.102955
0.102871
0.104587
0.103697
0.10361
0.0976761
0.0959513
0.0958567
0.0963561
0.0962352
0.0974305
0.105645
0.105675
0.10568
0.105664
0.105671
0.105633
0.105186
0.105512
0.105363
0.105306
0.105462
0.105535
0.105539
0.104173
0.104152
0.104554
0.104436
0.105451
0.105454
0.105331
0.10551
0.105514
0.105434
0.105366
0.105472
0.105475
0.102771
0.103266
0.103121
0.103327
0.103314
0.102682
0.0566372
0.0566308
0.0582945
0.0578952
0.0715365
0.0634899
0.0632871
0.095942
0.095996
0.0987079
0.0965768
0.096967
0.0959089
0.0961756
0.0983906
0.105781
0.105777
0.105778
0.105781
0.105793
0.105794
0.105799
0.105785
0.105788
0.105789
0.0978069
0.0999679
0.0998452
0.100335
0.100142
0.0979388
0.0988045
0.0994008
0.0991593
0.0997521
0.0996293
0.0985519
0.10579
0.105792
0.105787
0.105764
0.105751
0.105781
0.105776
0.0676282
0.0719947
0.0677737
0.0680445
0.0619721
0.0615471
0.0744784
0.0750444
0.0667003
0.0641759
0.0639873
0.0738097
0.0651663
0.0645878
0.0653165
0.0773529
0.0671987
0.0653674
0.0999244
0.100152
0.101353
0.099226
0.0993084
0.0990395
0.0990874
0.100882
0.0995981
0.0996926
0.0656993
0.0592283
0.0598185
0.0588122
0.0588107
0.0660075
0.105756
0.10576
0.105757
0.105739
0.105744
0.105752
0.105494
0.105593
0.10553
0.105512
0.105568
0.105583
0.105533
0.105551
0.104776
0.104949
0.103304
0.103396
0.103105
0.103204
0.104834
0.103958
0.103948
0.103542
0.103529
0.104621
0.103441
0.101386
0.101227
0.100824
0.101614
0.101535
0.102426
0.101481
0.101458
0.101744
0.101592
0.102396
0.102771
0.101874
0.101952
0.101552
0.10172
0.102681
0.101377
0.0988624
0.100645
0.100507
0.0964104
0.0966339
0.105149
0.105495
0.105466
0.105085
0.105385
0.105599
0.105538
0.104342
0.104165
0.104981
0.105028
0.105388
0.104736
0.104539
0.105652
0.105687
0.105741
0.105712
0.105605
0.105482
0.105603
0.105692
0.105703
0.105709
0.105686
0.105694
0.105672
0.105649
0.10567
0.105728
0.105719
0.105713
0.105735
0.105724
0.105733
0.105697
0.105705
0.10569
0.105703
0.10007
0.0995514
0.10254
0.0992946
0.0997507
0.0985357
0.100855
0.0965903
0.0961335
0.0983321
0.0980366
0.104416
0.103213
0.103506
0.102656
0.102922
0.10433
0.105254
0.104771
0.10491
0.103674
0.104447
0.105104
0.103021
0.102623
0.103843
0.100774
0.101079
0.10025
0.100511
0.103752
0.104155
0.102229
0.102427
0.101423
0.101806
0.104082
0.105268
0.105391
0.0924969
0.0867399
0.0876997
0.0847058
0.0856705
0.0924287
0.0883982
0.0881958
0.0883047
0.0901554
0.0918899
0.0795868
0.0804001
0.0809999
0.0796956
0.0923851
0.0919929
0.0830311
0.0838265
0.0814559
0.0823162
0.0918701
0.093036
0.0925694
0.095076
0.0944299
0.087935
0.0873276
0.09065
0.0902058
0.104137
0.104285
0.105417
0.105502
0.105506
0.105479
0.105483
0.105386
0.0708041
0.0843488
0.0854793
0.0752738
0.070486
0.0818386
0.0830089
0.0777755
0.07672
0.0958182
0.0856623
0.0857461
0.0949095
0.0848004
0.0829806
0.085762
0.0855424
0.0953662
0.0801309
0.0789118
0.0794519
0.080235
0.0740006
0.0756191
0.0776104
0.10282
0.103688
0.103647
0.103726
0.103707
0.102838
0.10207
0.102205
0.102175
0.101872
0.101828
0.102024
0.10242
0.103386
0.103341
0.103568
0.10347
0.10249
0.0617011
0.068656
0.0690615
0.0681978
0.0684161
0.0621385
0.0641269
0.072409
0.0736294
0.0698309
0.0710247
0.0626456
0.0625077
0.0628221
0.0629747
0.063869
0.0632573
0.0635763
0.0671004
0.0678436
0.0639733
0.0655465
0.0637664
0.10216
0.102084
0.101157
0.100037
0.100364
0.0571157
0.058151
0.068829
0.0608992
0.0595324
0.0629573
0.0622768
0.0698948
0.0589195
0.0587083
0.0954051
0.0955772
0.106073
0.106073
0.106131
0.106072
0.106071
0.106131
0.106071
0.106071
0.106131
0.106072
0.106073
0.106132
0.105956
0.105955
0.106014
0.105954
0.105953
0.106043
0.105951
0.10595
0.106041
0.10595
0.105951
0.106042
0.105953
0.105955
0.106044
0.105957
0.105958
0.106016
0.105841
0.105839
0.105926
0.105836
0.10583
0.105922
0.105889
0.105888
0.105935
0.105884
0.105885
0.105934
0.105892
0.105894
0.105923
0.105841
0.105845
0.105901
0.105728
0.105725
0.10581
0.105779
0.105778
0.105807
0.105797
0.105796
0.105811
0.105772
0.105779
0.105821
0.105729
0.105733
0.105789
0.105616
0.105613
0.105697
0.105667
0.105667
0.105694
0.105686
0.105686
0.105699
0.105664
0.105669
0.105709
0.105621
0.105624
0.105678
0.105505
0.105503
0.105586
0.105558
0.105558
0.105585
0.10558
0.10558
0.105593
0.105562
0.105564
0.105603
0.105514
0.105515
0.10557
0.105393
0.105393
0.105476
0.105448
0.10545
0.105477
0.105474
0.105474
0.105487
0.105458
0.105459
0.105498
0.105406
0.105406
0.105461
0.105281
0.10528
0.105365
0.105364
0.105363
0.105377
0.105349
0.105349
0.10539
0.105295
0.105295
0.105351
0.105167
0.105165
0.105251
0.105233
0.105237
0.105265
0.10518
0.105182
0.105239
0.105049
0.105045
0.105104
0.105046
0.105039
0.105128
0.105094
0.10504
0.105089
0.0612443
0.101524
0.101826
0.105051
0.105065
0.105153
0.105063
0.105068
0.105125
0.104934
0.104929
0.104987
0.10493
0.104921
0.105009
0.104914
0.0726761
0.0722141
0.0900136
0.104914
0.105008
0.104929
0.104946
0.105034
0.104945
0.104951
0.105009
0.104813
0.104808
0.104867
0.104675
0.0871457
0.0727889
0.0966822
0.10468
0.104882
0.104813
0.104828
0.104887
0.105713
0.105726
0.105727
0.105728
0.105733
0.105711
0.105812
0.105797
0.105798
0.105606
0.105619
0.105619
0.105625
0.105624
0.105604
0.105704
0.105684
0.105689
0.105501
0.105514
0.105514
0.105523
0.105521
0.105502
0.105598
0.105578
0.105586
0.105391
0.105405
0.105405
0.105418
0.105417
0.105398
0.105495
0.105476
0.105484
0.105306
0.105302
0.105287
0.105385
0.105371
0.105377
0.105105
0.105173
0.105203
0.0335761
0.0667096
0.0665667
0.0892839
0.0894353
0.0405187
0.105273
0.105258
0.105262
0.105821
0.105871
0.105873
0.105806
0.105806
0.105802
0.105934
0.105886
0.105884
0.105805
0.105806
0.105843
0.105842
0.105827
0.105936
0.105888
0.105889
0.105722
0.10575
0.105751
0.105757
0.105749
0.105721
0.105805
0.105777
0.105771
0.105762
0.105761
0.105748
0.105808
0.105799
0.105801
0.105723
0.105764
0.105758
0.105754
0.105754
0.105727
0.105809
0.105782
0.105782
0.105613
0.10564
0.105639
0.105647
0.10564
0.105613
0.105694
0.105667
0.10566
0.105659
0.105672
0.105672
0.105632
0.105651
0.105643
0.105696
0.105689
0.105682
0.105672
0.105658
0.105676
0.105616
0.105656
0.105651
0.105646
0.105647
0.105621
0.1057
0.105674
0.105673
0.105504
0.105531
0.10553
0.105541
0.105533
0.105506
0.105586
0.105559
0.105554
0.105553
0.105567
0.105567
0.105424
0.105519
0.105513
0.105564
0.105556
0.105471
0.105512
0.105551
0.105549
0.10554
0.105543
0.105516
0.105595
0.105569
0.105567
0.105395
0.105422
0.10542
0.105433
0.105424
0.105396
0.105479
0.105451
0.105447
0.105447
0.10546
0.10546
0.105353
0.10546
0.10544
0.105456
0.105449
0.105365
0.104832
0.103976
0.104053
0.105405
0.105445
0.105445
0.105434
0.105437
0.10541
0.10549
0.105463
0.105461
0.104798
0.103697
0.103775
0.104549
0.104556
0.105004
0.105294
0.105322
0.105335
0.105324
0.105327
0.105299
0.105382
0.105355
0.105352
0.104677
0.104084
0.104079
0.104097
0.104097
0.104728
0.104998
0.105024
0.105063
0.0556366
0.104569
0.104484
0.094928
0.0948468
0.0425989
0.103929
0.103962
0.0776997
0.10507
0.104749
0.104835
0.104972
0.104769
0.105107
0.105707
0.105711
0.105704
0.105758
0.105737
0.10573
0.10574
0.10574
0.105754
0.105742
0.105731
0.10575
0.105803
0.105801
0.105809
0.105755
0.105762
0.105764
0.105693
0.105685
0.10568
0.10575
0.105746
0.105747
0.105754
0.10574
0.105742
0.105743
0.105745
0.105752
0.105702
0.105709
0.105706
0.105512
0.105581
0.105572
0.105634
0.105625
0.10559
0.105633
0.105632
0.105646
0.105499
0.105317
0.105368
0.10469
0.10472
0.105211
0.105404
0.105431
0.105551
0.10565
0.10563
0.105637
0.105592
0.105616
0.105622
0.105677
0.105689
0.105696
0.105627
0.105631
0.10561
0.105676
0.105677
0.105657
0.105377
0.105468
0.105462
0.105506
0.105499
0.105404
0.105527
0.105527
0.10554
0.105033
0.104395
0.10438
0.104555
0.104535
0.105089
0.10516
0.104633
0.104661
0.104373
0.104374
0.105026
0.105546
0.105527
0.105535
0.105429
0.10543
0.105313
0.105574
0.105572
0.105553
0.104995
0.102959
0.102686
0.104133
0.104075
0.105056
0.105111
0.104597
0.104576
0.102605
0.102313
0.104949
0.105
0.104517
0.104536
0.104143
0.104215
0.104911
0.105443
0.105423
0.105431
0.105274
0.105416
0.105422
0.105378
0.105385
0.105302
0.105291
0.105423
0.105426
0.105427
0.105433
0.105274
0.105471
0.105469
0.10545
0.105122
0.104566
0.104536
0.104699
0.104682
0.105124
0.105083
0.104239
0.104186
0.104503
0.104466
0.105113
0.104754
0.104092
0.104095
0.103799
0.103858
0.104787
0.105285
0.105365
0.105372
0.105338
0.105359
0.105264
0.105363
0.105358
0.105344
0.10508
0.101193
0.100891
0.0999618
0.100873
0.10506
0.105121
0.104729
0.104715
0.104589
0.103289
0.103264
0.105768
0.105782
0.105783
0.105782
0.105787
0.105766
0.10581
0.105795
0.105789
0.105802
0.105796
0.105798
0.105321
0.105312
0.105284
0.105368
0.10534
0.105335
0.105335
0.105349
0.105349
0.10529
0.105341
0.105327
0.105369
0.105355
0.105294
0.102232
0.101362
0.101484
0.100599
0.100776
0.101807
0.105178
0.105208
0.105218
0.105802
0.1058
0.105805
0.105767
0.105774
0.105778
0.105787
0.105794
0.105817
0.105764
0.105787
0.10578
0.105784
0.105783
0.105769
0.105324
0.105406
0.105383
0.105433
0.105413
0.105327
0.105419
0.105419
0.105433
0.0912434
0.083537
0.0829247
0.0868475
0.0861771
0.0935232
0.101472
0.100296
0.100432
0.10533
0.105316
0.10532
0.105206
0.10531
0.105331
0.105279
0.105302
0.105197
0.0947889
0.0881683
0.0875248
0.090946
0.0905147
0.0962586
0.105125
0.10525
0.105265
0.10522
0.105235
0.105115
0.105247
0.105243
0.105229
0.105876
0.105849
0.105848
0.105852
0.105851
0.105877
0.105814
0.105842
0.105844
0.105826
0.105825
0.105816
0.105877
0.10585
0.105852
0.105847
0.105849
0.105876
0.105778
0.105765
0.10577
0.105791
0.105797
0.105806
0.105774
0.105778
0.105776
0.105793
0.105791
0.105783
0.103554
0.103663
0.104799
0.105
0.104598
0.104605
0.102769
0.102144
0.102214
0.101597
0.101697
0.102447
0.102689
0.103545
0.103521
0.103583
0.103565
0.102742
0.104718
0.104096
0.104094
0.105698
0.105724
0.105735
0.105708
0.105619
0.105684
0.105676
0.105725
0.105711
0.105774
0.105769
0.105764
0.105772
0.10577
0.105777
0.105715
0.10571
0.105715
0.105728
0.105724
0.10572
0.104955
0.104993
0.105369
0.105307
0.104885
0.104919
0.105565
0.105583
0.105637
0.105608
0.105529
0.105547
0.105561
0.105567
0.105498
0.105633
0.105629
0.105623
0.105643
0.105636
0.10564
0.105607
0.105602
0.105596
0.105616
0.105609
0.105614
0.105483
0.105552
0.105556
0.105666
0.105671
0.105662
0.105687
0.105684
0.105678
0.105698
0.105691
0.105694
0.10566
0.105657
0.10565
0.105671
0.105664
0.105667
0.105637
0.105655
0.10566
0.104464
0.104459
0.105055
0.105064
0.104477
0.10447
0.104481
0.104504
0.105089
0.105058
0.10444
0.10446
0.105437
0.10544
0.105297
0.10553
0.105525
0.105518
0.105537
0.105531
0.105537
0.105505
0.105499
0.105493
0.105512
0.105506
0.105511
0.105274
0.105431
0.105434
0.105581
0.105576
0.105569
0.105589
0.105582
0.105588
0.105556
0.10555
0.105544
0.105563
0.105556
0.105562
0.103871
0.103054
0.10501
0.0823633
0.0912145
0.0917986
0.0870956
0.0875454
0.0770547
0.105046
0.104007
0.103939
0.104932
0.102183
0.101807
0.104416
0.104439
0.104988
0.104954
0.104334
0.104378
0.105411
0.105411
0.105275
0.105479
0.105474
0.105468
0.105487
0.105481
0.105486
0.105453
0.105449
0.105442
0.105462
0.105455
0.10546
0.10529
0.105408
0.10541
0.0865218
0.0776527
0.0771852
0.0821731
0.0812731
0.0893501
0.10434
0.104291
0.105091
0.0877419
0.0954719
0.0959242
0.0922649
0.0927498
0.0837165
0.0912493
0.101684
0.101885
0.101242
0.101466
0.0906421
0.105109
0.104426
0.104385
0.0806147
0.070496
0.0701923
0.0765956
0.0757273
0.084694
0.104083
0.104088
0.104761
0.101866
0.102605
0.102537
0.103017
0.102967
0.102338
0.102458
0.102373
0.101512
0.10478
0.104065
0.104075
0.0962515
0.082198
0.0808652
0.0837665
0.0827158
0.0965115
0.0969854
0.0918109
0.0913831
0.102746
0.100802
0.101072
0.10228
0.102343
0.102887
0.10519
0.105197
0.105166
0.105255
0.105226
0.105219
0.105202
0.105226
0.105211
0.105256
0.105241
0.105216
0.0998853
0.099829
0.0766481
0.103998
0.103089
0.10308
0.103132
0.103111
0.104048
0.105248
0.105285
0.10527
0.105313
0.105299
0.105253
0.105307
0.105306
0.105321
0.0532022
0.0499053
0.0332948
0.0949424
0.0836881
0.0810747
0.0837869
0.0836992
0.0948829
0.102624
0.0989401
0.0982752
0.100983
0.101433
0.102751
0.0410319
0.0730236
0.0811065
0.105838
0.105828
0.105827
0.10583
0.10583
0.10584
0.105807
0.105825
0.105821
0.105814
0.105813
0.105808
0.105839
0.105828
0.10583
0.105826
0.105827
0.105838
0.105666
0.105659
0.105643
0.105668
0.105665
0.105672
0.10565
0.105658
0.105661
0.105669
0.105647
0.105639
0.105533
0.105526
0.105431
0.105559
0.105552
0.105558
0.105538
0.105545
0.105553
0.105586
0.105579
0.105586
0.105565
0.105572
0.105579
0.10546
0.105548
0.10554
0.103938
0.103939
0.104816
0.104091
0.104088
0.104687
0.103172
0.103609
0.103597
0.103627
0.103619
0.103201
0.104631
0.101483
0.0999888
0.101387
0.101452
0.104612
0.054827
0.0887363
0.0883486
0.105785
0.105793
0.105795
0.10579
0.105791
0.105783