/*--------------------------------*- C++ -*----------------------------------*\
| =========                 |                                                 |
| \\      /  F ield         | OpenFOAM: The Open Source CFD Toolbox           |
|  \\    /   O peration     | Version:  5.x                                   |
|   \\  /    A nd           | Web:      www.OpenFOAM.org                      |
|    \\/     M anipulation  |                                                 |
\*---------------------------------------------------------------------------*/
FoamFile
{
    version     2.0;
    format      ascii;
    class       volScalarField;
    location    "200";
    object      Y;
}
// * * * * * * * * * * * * * * * * * * * * * * * * * * * * * * * * * * * * * //

dimensions      [0 0 0 0 0 0 0];

internalField   nonuniform List<scalar> 
6584
(
0.00632781
0.00632781
0.00632781
0.00632781
0.00632781
0.00632781
0.00632781
0.00632782
0.00632782
0.00632782
0.00632782
0.00632782
0.00632782
0.00632782
0.00632782
0.00632782
0.00632782
0.00632781
0.00632781
0.00632781
0.00632781
0.00632781
0.00632781
0.00632781
0.00632561
0.00632561
0.00632561
0.00632562
0.00632562
0.00632562
0.00632562
0.00632563
0.00632563
0.00632563
0.00632563
0.00632563
0.00632564
0.00632563
0.00632563
0.00632563
0.00632563
0.00632563
0.00632562
0.00632562
0.00632562
0.00632561
0.00632561
0.00632561
0.00632341
0.00632342
0.00632342
0.00632342
0.00632342
0.00632342
0.00632343
0.00632344
0.00632345
0.00632454
0.00632454
0.00632454
0.00632454
0.00632454
0.00632454
0.00632345
0.00632344
0.00632344
0.00632343
0.00632343
0.00632342
0.00632342
0.00632342
0.00632341
0.00632122
0.00632122
0.00632122
0.00632123
0.00632123
0.00632123
0.00632124
0.00632125
0.00632126
0.00632235
0.00632235
0.00632234
0.00632234
0.00632235
0.00632235
0.00632235
0.00632125
0.00632124
0.00632124
0.00632123
0.00632123
0.00632123
0.00632122
0.00632122
0.00631902
0.00631903
0.00631903
0.00631903
0.00631904
0.00631904
0.00631904
0.00631904
0.00632015
0.00632015
0.00632014
0.00632013
0.00632013
0.00632014
0.00632015
0.00632016
0.00632015
0.00631906
0.00631905
0.00631904
0.00631904
0.00631903
0.00631903
0.00631903
0.00631683
0.00631683
0.00631684
0.00631684
0.00631684
0.00631685
0.00631686
0.00631794
0.00631794
0.00631793
0.00631848
0.00631845
0.00631844
0.00631847
0.00631795
0.00631797
0.00631797
0.00631689
0.00631687
0.00631686
0.00631685
0.00631684
0.00631684
0.00631683
0.00631464
0.00631464
0.00631464
0.00631465
0.00631466
0.00631466
0.00631468
0.00631576
0.00631575
0.00631573
0.00631622
0.00631645
0.00631641
0.00631621
0.0063163
0.0063158
0.0063158
0.00631472
0.00631469
0.00631468
0.00631466
0.00631465
0.00631465
0.00631464
0.00631245
0.00631245
0.00631245
0.00631246
0.00631247
0.00631248
0.00631251
0.00631358
0.00631357
0.00631357
0.00631401
0.00631411
0.0063142
0.00631414
0.00631366
0.00631365
0.00631257
0.00631252
0.0063125
0.00631248
0.00631247
0.00631246
0.00631245
0.00631026
0.00631026
0.00631027
0.00631028
0.00631029
0.00631031
0.00631034
0.00631142
0.00631142
0.00631145
0.00631188
0.00631197
0.00631211
0.00631205
0.00631155
0.00631152
0.00631042
0.00631036
0.00631033
0.0063103
0.00631028
0.00631027
0.00631026
0.00630807
0.00630807
0.00630808
0.00630809
0.00630811
0.00630813
0.00630817
0.00630925
0.00630927
0.00630934
0.0063098
0.00630997
0.00631018
0.00631002
0.00630947
0.0063094
0.00630828
0.0063082
0.00630815
0.00630812
0.0063081
0.00630808
0.00630807
0.00630588
0.00630588
0.00630589
0.00630591
0.00630593
0.00630596
0.00630601
0.0063071
0.00630714
0.00630722
0.00630773
0.00630798
0.00630828
0.00630801
0.00630739
0.00630728
0.00630613
0.00630604
0.00630598
0.00630594
0.00630592
0.0063059
0.00630588
0.00630369
0.0063037
0.00630371
0.00630373
0.00630375
0.00630378
0.00630384
0.00630494
0.00630499
0.0063051
0.00630564
0.00630593
0.00630631
0.00630596
0.00630529
0.00630516
0.00630398
0.00630387
0.00630381
0.00630376
0.00630373
0.00630371
0.00630369
0.0063015
0.00630151
0.00630152
0.00630154
0.00630157
0.00630161
0.00630167
0.00630277
0.00630284
0.00630295
0.00630351
0.0063038
0.00630422
0.00630386
0.00630318
0.00630303
0.00630183
0.00630171
0.00630163
0.00630158
0.00630154
0.00630152
0.0063015
0.00629931
0.00629932
0.00629934
0.00629936
0.00629939
0.00629943
0.0062995
0.00629954
0.00630066
0.00630076
0.00630129
0.00630152
0.00488658
0.00630172
0.00630172
0.00630103
0.00630088
0.00629966
0.00629954
0.00629946
0.00629939
0.00629935
0.00629932
0.0062993
0.00629712
0.00629713
0.00629715
0.00629718
0.00629721
0.00629725
0.00629731
0.00629733
0.00629845
0.00629855
0.00629909
0.00629903
0.00592379
0.00629952
0.00629894
0.00629886
0.00629757
0.00629747
0.00629734
0.00629727
0.00629721
0.00629716
0.00629713
0.0062971
0.00629493
0.00629494
0.00629496
0.00629499
0.00629502
0.00629506
0.00629511
0.00629515
0.00629626
0.00629637
0.00629636
0.00629682
0.00594934
0.00629678
0.00629676
0.00629668
0.00629539
0.00629529
0.00629515
0.00629507
0.00629501
0.00629496
0.00629493
0.0062949
0.00629274
0.00629276
0.00629277
0.0062928
0.00629284
0.00629288
0.00629292
0.00629297
0.00629303
0.00629419
0.00629418
0.00628932
0.00612764
0.00629459
0.00629458
0.00629449
0.0062932
0.0062931
0.00629296
0.00629287
0.00629281
0.00629275
0.00629273
0.0062927
0.00629055
0.00629057
0.00629059
0.00629062
0.00629065
0.00629068
0.00629074
0.00629079
0.00629085
0.00629091
0.006292
0.00628487
0.00613
0.0062924
0.0062913
0.00629114
0.00629101
0.0062909
0.00629076
0.00629067
0.0062906
0.00629055
0.00629052
0.00629048
0.00628836
0.00628838
0.0062884
0.00628843
0.00628846
0.00628849
0.00628856
0.00628861
0.00628868
0.00628873
0.0062879
0.00608516
0.00621246
0.00628914
0.00628911
0.00628895
0.00628882
0.00628871
0.00628856
0.00628847
0.0062884
0.00628834
0.00628831
0.00628827
0.00628617
0.00628619
0.00628621
0.00628624
0.00628628
0.00628631
0.00628638
0.00628643
0.0062865
0.00628655
0.00628495
0.00608378
0.00621069
0.00628695
0.00628693
0.00628677
0.00628662
0.00628651
0.00628636
0.00628627
0.00628619
0.00628614
0.0062861
0.00628606
0.00628398
0.006284
0.00628402
0.00628405
0.00628409
0.00628413
0.0062842
0.00628426
0.00628433
0.00628437
0.00628202
0.00608234
0.00620884
0.00628476
0.00628475
0.00628458
0.00628443
0.00628431
0.00628416
0.00628406
0.00628399
0.00628393
0.00628389
0.00628385
0.00628179
0.00628181
0.00628183
0.00628187
0.00628191
0.00628195
0.00628202
0.00628208
0.00628216
0.00628219
0.00627911
0.00608085
0.00620693
0.00628257
0.00628257
0.0062824
0.00628224
0.00628211
0.00628196
0.00628186
0.00628178
0.00628172
0.00628168
0.00628164
0.0062796
0.00627962
0.00627964
0.00627968
0.00627972
0.00627976
0.00627984
0.00627991
0.00627999
0.00628
0.00627623
0.00607931
0.00620498
0.00628038
0.00628039
0.00628021
0.00628005
0.00627992
0.00627976
0.00627965
0.00627957
0.00627951
0.00627947
0.00627943
0.00627741
0.00627743
0.00627746
0.00627749
0.00627754
0.00627758
0.00627767
0.00627774
0.00627782
0.00627782
0.00627337
0.00607775
0.006203
0.0062782
0.00627821
0.00627803
0.00627786
0.00627772
0.00627756
0.00627745
0.00627737
0.0062773
0.00627726
0.00627721
0.00627522
0.00627524
0.00627527
0.00627531
0.00627536
0.0062754
0.00627549
0.00627556
0.00627566
0.00627564
0.00627053
0.00607615
0.00620099
0.00627601
0.00627603
0.00627585
0.00627567
0.00627552
0.00627536
0.00627524
0.00627516
0.00627509
0.00627505
0.006275
0.00627303
0.00627305
0.00627308
0.00627312
0.00627317
0.00627322
0.00627331
0.00627339
0.00627349
0.00627345
0.00626764
0.00607458
0.00619898
0.00627382
0.00627385
0.00627366
0.00627348
0.00627332
0.00627315
0.00627304
0.00627295
0.00627288
0.00627284
0.00627279
0.00627084
0.00627087
0.0062709
0.00627094
0.00627099
0.00627105
0.00627114
0.00627122
0.00627132
0.00627127
0.00626471
0.00607305
0.00619701
0.00627164
0.00627168
0.00627149
0.00627129
0.00627113
0.00627096
0.00627084
0.00627075
0.00627067
0.00627063
0.00627058
0.00626866
0.00626868
0.00626871
0.00626875
0.00626881
0.00626887
0.00626897
0.00626905
0.00626916
0.00626908
0.0062618
0.0060715
0.00619503
0.00626946
0.00626951
0.00626931
0.0062691
0.00626894
0.00626876
0.00626863
0.00626854
0.00626847
0.00626842
0.00626837
0.00626647
0.00626649
0.00626653
0.00626657
0.00626663
0.00626669
0.00626679
0.00626688
0.00626699
0.00626689
0.00625891
0.00606995
0.00619304
0.00626728
0.00626734
0.00626713
0.00626692
0.00626674
0.00626656
0.00626643
0.00626634
0.00626626
0.00626621
0.00626616
0.00626428
0.00626431
0.00626434
0.00626439
0.00626445
0.00626451
0.00626462
0.00626472
0.00626483
0.0062647
0.00625604
0.00606838
0.00619103
0.00626509
0.00626517
0.00626495
0.00626473
0.00626455
0.00626436
0.00626423
0.00626413
0.00626405
0.006264
0.00626395
0.00626209
0.00626212
0.00626216
0.0062622
0.00626227
0.00626234
0.00626245
0.00626255
0.00626267
0.00626251
0.00625318
0.0060668
0.00618903
0.00626291
0.00626299
0.00626277
0.00626254
0.00626236
0.00626216
0.00626203
0.00626192
0.00626184
0.00626179
0.00626174
0.00625991
0.00625994
0.00625997
0.00626002
0.00626009
0.00626016
0.00626028
0.00626039
0.00626051
0.00626031
0.00625033
0.00606522
0.00618702
0.00626072
0.00626082
0.00626059
0.00626036
0.00626016
0.00625996
0.00625982
0.00625972
0.00625963
0.00625958
0.00625953
0.00625772
0.00625775
0.00625779
0.00625784
0.00625791
0.00625799
0.00625811
0.00625822
0.00625835
0.00625812
0.00624749
0.00606363
0.00618501
0.00625854
0.00625865
0.00625842
0.00625817
0.00625797
0.00625777
0.00625762
0.00625751
0.00625742
0.00625737
0.00625732
0.00625554
0.00625557
0.00625561
0.00625566
0.00625573
0.00625582
0.00625594
0.00625606
0.00625619
0.00625592
0.00624465
0.00606205
0.006183
0.00625635
0.00625648
0.00625624
0.00625599
0.00625578
0.00625557
0.00625542
0.0062553
0.00625522
0.00625516
0.00625511
0.00625335
0.00625338
0.00625342
0.00625348
0.00625355
0.00625364
0.00625378
0.00625389
0.00625402
0.00625372
0.0062418
0.00606048
0.00618099
0.00625417
0.00625431
0.00625406
0.0062538
0.00625358
0.00625337
0.00625321
0.0062531
0.00625301
0.00625295
0.0062529
0.00625117
0.0062512
0.00625124
0.0062513
0.00625137
0.00625147
0.00625161
0.00625173
0.00625186
0.00625152
0.00623895
0.00605891
0.00617899
0.00625198
0.00625214
0.00625188
0.00625161
0.00625139
0.00625117
0.00625101
0.00625089
0.0062508
0.00625074
0.00625069
0.00631223
0.00631233
0.00631415
0.00631022
0.00631042
0.00631209
0.00630823
0.00630853
0.00631018
0.00630619
0.00630657
0.00630829
0.00630407
0.0063045
0.00630632
0.0063018
0.00472828
0.00483822
0.00630231
0.00630423
0.00631439
0.00631641
0.00631443
0.00631646
0.0063124
0.00631227
0.00631416
0.00631306
0.00631408
0.00631236
0.00631253
0.00631409
0.00631032
0.00631024
0.00631201
0.00631122
0.00630905
0.00631151
0.00630756
0.00631146
0.00631042
0.00631051
0.00631202
0.00630825
0.00630824
0.00630999
0.00630923
0.00630174
0.00630323
0.00626992
0.00628897
0.00630852
0.00630852
0.00631001
0.00630617
0.00630619
0.00630799
0.00630722
0.00630235
0.0063019
0.0062961
0.00627997
0.00630656
0.0063065
0.00630802
0.006303
0.00630337
0.00630449
0.00630443
0.00630599
0.00630251
0.00630306
0.00629958
0.00510211
0.00473316
0.00561371
0.00630004
0.00630202
0.00631177
0.00631296
0.00631301
0.00631291
0.00631086
0.00631408
0.00631305
0.00631161
0.006313
0.00631308
0.00631298
0.00631192
0.00630372
0.00630846
0.00631097
0.0063027
0.006285
0.00631022
0.00630365
0.0062901
0.00630737
0.00631113
0.00630918
0.00630436
0.00631181
0.00630933
0.00631137
0.00630184
0.0063017
0.00630898
0.00628192
0.00628897
0.00628431
0.00628157
0.00627937
0.0062687
0.00630924
0.00630216
0.00630287
0.00630425
0.0063023
0.00630948
0.00628564
0.00629143
0.00628948
0.00628467
0.00630322
0.00629704
0.00630732
0.00630466
0.00630538
0.00630289
0.00630455
0.00630756
0.00629618
0.006298
0.00629211
0.0062958
0.00630311
0.00630307
0.00630533
0.00630483
0.00630555
0.00629886
0.00629554
0.00629818
0.00629885
0.00630145
0.0063024
0.00631328
0.0063131
0.00631413
0.00631323
0.00631397
0.00630404
0.00630406
0.00630593
0.00630514
0.00630285
0.00630281
0.00625283
0.00622495
0.0063023
0.00630229
0.0063039
0.006314
0.00631324
0.00631413
0.00631311
0.00631334
0.00630278
0.00630241
0.00630697
0.00469182
0.00495622
0.00579366
0.00592871
0.00497121
0.00528156
0.00621954
0.00616879
0.00630529
0.00630473
0.006304
0.00594472
0.00602685
0.00630389
0.006303
0.00630342
0.00631531
0.00631519
0.00631423
0.00631424
0.0063152
0.00631531
0.00631311
0.00631349
0.00631322
0.00631402
0.00631332
0.00631363
0.00630906
0.00630991
0.00628009
0.00628117
0.00629062
0.00628871
0.00630265
0.00616843
0.00630405
0.0062735
0.00625593
0.00625811
0.00627445
0.00630287
0.00628359
0.00631239
0.00622834
0.00630268
0.00621266
0.00631213
0.0063049
0.00631319
0.00631348
0.00631268
0.0062915
0.00631236
0.00631245
0.00629249
0.00629138
0.00630831
0.00630783
0.0062972
0.00629818
0.00630507
0.0063107
0.00631107
0.00631021
0.00631057
0.00630499
0.0063108
0.00631169
0.00631206
0.00631119
0.00631156
0.00631048
0.00628542
0.00628582
0.00628126
0.00628107
0.00625579
0.00625747
0.00630112
0.00630882
0.00630917
0.00630837
0.00630871
0.00630104
0.00630341
0.00630974
0.00631009
0.00630928
0.00630963
0.00630329
0.00472345
0.00628837
0.00504093
0.00476053
0.00536798
0.00505876
0.00628918
0.00628053
0.00479488
0.00628155
0.00630142
0.006301
0.00630366
0.0063079
0.00630825
0.00630743
0.00630779
0.00630387
0.00558837
0.00576464
0.00629392
0.0056341
0.00539016
0.00584086
0.00566153
0.00629445
0.00531228
0.00556079
0.00630318
0.00622576
0.00625492
0.00617534
0.00621994
0.00630318
0.00615634
0.00602485
0.00605349
0.00494849
0.00603637
0.00601326
0.00525243
0.00627345
0.00627508
0.00631382
0.00630187
0.00630181
0.00630379
0.00630298
0.00630212
0.00630282
0.00553156
0.00629838
0.00630058
0.00631382
0.00630249
0.00630283
0.00630488
0.00485181
0.00490143
0.00456631
0.0060181
0.00601446
0.00494984
0.00503754
0.00626231
0.00627296
0.00419116
0.00631459
0.00631464
0.0063141
0.00631407
0.00631464
0.0063146
0.00631032
0.0063115
0.0063111
0.00630782
0.00630729
0.00631079
0.00630205
0.00630942
0.00630906
0.00630992
0.00630954
0.00630225
0.00627444
0.00628574
0.00629377
0.00628139
0.00606047
0.0060131
0.00630279
0.00627615
0.00628687
0.00628843
0.00628777
0.00506242
0.00631363
0.00631339
0.00631405
0.00631193
0.00630944
0.00630792
0.00631257
0.00631271
0.00631311
0.00631219
0.00631258
0.00631243
0.00630554
0.00631044
0.00631005
0.00631097
0.00631057
0.00630622
0.00629816
0.00610943
0.00622399
0.00603116
0.00604796
0.00628745
0.00623543
0.00624757
0.00630568
0.00629317
0.00630135
0.00630686
0.00631058
0.00631073
0.00630964
0.00630986
0.00630465
0.00630893
0.00630857
0.00630169
0.0062837
0.00602538
0.00596711
0.0062826
0.00601045
0.00602707
0.00595615
0.00595881
0.00628089
0.0062703
0.00626237
0.00630165
0.00630847
0.00630862
0.00630767
0.00630806
0.00630219
0.00630391
0.00630936
0.00630957
0.00630867
0.00630883
0.00630274
0.00630258
0.00625481
0.00626546
0.00624075
0.00623362
0.006299
0.00630554
0.00630695
0.00630731
0.00630646
0.00630683
0.00630551
0.00629713
0.00597826
0.00586095
0.0060983
0.00606326
0.00629739
0.00533946
0.00539174
0.00629859
0.00613661
0.00610899
0.00526977
0.0053231
0.00611669
0.00607265
0.00631357
0.00631382
0.00631367
0.00601209
0.00624261
0.00604113
0.00606467
0.00605585
0.006239
0.00631372
0.00631355
0.00631389
0.00631327
0.00631362
0.00472319
0.00481086
0.00486956
0.00485562
0.005859
0.00502872
0.0049826
0.00513281
0.00504235
0.00587645
0.00505322
0.00511339
0.00620068
0.00619215
0.00598539
0.00527411
0.00518044
0.00504781
0.00509919
0.00631277
0.00631318
0.00631343
0.00631277
0.00631309
0.00631258
0.00630794
0.00631064
0.0062756
0.00628461
0.00629322
0.00628238
0.00617846
0.00627005
0.00626232
0.00627816
0.00627248
0.0061766
0.00624457
0.00623723
0.00625992
0.00624873
0.00626741
0.00613314
0.00616022
0.00608376
0.00611979
0.00626483
0.00598749
0.00600142
0.00626445
0.00630992
0.00630722
0.00631242
0.00631071
0.00627395
0.00629083
0.00628542
0.00630516
0.0062932
0.00631154
0.00631314
0.00631266
0.00631059
0.00630862
0.00631143
0.00630983
0.00631204
0.0063103
0.0063121
0.00631265
0.00631068
0.00631188
0.0063127
0.00631227
0.00631159
0.00607264
0.00609235
0.00629646
0.00590614
0.0058199
0.00612647
0.0059244
0.00569713
0.00562256
0.00579335
0.00573042
0.00628839
0.00605438
0.00606775
0.0062201
0.00619862
0.00628264
0.00623893
0.0061743
0.00615092
0.006195
0.00618023
0.00630626
0.00625032
0.00625795
0.00629422
0.0063008
0.00631024
0.00631049
0.00630591
0.00630474
0.00630993
0.00631016
0.00604353
0.00603565
0.00628421
0.0056092
0.00561646
0.00531553
0.00557257
0.00559655
0.0056837
0.00561133
0.0055971
0.00599009
0.00600566
0.00628216
0.00551577
0.00545467
0.00560628
0.00553542
0.00534321
0.00529363
0.0054308
0.00537299
0.00628096
0.00596691
0.00598386
0.00626395
0.00626104
0.00630828
0.00630842
0.00630151
0.0063017
0.0063081
0.00630823
0.00630911
0.0063093
0.00630379
0.00630287
0.00630888
0.00630906
0.00478273
0.00488517
0.00604798
0.00608629
0.00599699
0.00603414
0.00478786
0.00524595
0.00613709
0.00606798
0.00609667
0.00612744
0.00518108
0.0058234
0.00584722
0.00573401
0.00581437
0.00489906
0.00594637
0.00598662
0.00585997
0.00592494
0.00490402
0.00624555
0.00625221
0.00630234
0.00621553
0.00622928
0.00623378
0.00621506
0.00622933
0.00629947
0.0062295
0.00623983
0.00566002
0.00476927
0.00477628
0.00494992
0.00478976
0.00568551
0.00487008
0.00540318
0.0047823
0.00544448
0.00619862
0.00628459
0.00627991
0.00629015
0.00628616
0.0062025
0.00613606
0.00614335
0.00541444
0.00546769
0.00513622
0.0052474
0.00614671
0.00612683
0.00631448
0.00631463
0.00631627
0.00630315
0.00630281
0.00630192
0.00631427
0.0063143
0.00631396
0.00631391
0.00631429
0.00631427
0.00631529
0.00631524
0.00631429
0.00631202
0.00631163
0.00631066
0.00630765
0.00630181
0.00630096
0.00627121
0.00628786
0.00630796
0.0063076
0.00630207
0.0062575
0.0062543
0.00628038
0.0062678
0.00627318
0.00630374
0.00631237
0.00631255
0.00631215
0.00630018
0.00630378
0.00631136
0.0063128
0.00631242
0.00631278
0.00630986
0.00628298
0.00629857
0.00629112
0.00630007
0.00629914
0.00630681
0.00630747
0.00630754
0.00630446
0.0063109
0.00631106
0.00630964
0.00630171
0.00630845
0.00630809
0.00607249
0.00604974
0.00628747
0.00627823
0.00626203
0.00626047
0.00626749
0.00630202
0.00630637
0.00630642
0.00630415
0.00630732
0.00630739
0.00630647
0.00630652
0.00630244
0.00627861
0.00610762
0.00608405
0.00630295
0.00630749
0.00630758
0.00630515
0.00630594
0.00630632
0.00492994
0.0049336
0.0061659
0.00614483
0.00629868
0.00492354
0.00492657
0.00628782
0.00628989
0.00630205
0.00631332
0.00631326
0.00466969
0.00467466
0.00470127
0.0049347
0.00498735
0.00462245
0.00464738
0.00489709
0.00485302
0.00523953
0.00612771
0.00611934
0.00617666
0.00535462
0.00529162
0.00599661
0.00631472
0.00631467
0.00631412
0.00631286
0.00631303
0.00631318
0.0063133
0.00631218
0.00631238
0.00631352
0.00631377
0.00631363
0.00630595
0.00630552
0.00630845
0.00631029
0.00630898
0.00630822
0.00627805
0.00628227
0.00626579
0.00626822
0.00629185
0.00628632
0.0062552
0.0062608
0.00618797
0.00618881
0.00622038
0.00621614
0.00616788
0.00619135
0.00619438
0.00630383
0.00627534
0.00628125
0.00627632
0.0062455
0.00628841
0.00628336
0.00630889
0.00630678
0.00629792
0.00616243
0.00614464
0.00627064
0.00623489
0.00618413
0.00631339
0.00631323
0.00631229
0.00631209
0.00630989
0.00631105
0.00629771
0.00631132
0.00631192
0.00626047
0.00627418
0.00630954
0.00612167
0.00610087
0.00629623
0.00629913
0.00631153
0.00631168
0.00631128
0.00630977
0.00631121
0.00631137
0.00628705
0.0060472
0.00604384
0.0062558
0.00625864
0.00630692
0.00630699
0.00630354
0.00630315
0.0063068
0.00630686
0.00475567
0.00501831
0.00546282
0.0054881
0.00519234
0.00521319
0.00473055
0.00612417
0.00611197
0.00627957
0.00491118
0.00487324
0.00512057
0.00511991
0.00483126
0.00517054
0.00518053
0.00484689
0.00485751
0.00630731
0.0063074
0.00630303
0.00630419
0.00630714
0.00630723
0.00551571
0.00611019
0.00612353
0.00608214
0.00609613
0.00547415
0.00623922
0.00628754
0.00629122
0.00629027
0.00628898
0.00624371
0.00618491
0.00623157
0.00622583
0.00614281
0.00613059
0.00615658
0.00501732
0.00503941
0.00504977
0.00491702
0.00606185
0.00547774
0.00538569
0.00556073
0.00550111
0.0060007
0.00595733
0.00596458
0.00616744
0.00618976
0.00627893
0.00631374
0.00631382
0.00631361
0.00485292
0.00486644
0.0054064
0.00539835
0.0045265
0.00499783
0.00491342
0.00491307
0.00489008
0.0049036
0.00502334
0.00420642
0.00612255
0.00614529
0.00631437
0.00631432
0.00631396
0.00630343
0.00630263
0.00630773
0.00630579
0.00630816
0.00630983
0.0063073
0.0063078
0.00627312
0.00628679
0.00623925
0.00624335
0.00624374
0.00623924
0.0062808
0.00625199
0.00625045
0.00604985
0.00597733
0.00597532
0.00598919
0.00598701
0.00603637
0.00630898
0.00631072
0.00631084
0.00631038
0.0063106
0.00630847
0.00629213
0.0063053
0.0062981
0.00629553
0.00630456
0.00630761
0.00630769
0.00626218
0.00626299
0.00627575
0.00626435
0.00630628
0.00630633
0.00630181
0.00630718
0.00630725
0.00630403
0.00630259
0.00630657
0.00630663
0.00624086
0.00625544
0.00624991
0.00625996
0.00625828
0.00623923
0.00493833
0.00494741
0.00492217
0.00492155
0.00528866
0.00506084
0.00504551
0.00598904
0.00598916
0.0061033
0.00601322
0.00603199
0.00597974
0.00599363
0.0060877
0.0063135
0.00631342
0.00631347
0.00631346
0.00631375
0.00631378
0.00631388
0.00631358
0.00631366
0.00631364
0.00603553
0.00614768
0.00614069
0.00616676
0.00615689
0.00604368
0.00608354
0.00611477
0.00610082
0.00613496
0.00612761
0.00607193
0.00631365
0.00631372
0.00631361
0.00631249
0.00631166
0.00631341
0.0063132
0.00467124
0.00489339
0.00472133
0.00472121
0.0048655
0.00486055
0.00523935
0.00526598
0.00500219
0.00462196
0.00460705
0.00501184
0.00471613
0.0047075
0.00470814
0.00518092
0.00476978
0.00468202
0.00613569
0.00614863
0.00620815
0.00610128
0.00610438
0.00609364
0.00609511
0.00618385
0.00611616
0.00612208
0.00505853
0.00486396
0.00487616
0.00486631
0.00485786
0.00507396
0.00631298
0.00631308
0.00631291
0.00631215
0.00631252
0.00631286
0.00630264
0.00630812
0.00630491
0.0063042
0.00630605
0.0063067
0.00630457
0.00630536
0.0062768
0.00628342
0.0062491
0.00625033
0.00624525
0.00624724
0.00629263
0.00626947
0.00627032
0.00624973
0.00625119
0.00628403
0.00624999
0.00620004
0.00619144
0.00617191
0.00621257
0.00620798
0.00624153
0.00619856
0.00619763
0.00621215
0.00620428
0.00623938
0.00625705
0.00621961
0.00622407
0.00620313
0.00621176
0.0062532
0.00619503
0.00609578
0.00618246
0.00617549
0.00597865
0.0059858
0.0062596
0.00629278
0.00629062
0.006255
0.00628202
0.0063012
0.00629617
0.00619215
0.00617631
0.00625283
0.00625634
0.00628734
0.00622632
0.00620941
0.00630399
0.00630682
0.00631138
0.00630859
0.00630045
0.00628923
0.00629978
0.00631112
0.00631174
0.00631193
0.00631104
0.00631134
0.00631011
0.0063087
0.00630984
0.00631226
0.00631173
0.00631148
0.00631241
0.00631192
0.00631244
0.00631099
0.00631114
0.00631035
0.00631122
0.00588356
0.00584993
0.00606981
0.00581536
0.00584495
0.00575361
0.00594068
0.00566814
0.00564327
0.00577031
0.00575096
0.00620896
0.00610449
0.00612764
0.00605889
0.00608082
0.00620282
0.00627745
0.00623546
0.00624705
0.00614112
0.00620802
0.00626517
0.00608181
0.00604536
0.00616825
0.00591583
0.00593839
0.0058772
0.00589627
0.00616142
0.0061913
0.00602265
0.00603953
0.00596369
0.00599183
0.00618601
0.00629527
0.00630003
0.00562187
0.00534969
0.00538914
0.0052661
0.00530587
0.00562129
0.0053866
0.00540652
0.0054033
0.00548527
0.00560946
0.00504864
0.00508677
0.00511733
0.00505352
0.00563829
0.00560629
0.00519699
0.0052299
0.00513141
0.00516726
0.00560162
0.00550128
0.00548395
0.00558987
0.0055601
0.00531804
0.00529701
0.00541219
0.00539869
0.00625841
0.0062598
0.00630366
0.00630705
0.00630712
0.00630668
0.00630674
0.00630301
0.00478071
0.00537227
0.00542616
0.00497475
0.00473065
0.00525112
0.0053084
0.00499422
0.00495128
0.00583064
0.00536058
0.00536287
0.00577495
0.00530739
0.005217
0.00536158
0.00534712
0.00580018
0.00509134
0.00504057
0.00510868
0.00515114
0.00486911
0.0049159
0.00501697
0.00624855
0.00627549
0.00627345
0.00627845
0.00627702
0.00625038
0.00622023
0.00622683
0.00622727
0.0062143
0.00621445
0.00622013
0.00622919
0.00626392
0.00626159
0.00627056
0.00626713
0.00623357
0.00476665
0.00498178
0.00500649
0.00494454
0.0049629
0.00477044
0.0048923
0.00515193
0.00520244
0.0050435
0.0050948
0.0048355
0.00486103
0.00467755
0.00469457
0.00469335
0.00468233
0.0047852
0.00488311
0.00492115
0.00474521
0.00481459
0.00477612
0.00624024
0.00623651
0.00619363
0.00613505
0.00615169
0.00496848
0.00500374
0.00517886
0.00494799
0.00489925
0.00502661
0.0049976
0.00521784
0.00492418
0.00492402
0.00597014
0.00597487
0.00631903
0.00631903
0.00632014
0.00631901
0.00631901
0.00632013
0.00631901
0.00631901
0.00632013
0.00631902
0.00631904
0.00632014
0.00631682
0.00631681
0.00631792
0.00631678
0.00631676
0.00631847
0.00631674
0.00631671
0.00631844
0.00631671
0.00631675
0.00631845
0.00631678
0.00631682
0.00631849
0.00631685
0.00631687
0.00631795
0.00631465
0.0063146
0.00631625
0.00631456
0.00631445
0.00631618
0.00631556
0.00631553
0.00631644
0.00631547
0.00631551
0.00631641
0.00631563
0.00631567
0.00631622
0.00631467
0.00631473
0.00631579
0.00631251
0.00631244
0.00631405
0.00631347
0.00631346
0.006314
0.00631383
0.0063138
0.00631409
0.00631339
0.0063135
0.00631431
0.00631256
0.00631263
0.00631367
0.00631039
0.00631034
0.00631191
0.00631136
0.00631136
0.00631187
0.00631172
0.00631172
0.00631197
0.00631138
0.00631146
0.00631221
0.00631052
0.00631056
0.00631159
0.00630828
0.00630826
0.00630982
0.00630928
0.0063093
0.00630982
0.00630973
0.00630972
0.00630997
0.00630947
0.00630951
0.00631024
0.00630851
0.00630851
0.00630953
0.00630616
0.00630617
0.00630774
0.00630721
0.00630725
0.00630776
0.00630773
0.00630774
0.00630799
0.00630755
0.00630753
0.00630828
0.00630648
0.00630644
0.00630747
0.00630403
0.00630404
0.00630564
0.00630567
0.00630568
0.00630594
0.00630554
0.00630548
0.00630625
0.0063044
0.00630434
0.00630539
0.00630187
0.00630187
0.0063035
0.00630341
0.0063034
0.00630393
0.00630226
0.00630221
0.00630328
0.00629965
0.00629961
0.00630072
0.00629964
0.00629959
0.00630124
0.00630068
0.0062994
0.00630024
0.00503941
0.00624058
0.00624739
0.00630008
0.00630012
0.00630175
0.00630004
0.00630006
0.00630113
0.00629746
0.00629743
0.00629852
0.00629746
0.0062974
0.00629904
0.00629737
0.00550319
0.00548653
0.00594384
0.0062978
0.00629948
0.00629786
0.00629792
0.00629954
0.00629785
0.00629786
0.00629895
0.00629527
0.00629524
0.00629634
0.00629212
0.00587035
0.00550787
0.0061264
0.00629528
0.00629723
0.00629569
0.00629573
0.00629682
0.00631223
0.00631248
0.00631249
0.00631258
0.00631267
0.00631227
0.00631413
0.00631386
0.00631388
0.00631022
0.00631046
0.00631047
0.00631065
0.00631065
0.00631029
0.00631214
0.00631175
0.00631185
0.00630824
0.00630849
0.00630848
0.00630877
0.00630878
0.00630843
0.00631018
0.00630983
0.00630995
0.0063062
0.00630646
0.00630645
0.00630682
0.00630687
0.00630651
0.00630832
0.00630796
0.00630805
0.00630476
0.00630473
0.00630446
0.00630626
0.00630601
0.00630606
0.00630052
0.00630187
0.0063027
0.00452194
0.00529476
0.00530126
0.0058423
0.00584413
0.0042156
0.0063042
0.00630393
0.00630396
0.00631428
0.00631523
0.00631526
0.006314
0.006314
0.0063139
0.00631641
0.0063155
0.00631547
0.00631399
0.006314
0.00631471
0.0063147
0.00631441
0.00631645
0.00631555
0.00631558
0.0063124
0.00631292
0.00631294
0.00631306
0.00631291
0.00631238
0.00631397
0.00631344
0.00631333
0.00631321
0.00631316
0.00631289
0.00631405
0.00631389
0.00631393
0.00631247
0.00631324
0.00631312
0.00631304
0.00631304
0.00631253
0.00631408
0.00631356
0.00631356
0.00631033
0.00631084
0.00631084
0.00631099
0.00631085
0.00631034
0.00631187
0.00631135
0.00631124
0.00631121
0.00631147
0.00631147
0.00630953
0.00631074
0.00631052
0.00631186
0.00631169
0.00631125
0.00631092
0.00631031
0.00631122
0.00631048
0.00631122
0.00631114
0.00631101
0.00631104
0.00631055
0.00631203
0.00631153
0.00631151
0.00630828
0.00630879
0.00630877
0.00630899
0.00630882
0.00630831
0.00630983
0.00630932
0.00630924
0.00630923
0.00630948
0.00630948
0.00630181
0.00630736
0.00630725
0.00630825
0.00630805
0.00630282
0.00630853
0.00630926
0.00630924
0.00630902
0.00630907
0.00630858
0.00631006
0.00630957
0.00630952
0.0063062
0.00630673
0.00630669
0.00630697
0.00630676
0.00630624
0.00630779
0.00630728
0.00630722
0.00630723
0.00630748
0.00630748
0.00630214
0.00630748
0.00630711
0.00630645
0.00630637
0.00630196
0.00629517
0.00627422
0.00627693
0.00630652
0.00630728
0.00630731
0.00630701
0.00630708
0.00630657
0.00630808
0.00630758
0.00630752
0.0063029
0.00628837
0.00629158
0.00629793
0.00629846
0.00630351
0.00630446
0.00630498
0.00630528
0.00630495
0.00630502
0.00630449
0.00630606
0.00630554
0.00630547
0.00630261
0.00630091
0.00630093
0.00630026
0.00630044
0.00630301
0.00629881
0.00629911
0.00630013
0.00507277
0.00628746
0.00628632
0.00601712
0.00602146
0.00475719
0.00629742
0.00629813
0.00555455
0.00630059
0.00630034
0.00629967
0.00630162
0.00630063
0.00630117
0.006312
0.00631217
0.00631202
0.00631309
0.00631268
0.00631253
0.00631275
0.00631274
0.006313
0.00631276
0.00631213
0.00631284
0.00631393
0.0063139
0.00631405
0.00631298
0.00631315
0.0063132
0.00631173
0.00631134
0.00631119
0.00631298
0.00631289
0.00631293
0.00631306
0.0063128
0.00631282
0.00631284
0.00631288
0.00631302
0.00631209
0.00631222
0.00631212
0.00630428
0.00630871
0.00630847
0.00631028
0.00631002
0.00630771
0.00631072
0.00631071
0.00631096
0.00630148
0.00628847
0.00629193
0.00625145
0.00625273
0.00628575
0.00629419
0.0062958
0.00630441
0.00631114
0.00631077
0.00631089
0.00630892
0.00630995
0.00631012
0.0063114
0.00631182
0.00631195
0.00631024
0.00631035
0.00630944
0.00631161
0.00631163
0.00631126
0.00630178
0.00630661
0.00630653
0.00630715
0.00630705
0.00630169
0.00630873
0.00630874
0.00630898
0.00628254
0.0062477
0.00624619
0.00626241
0.00626108
0.00628843
0.00628369
0.00624923
0.0062503
0.00624511
0.0062444
0.00628116
0.00630925
0.0063089
0.006309
0.00630637
0.00630636
0.00630278
0.00630971
0.00630971
0.00630936
0.00628659
0.00619203
0.00617748
0.00624956
0.00624641