/*--------------------------------*- C++ -*----------------------------------*\
| =========                 |                                                 |
| \\      /  F ield         | OpenFOAM: The Open Source CFD Toolbox           |
|  \\    /   O peration     | Version:  5.x                                   |
|   \\  /    A nd           | Web:      www.OpenFOAM.org                      |
|    \\/     M anipulation  |                                                 |
\*---------------------------------------------------------------------------*/
FoamFile
{
    version     2.0;
    format      ascii;
    class       volScalarField;
    location    "200";
    object      YSat;
}
// * * * * * * * * * * * * * * * * * * * * * * * * * * * * * * * * * * * * * //

dimensions      [0 0 0 0 0 0 0];

internalField   nonuniform List<scalar> 
6584
(
0.00431405
0.00431405
0.00431405
0.00431405
0.00431405
0.00431405
0.00431405
0.00431405
0.00431405
0.00431405
0.00431405
0.00431405
0.00431405
0.00431405
0.00431405
0.00431405
0.00431405
0.00431405
0.00431405
0.00431405
0.00431405
0.00431405
0.00431405
0.00431405
0.00431405
0.00431405
0.00431405
0.00431405
0.00431405
0.00431405
0.00431405
0.00431405
0.00431405
0.00431405
0.00431405
0.00431405
0.00431405
0.00431405
0.00431405
0.00431405
0.00431405
0.00431405
0.00431405
0.00431405
0.00431405
0.00431405
0.00431405
0.00431405
0.00431405
0.00431405
0.00431405
0.00431405
0.00431405
0.00431405
0.00431405
0.00431405
0.00431405
0.00431405
0.00431405
0.00431405
0.00431405
0.00431405
0.00431405
0.00431405
0.00431405
0.00431405
0.00431405
0.00431405
0.00431405
0.00431405
0.00431405
0.00431405
0.00431405
0.00431405
0.00431405
0.00431405
0.00431405
0.00431405
0.00431405
0.00431405
0.00431405
0.00431405
0.00431405
0.00431405
0.00431405
0.00431405
0.00431405
0.00431405
0.00431405
0.00431405
0.00431405
0.00431405
0.00431405
0.00431405
0.00431405
0.00431405
0.00431405
0.00431405
0.00431405
0.00431405
0.00431405
0.00431405
0.00431405
0.00431405
0.00431405
0.00431405
0.00431405
0.00431405
0.00431405
0.00431405
0.00431405
0.00431405
0.00431405
0.00431405
0.00431405
0.00431405
0.00431405
0.00431405
0.00431405
0.00431405
0.00431405
0.00431405
0.00431405
0.00431405
0.00431405
0.00431405
0.00431405
0.00431405
0.00431405
0.00431405
0.00431405
0.00431405
0.00431405
0.00431405
0.00431405
0.00431405
0.00431405
0.00431405
0.00431405
0.00431405
0.00431405
0.00431405
0.00431405
0.00431405
0.00431405
0.00431405
0.00431405
0.00431405
0.00431405
0.00431405
0.00431405
0.00431405
0.00431405
0.00431405
0.00431405
0.00431405
0.00431405
0.00431405
0.00431405
0.00431405
0.00431405
0.00431405
0.00431405
0.00431405
0.00431405
0.00431405
0.00431405
0.00431405
0.00431405
0.00431405
0.00431405
0.00431405
0.00431405
0.00431405
0.00431405
0.00431405
0.00431405
0.00431405
0.00431405
0.00431405
0.00431405
0.00431405
0.00431405
0.00431405
0.00431405
0.00431405
0.00431405
0.00431405
0.00431405
0.00431405
0.00431405
0.00431405
0.00431405
0.00431405
0.00431405
0.00431405
0.00431405
0.00431405
0.00431405
0.00431405
0.00431405
0.00431405
0.00431405
0.00431405
0.00431405
0.00431405
0.00431405
0.00431405
0.00431405
0.00431405
0.00431405
0.00431405
0.00431405
0.00431405
0.00431405
0.00431405
0.00431405
0.00431405
0.00431405
0.00431405
0.00431405
0.00431405
0.00431405
0.00431405
0.00431405
0.00431405
0.00431405
0.00431405
0.00431405
0.00431405
0.00431405
0.00431405
0.00431405
0.00431405
0.00431405
0.00431405
0.00431405
0.00431405
0.00431405
0.00431405
0.00431405
0.00431405
0.00431405
0.00431405
0.00431405
0.00431405
0.00431405
0.00431405
0.00431405
0.00431405
0.00431405
0.00431405
0.00431405
0.00431405
0.00431405
0.00431405
0.00431405
0.00431405
0.00431405
0.00431405
0.00431405
0.00431405
0.00431405
0.00431405
0.00431405
0.00431405
0.00431405
0.00431405
0.00431405
0.00431405
0.00431405
0.00431405
0.00431405
0.00431405
0.00431405
0.00431405
0.00431405
0.00431405
0.00431405
0.00431405
0.00431405
0.00431405
0.00431405
0.00431405
0.00431405
0.00431405
0.00431405
0.00431405
0.00431405
0.00431405
0.00431405
0.00431405
0.00431405
0.00431405
0.00431405
0.00431405
0.00431405
0.00431405
0.00431405
0.00431405
0.00431405
0.00431405
0.00431405
0.00431405
0.00431405
0.00431405
0.00431405
0.00431405
0.00431405
0.00431405
0.00431405
0.00431405
0.00431405
0.00431405
0.00431405
0.00431405
0.00431405
0.00431405
0.00338976
0.00431405
0.00431405
0.00431405
0.00431405
0.00431405
0.00431405
0.00431405
0.00431405
0.00431405
0.00431405
0.00431405
0.00431405
0.00431405
0.00431405
0.00431405
0.00431405
0.00431405
0.00431405
0.00431405
0.00431405
0.00431405
0.00431405
0.00431404
0.00406668
0.00431405
0.00431405
0.00431405
0.00431405
0.00431405
0.00431405
0.00431405
0.00431405
0.00431405
0.00431405
0.00431405
0.00431405
0.00431405
0.00431405
0.00431405
0.00431405
0.00431405
0.00431405
0.00431405
0.00431405
0.00431405
0.00431405
0.00431404
0.00408747
0.00431405
0.00431405
0.00431405
0.00431405
0.00431405
0.00431405
0.00431405
0.00431405
0.00431405
0.00431405
0.00431405
0.00431405
0.00431405
0.00431405
0.00431405
0.00431405
0.00431405
0.00431405
0.00431405
0.00431405
0.00431405
0.00431405
0.00431206
0.00420599
0.00431405
0.00431405
0.00431405
0.00431405
0.00431405
0.00431405
0.00431405
0.00431405
0.00431405
0.00431405
0.00431405
0.00431405
0.00431405
0.00431405
0.00431405
0.00431405
0.00431405
0.00431405
0.00431405
0.00431405
0.00431405
0.00431405
0.00431107
0.00420964
0.00431405
0.00431405
0.00431405
0.00431405
0.00431405
0.00431405
0.00431405
0.00431405
0.00431405
0.00431405
0.00431405
0.00431405
0.00431405
0.00431405
0.00431405
0.00431405
0.00431405
0.00431405
0.00431405
0.00431405
0.00431405
0.00431368
0.00422364
0.00426503
0.00431404
0.00431405
0.00431405
0.00431405
0.00431405
0.00431405
0.00431405
0.00431405
0.00431405
0.00431405
0.00431405
0.00431405
0.00431405
0.00431405
0.00431405
0.00431405
0.00431405
0.00431405
0.00431405
0.00431405
0.00431405
0.00431333
0.00422452
0.00426551
0.00431404
0.00431405
0.00431405
0.00431405
0.00431405
0.00431405
0.00431405
0.00431405
0.00431405
0.00431405
0.00431405
0.00431405
0.00431405
0.00431405
0.00431405
0.00431405
0.00431405
0.00431405
0.00431405
0.00431405
0.00431404
0.004313
0.00422538
0.00426593
0.00431403
0.00431405
0.00431405
0.00431405
0.00431405
0.00431405
0.00431405
0.00431405
0.00431405
0.00431405
0.00431405
0.00431405
0.00431405
0.00431405
0.00431405
0.00431405
0.00431405
0.00431405
0.00431405
0.00431405
0.00431404
0.00431268
0.00422622
0.00426631
0.00431402
0.00431405
0.00431405
0.00431405
0.00431405
0.00431405
0.00431405
0.00431405
0.00431405
0.00431405
0.00431405
0.00431405
0.00431405
0.00431405
0.00431405
0.00431405
0.00431405
0.00431405
0.00431405
0.00431405
0.00431403
0.00431237
0.00422706
0.00426666
0.00431402
0.00431405
0.00431405
0.00431405
0.00431405
0.00431405
0.00431405
0.00431405
0.00431405
0.00431405
0.00431405
0.00431405
0.00431405
0.00431405
0.00431405
0.00431405
0.00431405
0.00431405
0.00431405
0.00431405
0.00431402
0.00431208
0.00422787
0.00426699
0.00431401
0.00431405
0.00431405
0.00431405
0.00431405
0.00431405
0.00431405
0.00431405
0.00431405
0.00431405
0.00431405
0.00431405
0.00431405
0.00431405
0.00431405
0.00431405
0.00431405
0.00431405
0.00431405
0.00431405
0.00431402
0.00431181
0.00422868
0.0042673
0.00431401
0.00431405
0.00431405
0.00431405
0.00431405
0.00431405
0.00431405
0.00431405
0.00431405
0.00431405
0.00431405
0.00431405
0.00431405
0.00431405
0.00431405
0.00431405
0.00431405
0.00431405
0.00431405
0.00431405
0.00431401
0.00431151
0.0042295
0.00426762
0.004314
0.00431405
0.00431405
0.00431405
0.00431405
0.00431405
0.00431405
0.00431405
0.00431405
0.00431405
0.00431405
0.00431405
0.00431405
0.00431405
0.00431405
0.00431405
0.00431405
0.00431405
0.00431405
0.00431405
0.004314
0.0043112
0.00423033
0.00426795
0.004314
0.00431405
0.00431405
0.00431405
0.00431405
0.00431405
0.00431405
0.00431405
0.00431405
0.00431405
0.00431405
0.00431405
0.00431405
0.00431405
0.00431405
0.00431405
0.00431405
0.00431405
0.00431405
0.00431405
0.00431399
0.0043109
0.00423115
0.00426828
0.00431399
0.00431405
0.00431405
0.00431405
0.00431405
0.00431405
0.00431405
0.00431405
0.00431405
0.00431405
0.00431405
0.00431405
0.00431405
0.00431405
0.00431405
0.00431405
0.00431405
0.00431405
0.00431405
0.00431405
0.00431397
0.00431061
0.00423196
0.0042686
0.00431399
0.00431405
0.00431405
0.00431405
0.00431405
0.00431405
0.00431405
0.00431405
0.00431405
0.00431405
0.00431405
0.00431405
0.00431405
0.00431405
0.00431405
0.00431405
0.00431405
0.00431405
0.00431405
0.00431405
0.00431396
0.00431034
0.00423277
0.00426891
0.00431398
0.00431405
0.00431405
0.00431405
0.00431405
0.00431405
0.00431405
0.00431405
0.00431405
0.00431405
0.00431405
0.00431405
0.00431405
0.00431405
0.00431405
0.00431405
0.00431405
0.00431405
0.00431405
0.00431405
0.00431395
0.00431008
0.00423358
0.00426922
0.00431397
0.00431405
0.00431405
0.00431405
0.00431405
0.00431405
0.00431405
0.00431405
0.00431405
0.00431405
0.00431405
0.00431405
0.00431405
0.00431405
0.00431405
0.00431405
0.00431405
0.00431405
0.00431405
0.00431405
0.00431393
0.00430982
0.00423438
0.00426953
0.00431397
0.00431405
0.00431405
0.00431405
0.00431405
0.00431405
0.00431405
0.00431405
0.00431405
0.00431405
0.00431405
0.00431405
0.00431405
0.00431405
0.00431405
0.00431405
0.00431405
0.00431405
0.00431405
0.00431405
0.00431392
0.00430958
0.00423517
0.00426983
0.00431396
0.00431405
0.00431405
0.00431405
0.00431405
0.00431405
0.00431405
0.00431405
0.00431405
0.00431405
0.00431405
0.00431405
0.00431405
0.00431405
0.00431405
0.00431405
0.00431405
0.00431405
0.00431405
0.00431405
0.0043139
0.00430934
0.00423596
0.00427014
0.00431396
0.00431405
0.00431405
0.00431405
0.00431405
0.00431405
0.00431405
0.00431405
0.00431405
0.00431405
0.00431405
0.00431405
0.00431405
0.00431405
0.00431405
0.00431405
0.00431405
0.00431405
0.00431405
0.00431404
0.00431388
0.0043091
0.00423676
0.00427045
0.00431395
0.00431405
0.00431405
0.00431405
0.00431405
0.00431405
0.00431405
0.00431405
0.00431405
0.00431405
0.00431405
0.00431405
0.00431405
0.00431405
0.00431405
0.00431405
0.00431405
0.00431405
0.00431405
0.00431404
0.00431386
0.00430886
0.00423754
0.00427076
0.00431395
0.00431405
0.00431405
0.00431405
0.00431405
0.00431405
0.00431405
0.00431405
0.00431405
0.00431405
0.00431405
0.00431405
0.00431405
0.00431405
0.00431405
0.00431405
0.00431405
0.00431405
0.00431405
0.00431405
0.00431405
0.00431405
0.00431405
0.00431405
0.00431405
0.00431405
0.00431405
0.00346158
0.00335898
0.00431405
0.00431405
0.00431405
0.00431405
0.00431405
0.00431405
0.00431405
0.00431405
0.00431405
0.00431404
0.00431405
0.00431405
0.00431405
0.00431405
0.00431405
0.00431405
0.00431405
0.00431405
0.0043125
0.00431373
0.00431131
0.00431368
0.00431405
0.00431405
0.00431405
0.00431405
0.00431405
0.00431405
0.00431405
0.00430865
0.00430896
0.00428329
0.00429745
0.00431405
0.00431405
0.00431405
0.00431405
0.00431405
0.00431405
0.00431405
0.00431078
0.00430974
0.00430516
0.00429191
0.00431405
0.00431405
0.00431405
0.00431229
0.00431178
0.00431405
0.00431405
0.00431405
0.00431362
0.00431329
0.00431404
0.00371513
0.00346349
0.00386213
0.00431405
0.00431405
0.00431384
0.00431405
0.00431405
0.00431403
0.00431315
0.00431405
0.00431404
0.00431375
0.00431404
0.00431405
0.00431405
0.00431394
0.00430922
0.00431214
0.00431405
0.00430769
0.00429534
0.00431275
0.00430837
0.00429829
0.0043112
0.00431405
0.00431261
0.00430948
0.0043139
0.00431268
0.00431405
0.00430959
0.00430873
0.00431405
0.00429559
0.004302
0.00429494
0.00429521
0.0042914
0.00428239
0.00431405
0.0043085
0.00430974
0.00430944
0.00430856
0.00431405
0.00430185
0.00430608
0.00430242
0.00430113
0.0043116
0.00430595
0.00431405
0.00431196
0.00431327
0.00430981
0.00431183
0.00431405
0.00430963
0.00431121
0.00430658
0.00430933
0.00431321
0.00431245
0.00431333
0.00431364
0.00431405
0.00431241
0.00431191
0.00431139
0.00431232
0.00431377
0.00431365
0.00431405
0.00431405
0.00431405
0.00431394
0.00431405
0.00431405
0.00431405
0.00431405
0.00431405
0.00431265
0.00431197
0.00428084
0.00425949
0.00431405
0.00431405
0.00431405
0.00431405
0.00431393
0.00431405
0.00431405
0.00431405
0.00431185
0.00431092
0.00431405
0.00334074
0.00351219
0.00406004
0.00413998
0.00352332
0.00372766
0.00425534
0.00421614
0.00431405
0.00431367
0.00431383
0.00414916
0.00419608
0.00431385
0.00431393
0.00431405
0.00431405
0.00431405
0.00431405
0.00431405
0.00431405
0.00431405
0.00431389
0.00431405
0.00431397
0.00431405
0.004314
0.00431405
0.00431218
0.00431279
0.00429085
0.00429165
0.00430054
0.004299
0.0043117
0.00421274
0.00431267
0.00429602
0.00428318
0.00428252
0.00429504
0.00431346
0.00429138
0.00431393
0.00424916
0.00430618
0.00423719
0.00431383
0.00430786
0.00431392
0.00431405
0.00431355
0.00429746
0.00431398
0.004314
0.00430027
0.00429949
0.00431157
0.00431126
0.00430356
0.00430428
0.0043097
0.00431401
0.00431403
0.004314
0.00431401
0.00430968
0.00431347
0.00431404
0.00431405
0.00431403
0.00431404
0.00431327
0.00429884
0.00429922
0.00429375
0.00429377
0.00427281
0.00427405
0.004308
0.004314
0.00431399
0.004314
0.004314
0.00430798
0.00430909
0.00431399
0.004314
0.00431399
0.00431399
0.00430903
0.0033593
0.00430384
0.00355795
0.00337746
0.00377316
0.0035707
0.00430444
0.00429803
0.00339732
0.00429881
0.00430982
0.00430943
0.00431074
0.00431401
0.004314
0.00431402
0.00431401
0.00431095
0.00392973
0.00404291
0.00430791
0.00394626
0.00378851
0.00407706
0.00396403
0.0043083
0.00374846
0.00391158
0.00431295
0.00425756
0.00428007
0.00421818
0.00425307
0.00431284
0.00420661
0.0042008
0.00421629
0.00362705
0.00420137
0.00419463
0.00360585
0.00429736
0.00429719
0.00431403
0.00431405
0.00431405
0.00431405
0.00431405
0.00431359
0.0043135
0.00380366
0.00431278
0.00431346
0.00431404
0.00431316
0.00431273
0.00431405
0.00350961
0.00354641
0.00334588
0.00420299
0.00420537
0.00357931
0.00364179
0.00429131
0.00429741
0.00297818
0.00431405
0.00431405
0.00431405
0.00431405
0.00431405
0.00431405
0.0043132
0.00431404
0.00431402
0.00431138
0.00431043
0.0043133
0.00430854
0.00431396
0.00431396
0.00431396
0.00431396
0.00430857
0.00428664
0.00429505
0.00430318
0.00429313
0.00415242
0.00411599
0.00431351
0.00429633
0.00430385
0.00430977
0.00431004
0.00369129
0.00431405
0.00431401
0.00431405
0.00431385
0.00431194
0.00431088
0.00431404
0.00431405
0.00431405
0.00431405
0.00431405
0.00431403
0.00431029
0.00431399
0.00431397
0.00431402
0.004314
0.00431071
0.00430435
0.00416144
0.00424742
0.00410996
0.00411952
0.00429685
0.00425606
0.00426513
0.00430979
0.00430057
0.00430661
0.00431093
0.00431379
0.00431381
0.00431359
0.00431363
0.00430958
0.00431396
0.00431396
0.00430906
0.00429719
0.00413752
0.00409704
0.0042941
0.00410059
0.00410814
0.00408834
0.00408396
0.00429429
0.00428423
0.00427764
0.00430824
0.00431358
0.00431356
0.00431351
0.00431368
0.00430906
0.00430931
0.00431356
0.00431358
0.00431356
0.00431355
0.00430878
0.00431095
0.00427386
0.0042823
0.00426229
0.00425696
0.00430764
0.004313
0.00431402
0.00431402
0.00431403
0.00431402
0.00431308
0.00431041
0.00416076
0.00408958
0.00422309
0.00420407
0.00431063
0.0038564
0.00389387
0.00431186
0.00424355
0.0042288
0.00380506
0.00384427
0.00419499
0.00416189
0.00431403
0.00431404
0.00431404
0.0041113
0.00427303
0.00412993
0.00414902
0.00413995
0.00427024
0.00431405
0.00431398
0.00431405
0.00431381
0.00431404
0.00336206
0.00341731
0.00351197
0.00350985
0.00409898
0.00361789
0.00358135
0.00369095
0.00362901
0.00410946
0.00357976
0.00361862
0.00424083
0.00423431
0.00417247
0.00378415
0.00372147
0.00365098
0.00369078
0.00431376
0.00431403
0.00431404
0.00431394
0.00431402
0.00431366
0.00431143
0.00431323
0.00428749
0.00429421
0.00430271
0.00429393
0.00421905
0.00428715
0.00428095
0.00429372
0.0042891
0.00421793
0.00426688
0.00426094
0.00427901
0.00427016
0.00429162
0.00420137
0.00422211
0.00416348
0.00419131
0.00428974
0.00409673
0.00410434
0.00427679
0.00431196
0.00431002
0.00431368
0.00431252
0.00428408
0.00429758
0.00429355
0.00430848
0.00429937
0.00431286
0.00431401
0.00431381
0.00431209
0.0043106
0.00431332
0.0043122
0.00431389
0.00431243
0.00431361
0.0043139
0.00431269
0.00431349
0.00431403
0.00431378
0.0043134
0.00413515
0.00414892
0.00430311
0.00401212
0.0039514
0.00417367
0.00402505
0.0038696
0.00382333
0.00393314
0.00389164
0.00429747
0.00412355
0.0041319
0.00424359
0.00422739
0.00429145
0.00425796
0.0042093
0.00419194
0.0042247
0.0042137
0.00431019
0.00426718
0.00427285
0.00430135
0.00430621
0.0043137
0.00431377
0.00431023
0.00430961
0.00431364
0.00431369
0.00415366
0.00414513
0.00429767
0.0038801
0.00389188
0.00368999
0.00385484
0.00388898
0.00394567
0.00389087
0.00388771
0.00409392
0.00409887
0.00429392
0.00376641
0.00373907
0.00381464
0.00377576
0.00369217
0.00367418
0.00372825
0.0037065
0.00429417
0.00408706
0.00409175
0.00427926
0.00427666
0.00431362
0.00431359
0.00430817
0.00430864
0.00431366
0.00431362
0.00431355
0.00431356
0.00430925
0.00430884
0.00431355
0.00431355
0.0033934
0.00345723
0.00418093
0.00420357
0.00414916
0.00417251
0.00339634
0.00369292
0.00423279
0.00419466
0.00420968
0.00422735
0.00365123
0.00403541
0.00405342
0.00397693
0.00402868
0.003458
0.00411644
0.00414234
0.00406215
0.00410312
0.00345989
0.00426645
0.00427178
0.0043107
0.00424386
0.00425406
0.0042582
0.00424362
0.00425402
0.00430807
0.00425387
0.00426199
0.00397691
0.00343788
0.00343454
0.00355869
0.00345299
0.0039933
0.00351009
0.00380981
0.00343567
0.00383657
0.00423633
0.00429897
0.00429515
0.00430347
0.00430024
0.00423949
0.00419048
0.0041955
0.00390895
0.00394568
0.00371553
0.00378919
0.00421855
0.00420272
0.00431405
0.00431405
0.00431405
0.00431405
0.00431397
0.00431398
0.00431405
0.00431405
0.00431405
0.00431404
0.00431405
0.00431405
0.00431405
0.00431405
0.00431405
0.00431405
0.00431404
0.00431337
0.00431134
0.00430676
0.00430614
0.00428423
0.00429662
0.00431397
0.00431398
0.00431018
0.00427453
0.0042721
0.00429226
0.00428419
0.0042886
0.00431222
0.004314
0.00431405
0.00431405
0.00430495
0.00430759
0.00431344
0.00431398
0.00431385
0.00431403
0.00431257
0.00429186
0.00430376
0.00429905
0.00430548
0.00430479
0.00431081
0.00431193
0.00431194
0.00430952
0.00431385
0.00431388
0.0043128
0.00430918
0.00431396
0.00431397
0.00417902
0.00416292
0.00430074
0.00429047
0.00427795
0.00427679
0.0042815
0.00430843
0.00431187
0.00431186
0.0043094
0.0043119
0.00431191
0.00431185
0.00431185
0.00430863
0.00429651
0.00420248
0.00418654
0.00430999
0.00431355
0.00431353
0.00431348
0.00431403
0.00431403
0.00360289
0.00360833
0.00425899
0.00424788
0.00431199
0.00359272
0.00359779
0.00430463
0.00430644
0.00431373
0.00431396
0.0043139
0.00332801
0.0033361
0.00335134
0.00349704
0.00353525
0.00330655
0.0033205
0.00348617
0.00345668
0.0036999
0.00418614
0.00418043
0.0042223
0.00384121
0.003797
0.0041789
0.00431405
0.00431405
0.00431405
0.00431373
0.00431388
0.00431398
0.00431401
0.00431349
0.0043136
0.00431405
0.00431405
0.00431404
0.00430975
0.00430944
0.00431175
0.00431305
0.00431202
0.00431147
0.00428931
0.00429247
0.00428121
0.00428313
0.00430155
0.00429709
0.00427295
0.00427731
0.00422561
0.00422601
0.00425117
0.0042478
0.00421201
0.00422768
0.00422975
0.00431235
0.00429035
0.00429515
0.00428581
0.00426229
0.00429542
0.00429157
0.004311
0.00430942
0.00430254
0.00419925
0.00418583
0.00428178
0.0042543
0.00421545
0.00431404
0.00431403
0.00431339
0.00431315
0.00431145
0.0043123
0.00430223
0.0043129
0.00431333
0.00427473
0.00428512
0.00431238
0.00416854
0.00415295
0.00430285
0.00430499
0.00431397
0.00431399
0.0043137
0.00431285
0.00431391
0.00431394
0.00430036
0.00416034
0.00415498
0.00427286
0.00427491
0.00431185
0.00431186
0.00430914
0.00430897
0.00431184
0.00431185
0.00337829
0.00354227
0.00382438
0.00384163
0.00364818
0.00366298
0.00336014
0.00421497
0.00420575
0.00429727
0.00345816
0.00343658
0.00358059
0.00358149
0.00341846
0.00363072
0.00363898
0.00342204
0.00342991
0.0043136
0.00431358
0.0043101
0.00431135
0.00431365
0.00431363
0.0038712
0.0042185
0.00422592
0.00420274
0.00421064
0.00384462
0.00426801
0.00430199
0.00430435
0.00430424
0.00430317
0.00427147
0.00422559
0.00425987
0.00425542
0.00419623
0.00418783
0.00420463
0.00367741
0.00369103
0.00370094
0.00357507
0.00421541
0.00392008
0.00386127
0.00397461
0.0039353
0.00418797
0.00408906
0.00409293
0.00422769
0.00424448
0.00430002
0.00431403
0.00431403
0.00431397
0.00351236
0.00352271
0.00391359
0.00391689
0.00330836
0.00361166
0.00355696
0.00355521
0.00354471
0.00355204
0.00363017
0.00299189
0.00420435
0.00421842
0.00431405
0.00431405
0.00431405
0.00430794
0.00430736
0.00431136
0.00430929
0.00431117
0.00431243
0.00431058
0.00431093
0.00428566
0.00429582
0.00426095
0.00426406
0.00426449
0.00426098
0.00429263
0.00427034
0.00426918
0.00414398
0.00409308
0.00409273
0.00409959
0.00409901
0.00413346
0.00431163
0.00431299
0.00431304
0.00431281
0.00431294
0.00431127
0.0042998
0.00430967
0.00430401
0.00430204
0.00430955
0.00431195
0.00431197
0.00427799
0.00427866
0.0042885
0.00427913
0.00431189
0.00431188
0.00430832
0.00431188
0.00431189
0.00430936
0.00430871
0.00431184
0.00431184
0.00426241
0.00427359
0.00426927
0.00427717
0.00427583
0.00426121
0.00361431
0.00362311
0.00358623
0.00358857
0.00381878
0.00367946
0.0036666
0.00410727
0.0041063
0.00418495
0.00412261
0.00413675
0.00409692
0.00410774
0.00417328
0.004314
0.00431398
0.00431401
0.00431396
0.00431403
0.00431404
0.00431405
0.00431401
0.00431402
0.004314
0.00412656
0.00420744
0.00420187
0.004222
0.00421451
0.00413311
0.00415895
0.00418139
0.00417064
0.00419716
0.00419126
0.00415103
0.00431401
0.00431404
0.00431402
0.00431332
0.00431272
0.00431393
0.00431381
0.00332963
0.00346976
0.00336265
0.00336152
0.00351168
0.00351077
0.0037358
0.0037543
0.00359602
0.00330917
0.00329865
0.00355233
0.00337267
0.0033693
0.00336579
0.003662
0.00340332
0.00334738
0.0041938
0.0042037
0.00424654
0.00416931
0.00417105
0.00416486
0.00416537
0.00422792
0.00417855
0.00418334
0.00366049
0.00353098
0.00353728
0.00353648
0.00352902
0.00367277
0.00431393
0.00431395
0.00431383
0.00431337
0.00431367
0.00431388
0.00430714
0.00431153
0.00430901
0.0043085
0.00430969
0.00431015
0.00430861
0.00430919
0.00428838
0.00429332
0.00426839
0.00426931
0.00426549
0.00426699
0.00430221
0.00428413
0.00428483
0.00426866
0.00426982
0.00429526
0.00426902
0.00423509
0.00422842
0.00421471
0.00424491
0.00424126
0.00426445
0.00423205
0.00423153
0.00424203
0.00423621
0.00426269
0.00427671
0.00424861
0.00425214
0.00423585
0.00424252
0.00427367
0.00423003
0.00417284
0.00423404
0.00422867
0.00408958
0.0040939
0.00427294
0.00429871
0.00429708
0.00426955
0.00429027
0.00430514
0.00430129
0.00422174
0.00420973
0.00426842
0.00427107
0.00429498
0.00424777
0.00423487
0.00430696
0.00430911
0.00431265
0.00431037
0.00430432
0.0042956
0.00430374
0.00431312
0.0043136
0.0043137
0.00431315
0.00431334
0.00431238
0.00431126
0.00431212
0.00431369
0.00431328
0.00431312
0.00431372
0.00431338
0.00431378
0.00431289
0.00431291
0.00431232
0.00431302
0.00399616
0.00397237
0.00413147
0.00394574
0.00396671
0.00390202
0.00403664
0.00385088
0.00383547
0.00391761
0.00390492
0.00423514
0.00415597
0.00417333
0.004122
0.00413829
0.00423052
0.0042875
0.00425518
0.00426403
0.00418345
0.00423422
0.00427808
0.00413871
0.00411155
0.00420481
0.00401737
0.00403365
0.00398975
0.00400334
0.00419975
0.00422196
0.00409527
0.00410768
0.00405203
0.0040726
0.00421801
0.00430213
0.00430565
0.00389054
0.00371543
0.00373969
0.00366374
0.0036882
0.0038926
0.00373492
0.0037493
0.00374569
0.0037985
0.00389843
0.00353264
0.00355553
0.00357753
0.00353673
0.00391722
0.00388976
0.00362202
0.0036419
0.00358273
0.00360439
0.00388877
0.00376085
0.00375391
0.00380628
0.00378903
0.00368067
0.00367215
0.00372131
0.00371805
0.00427493
0.00427575
0.0043092
0.00431187
0.00431187
0.00431184
0.00431184
0.0043089
0.00339291
0.00376563
0.00380027
0.00351374
0.00336092
0.00368803
0.00372483
0.00350663
0.0034814
0.00404101
0.00374067
0.00374028
0.00400257
0.00369988
0.00364155
0.00373764
0.0037267
0.0040189
0.00356482
0.00353419
0.00358861
0.00361674
0.00344059
0.00346653
0.0035303
0.00426882
0.00428957
0.00428792
0.004292
0.00429082
0.0042703
0.00424733
0.00425227
0.00425313
0.00424337
0.00424362
0.00424759
0.0042537
0.00428035
0.00427849
0.00428561
0.00428289
0.00425712
0.00343369
0.00356577
0.0035837
0.0035371
0.00355141
0.00343342
0.00352093
0.00367872
0.0037113
0.00360869
0.00364206
0.00348339
0.00350219
0.00335775
0.00337047
0.00336272
0.00335829
0.00343491
0.00349381
0.00351989
0.00340379
0.00344915
0.00342672
0.00426667
0.00426372
0.00423234
0.00419012
0.00420133
0.0036396
0.00366507
0.00374348
0.00359499
0.00356024
0.00365146
0.0036299
0.00376911
0.00358234
0.00358481
0.00409587
0.00409814
0.00431405
0.00431405
0.00431405
0.00431405
0.00431405
0.00431405
0.00431405
0.00431405
0.00431405
0.00431405
0.00431405
0.00431405
0.00431405
0.00431405
0.00431405
0.00431405
0.00431405
0.00431405
0.00431405
0.00431405
0.00431405
0.00431405
0.00431405
0.00431405
0.00431405
0.00431405
0.00431405
0.00431405
0.00431405
0.00431405
0.00431405
0.00431405
0.00431405
0.00431405
0.00431405
0.00431405
0.00431405
0.00431405
0.00431405
0.00431405
0.00431405
0.00431405
0.00431405
0.00431405
0.00431405
0.00431405
0.00431405
0.00431405
0.00431405
0.00431405
0.00431405
0.00431405
0.00431405
0.00431405
0.00431405
0.00431405
0.00431405
0.00431405
0.00431405
0.00431405
0.00431405
0.00431405
0.00431405
0.00431405
0.00431405
0.00431405
0.00431405
0.00431405
0.00431405
0.00431405
0.00431405
0.00431405
0.00431405
0.00431405
0.00431405
0.00431405
0.00431405
0.00431405
0.00431405
0.00431405
0.00431405
0.00431405
0.00431405
0.00431405
0.00431405
0.00431404
0.00431404
0.00431405
0.00431405
0.00431405
0.00431405
0.00431405
0.00431405
0.00431405
0.00431405
0.00431405
0.00431405
0.00431405
0.00431405
0.00431405
0.00431404
0.00431404
0.00431405
0.00431405
0.00431405
0.00431405
0.00431405
0.00431405
0.00431405
0.00431405
0.00431405
0.00431405
0.00431404
0.00431404
0.00431405
0.00431405
0.00431405
0.00431405
0.00431405
0.00431405
0.00431405
0.00431405
0.00431405
0.00431405
0.00431405
0.00431405
0.00431405
0.00431405
0.00431405
0.00431405
0.00431405
0.00431405
0.00431405
0.00431405
0.00431405
0.00431405
0.00431353
0.0043135
0.00348801
0.00427864
0.00428196
0.00431405
0.00431405
0.00431405
0.00431405
0.00431405
0.00431405
0.00431405
0.00431405
0.00431405
0.00431405
0.00431405
0.00431405
0.00431404
0.00394628
0.00393348
0.00408287
0.00431405
0.00431405
0.00431405
0.00431405
0.00431405
0.00431405
0.00431405
0.00431405
0.00431405
0.00431404
0.00431405
0.00431282
0.00412164
0.00395029
0.00420412
0.00431399
0.00431405
0.00431405
0.00431405
0.00431405
0.00431405
0.00431405
0.00431405
0.00431405
0.00431405
0.00431405
0.00431405
0.00431405
0.00431405
0.00431404
0.00431404
0.00431405
0.00431405
0.00431404
0.00431403
0.00431405
0.00431405
0.00431405
0.00431404
0.00431404
0.00431405
0.00431405
0.00431403
0.00431403
0.00431403
0.00431403
0.00431405
0.00431404
0.00431404
0.00431405
0.00431405
0.00431404
0.00431404
0.00431403
0.00431404
0.00431405
0.00431405
0.00431405
0.00431405
0.00431404
0.00431404
0.00431405
0.00431349
0.00431361
0.00431405
0.00330467
0.00385849
0.00386491
0.0040092
0.00400938
0.00299896
0.00431405
0.00431405
0.00431405
0.00431405
0.00431405
0.00431405
0.00431405
0.00431405
0.00431404
0.00431405
0.00431405
0.00431405
0.00431405
0.00431405
0.00431405
0.00431405
0.00431405
0.00431405
0.00431405
0.00431405
0.00431405
0.00431405
0.00431405
0.00431405
0.00431405
0.00431405
0.00431405
0.00431405
0.00431405
0.00431405
0.00431403
0.004314
0.00431405
0.00431405
0.00431405
0.00431405
0.00431405
0.00431405
0.00431405
0.00431405
0.00431405
0.00431405
0.00431405
0.00431405
0.00431405
0.00431405
0.00431405
0.00431405
0.00431405
0.00431405
0.00431405
0.00431405
0.00431405
0.00431405
0.00431405
0.00431405
0.00431277
0.0043137
0.00431362
0.00431398
0.00431395
0.00431363
0.00431327
0.00431284
0.00431354
0.00431405
0.00431405
0.00431405
0.00431405
0.00431405
0.00431405
0.00431405
0.00431405
0.00431405
0.00431405
0.00431405
0.00431405
0.00431405
0.00431405
0.00431405
0.00431405
0.00431405
0.00431405
0.00431404
0.00431404
0.00431405
0.00430859
0.00431263
0.00431265
0.00431273
0.00431268
0.00430877
0.00431405
0.00431405
0.00431405
0.00431405
0.00431405
0.00431405
0.00431405
0.00431405
0.00431405
0.00431405
0.00431405
0.00431405
0.00431405
0.00431405
0.00431405
0.00431405
0.00431405
0.00431405
0.00431404
0.00431404
0.00431405
0.00431033
0.00431398
0.00431399
0.00431289
0.00431293
0.00430988
0.00430438
0.00428798
0.00429014
0.00431405
0.00431405
0.00431405
0.00431405
0.00431405
0.00431405
0.00431405
0.00431405
0.00431405
0.00431211
0.00430105
0.00430374
0.00430751
0.00430799
0.00431194
0.00431405
0.00431405
0.00431405
0.00431405
0.00431405
0.00431405
0.00431405
0.00431405
0.00431405
0.00431359
0.00431247
0.0043126
0.00431134
0.00431158
0.00431335
0.00431376
0.00431354
0.00431404
0.0036972
0.0043101
0.00431022
0.00420773
0.00421335
0.00347552
0.00431297
0.00431283
0.00381988
0.00431405
0.00431393
0.00431399
0.00431399
0.00431393
0.00431405
0.00431391
0.00431402
0.004314
0.00431405
0.00431405
0.00431402
0.00431405
0.00431405
0.00431405
0.00431402
0.00431358
0.00431396
0.00431405
0.00431405
0.00431405
0.00431401
0.00431404
0.00431405
0.00431379
0.00431351
0.00431344
0.00431404
0.00431403
0.00431404
0.00431405
0.00431405
0.00431405
0.00431404
0.00431405
0.00431405
0.00431403
0.00431403
0.00431399
0.00430953
0.00431289
0.0043128
0.00431353
0.00431342
0.00431166
0.00431405
0.00431404
0.00431404
0.0043068
0.00429681
0.00429942
0.00427048
0.00427121
0.00429578
0.0043011
0.00430228
0.00430891
0.00431404
0.00431404
0.00431405
0.00431245
0.00431325
0.00431334
0.00431374
0.00431401
0.00431402
0.00431339
0.00431342
0.00431273
0.00431405
0.00431405
0.00431404
0.00430944
0.00431282
0.00431286
0.00431266
0.00431268
0.00430884
0.00431405
0.00431404
0.00431404
0.00429615
0.0042734
0.00427209
0.00428649
0.00428545
0.00430156
0.00429462
0.00426934
0.00426987
0.00427104
0.00427023
0.00429478
0.00431403
0.00431403
0.00431405
0.00431251