/*--------------------------------*- C++ -*----------------------------------*\
| =========                 |                                                 |
| \\      /  F ield         | OpenFOAM: The Open Source CFD Toolbox           |
|  \\    /   O peration     | Version:  5.x                                   |
|   \\  /    A nd           | Web:      www.OpenFOAM.org                      |
|    \\/     M anipulation  |                                                 |
\*---------------------------------------------------------------------------*/
FoamFile
{
    version     2.0;
    format      ascii;
    class       volScalarField;
    location    "600";
    object      massFlux;
}
// * * * * * * * * * * * * * * * * * * * * * * * * * * * * * * * * * * * * * //

dimensions      [0 0 0 0 0 0 0];

internalField   nonuniform List<scalar> 
6584
(
0.0241652
0.0241651
0.0241651
0.0241652
0.0241652
0.0241652
0.0241652
0.0241652
0.0241652
0.0241652
0.0241652
0.0241652
0.0241652
0.0241652
0.0241652
0.0241652
0.0241652
0.0241652
0.0241652
0.0241652
0.0241651
0.0241651
0.0241651
0.0241651
0.0241387
0.0241388
0.0241388
0.0241388
0.0241388
0.0241389
0.0241389
0.024139
0.024139
0.024139
0.024139
0.024139
0.024139
0.024139
0.024139
0.024139
0.024139
0.0241389
0.0241389
0.0241389
0.0241388
0.0241388
0.0241388
0.0241387
0.0241124
0.0241124
0.0241124
0.0241124
0.0241124
0.0241125
0.0241126
0.0241127
0.0241128
0.0241259
0.0241259
0.0241259
0.0241259
0.0241259
0.0241259
0.0241128
0.0241127
0.0241126
0.0241126
0.0241125
0.0241125
0.0241125
0.0241124
0.0241124
0.024086
0.0240861
0.0240861
0.0240861
0.0240861
0.0240862
0.0240863
0.0240864
0.0240865
0.0240996
0.0240996
0.0240995
0.0240995
0.0240996
0.0240996
0.0240997
0.0240864
0.0240863
0.0240863
0.0240862
0.0240862
0.0240861
0.0240861
0.024086
0.0240597
0.0240597
0.0240598
0.0240598
0.0240598
0.0240598
0.0240599
0.0240599
0.0240732
0.0240733
0.0240731
0.024073
0.024073
0.0240731
0.0240733
0.0240733
0.0240733
0.0240602
0.02406
0.0240599
0.0240599
0.0240598
0.0240597
0.0240597
0.0240334
0.0240334
0.0240334
0.0240335
0.0240335
0.0240336
0.0240336
0.0240467
0.0240466
0.0240466
0.0240531
0.0240528
0.0240528
0.0240531
0.0240469
0.0240471
0.0240471
0.0240341
0.0240339
0.0240337
0.0240336
0.0240335
0.0240334
0.0240334
0.024007
0.0240071
0.0240071
0.0240072
0.0240072
0.0240073
0.0240075
0.0240205
0.0240203
0.0240201
0.024026
0.0240287
0.0240284
0.024026
0.0240272
0.0240211
0.0240211
0.0240082
0.0240078
0.0240075
0.0240074
0.0240073
0.0240072
0.0240071
0.0239807
0.0239808
0.0239808
0.0239809
0.023981
0.0239811
0.0239814
0.0239943
0.0239942
0.0239942
0.0239994
0.0240006
0.0240021
0.0240012
0.0239955
0.0239953
0.0239823
0.0239817
0.0239814
0.0239812
0.023981
0.0239809
0.0239808
0.0239545
0.0239545
0.0239546
0.0239547
0.0239548
0.023955
0.0239553
0.0239683
0.0239683
0.0239686
0.0239737
0.0239749
0.0239771
0.0239763
0.0239703
0.0239698
0.0239566
0.0239558
0.0239553
0.023955
0.0239548
0.0239546
0.0239545
0.0239282
0.0239282
0.0239283
0.0239285
0.0239286
0.0239289
0.0239293
0.0239423
0.0239425
0.0239432
0.0239487
0.0239508
0.0239542
0.0239521
0.0239453
0.0239444
0.0239308
0.0239298
0.0239292
0.0239289
0.0239286
0.0239284
0.0239282
0.0239019
0.0239019
0.0239021
0.0239022
0.0239024
0.0239028
0.0239033
0.0239164
0.0239168
0.0239178
0.0239239
0.0239269
0.0239315
0.023928
0.0239204
0.023919
0.0239051
0.0239039
0.0239032
0.0239027
0.0239023
0.0239021
0.0239019
0.0238756
0.0238757
0.0238758
0.023876
0.0238763
0.0238766
0.0238773
0.0238904
0.023891
0.0238922
0.0238987
0.0239023
0.0239079
0.0239035
0.0238953
0.0238936
0.0238793
0.0238779
0.0238771
0.0238765
0.0238761
0.0238758
0.0238756
0.0238493
0.0238494
0.0238496
0.0238498
0.0238501
0.0238505
0.0238512
0.0238644
0.0238651
0.0238664
0.0238731
0.0238766
0.0238828
0.0238783
0.0238699
0.0238679
0.0238534
0.0238519
0.023851
0.0238503
0.0238498
0.0238495
0.0238492
0.023823
0.0238231
0.0238233
0.0238236
0.0238239
0.0238244
0.023825
0.0238255
0.0238389
0.02384
0.0238464
0.023849
0.0185565
0.0238526
0.0238524
0.0238441
0.0238421
0.0238274
0.0238258
0.0238248
0.023824
0.0238235
0.0238231
0.0238229
0.0237967
0.0237969
0.023797
0.0237973
0.0237977
0.0237981
0.0237987
0.023799
0.0238124
0.0238134
0.0238199
0.023819
0.022661
0.023826
0.0238188
0.0238179
0.0238022
0.023801
0.0237994
0.0237985
0.0237978
0.0237972
0.0237968
0.0237964
0.0237704
0.0237706
0.0237708
0.0237711
0.0237714
0.0237719
0.0237724
0.0237727
0.023786
0.0237872
0.0237871
0.0237924
0.0227431
0.0237929
0.0237925
0.0237916
0.0237759
0.0237747
0.0237731
0.023772
0.0237713
0.0237706
0.0237703
0.02377
0.0237441
0.0237443
0.0237445
0.0237448
0.0237452
0.0237456
0.023746
0.0237465
0.0237471
0.023761
0.0237608
0.0237388
0.023276
0.0237664
0.0237662
0.0237653
0.0237496
0.0237483
0.0237467
0.0237456
0.0237448
0.0237442
0.0237438
0.0237434
0.0237178
0.023718
0.0237182
0.0237185
0.0237189
0.0237192
0.0237197
0.0237203
0.0237209
0.0237215
0.0237346
0.0237007
0.0232635
0.02374
0.0237267
0.0237248
0.0237232
0.0237219
0.0237202
0.0237191
0.0237183
0.0237176
0.0237173
0.0237168
0.0236915
0.0236917
0.0236919
0.0236923
0.0236926
0.0236929
0.0236935
0.0236941
0.0236948
0.0236953
0.0236917
0.0230561
0.0234731
0.0237006
0.0237003
0.0236984
0.0236967
0.0236955
0.0236938
0.0236926
0.0236918
0.0236911
0.0236907
0.0236902
0.0236652
0.0236654
0.0236656
0.023666
0.0236664
0.0236667
0.0236673
0.023668
0.0236686
0.0236691
0.0236628
0.0230326
0.0234487
0.0236743
0.023674
0.0236721
0.0236703
0.023669
0.0236673
0.0236661
0.0236652
0.0236645
0.0236641
0.0236636
0.0236389
0.0236391
0.0236394
0.0236397
0.0236401
0.0236405
0.0236412
0.0236418
0.0236425
0.023643
0.023634
0.0230089
0.023424
0.023648
0.0236476
0.0236457
0.0236439
0.0236425
0.0236408
0.0236396
0.0236387
0.023638
0.0236375
0.023637
0.0236126
0.0236128
0.0236131
0.0236135
0.0236139
0.0236142
0.023615
0.0236157
0.0236164
0.0236169
0.0236053
0.0229851
0.0233992
0.0236217
0.0236213
0.0236194
0.0236175
0.0236161
0.0236142
0.023613
0.0236121
0.0236114
0.0236109
0.0236104
0.0235864
0.0235866
0.0235868
0.0235872
0.0235876
0.023588
0.0235889
0.0235896
0.0235904
0.0235907
0.0235768
0.022961
0.0233743
0.0235954
0.023595
0.023593
0.023591
0.0235896
0.0235877
0.0235865
0.0235855
0.0235848
0.0235843
0.0235838
0.0235601
0.0235603
0.0235606
0.023561
0.0235614
0.0235619
0.0235627
0.0235634
0.0235643
0.0235646
0.0235484
0.0229369
0.0233493
0.0235692
0.0235687
0.0235667
0.0235646
0.0235631
0.0235612
0.0235599
0.0235589
0.0235582
0.0235577
0.0235571
0.0235338
0.023534
0.0235343
0.0235347
0.0235352
0.0235357
0.0235366
0.0235373
0.0235383
0.0235385
0.0235201
0.0229126
0.0233242
0.0235429
0.0235424
0.0235403
0.0235382
0.0235366
0.0235347
0.0235333
0.0235323
0.0235315
0.023531
0.0235305
0.0235075
0.0235078
0.023508
0.0235085
0.023509
0.0235095
0.0235104
0.0235113
0.0235122
0.0235124
0.0234918
0.0228885
0.0232991
0.0235167
0.0235161
0.023514
0.0235118
0.0235102
0.0235081
0.0235068
0.0235057
0.0235049
0.0235044
0.0235038
0.0234813
0.0234815
0.0234818
0.0234822
0.0234828
0.0234833
0.0234843
0.0234852
0.0234862
0.0234864
0.0234633
0.0228645
0.0232741
0.0234905
0.0234899
0.0234877
0.0234854
0.0234837
0.0234817
0.0234802
0.0234792
0.0234783
0.0234778
0.0234772
0.023455
0.0234552
0.0234556
0.023456
0.0234566
0.0234572
0.0234582
0.0234591
0.0234602
0.0234603
0.023435
0.0228405
0.0232491
0.0234643
0.0234637
0.0234615
0.023459
0.0234573
0.0234552
0.0234537
0.0234526
0.0234518
0.0234512
0.0234506
0.0234287
0.023429
0.0234293
0.0234298
0.0234304
0.023431
0.0234321
0.023433
0.0234342
0.0234342
0.0234067
0.0228164
0.023224
0.0234381
0.0234375
0.0234352
0.0234327
0.0234309
0.0234287
0.0234272
0.023426
0.0234252
0.0234246
0.023424
0.0234025
0.0234027
0.0234031
0.0234036
0.0234042
0.0234048
0.023406
0.023407
0.0234082
0.0234082
0.0233785
0.0227922
0.0231989
0.023412
0.0234113
0.0234089
0.0234063
0.0234044
0.0234022
0.0234007
0.0233995
0.0233986
0.023398
0.0233974
0.0233762
0.0233765
0.0233769
0.0233774
0.023378
0.0233787
0.0233799
0.023381
0.0233823
0.0233821
0.0233503
0.0227681
0.0231738
0.0233858
0.0233851
0.0233826
0.0233799
0.023378
0.0233757
0.0233741
0.0233729
0.023372
0.0233714
0.0233708
0.02335
0.0233503
0.0233506
0.0233512
0.0233518
0.0233526
0.0233539
0.023355
0.0233563
0.023356
0.0233221
0.0227439
0.0231487
0.0233596
0.0233589
0.0233564
0.0233536
0.0233515
0.0233492
0.0233476
0.0233463
0.0233454
0.0233448
0.0233442
0.0233238
0.023324
0.0233244
0.0233249
0.0233257
0.0233265
0.0233278
0.023329
0.0233303
0.0233299
0.023294
0.0227197
0.0231236
0.0233335
0.0233327
0.0233301
0.0233272
0.0233251
0.0233227
0.023321
0.0233197
0.0233188
0.0233181
0.0233176
0.0232975
0.0232978
0.0232982
0.0232987
0.0232995
0.0233004
0.0233018
0.023303
0.0233043
0.0233038
0.0232659
0.0226956
0.0230984
0.0233073
0.0233065
0.0233038
0.0233008
0.0232987
0.0232962
0.0232945
0.0232931
0.0232922
0.0232915
0.023291
0.0232713
0.0232716
0.023272
0.0232725
0.0232733
0.0232743
0.0232757
0.023277
0.0232784
0.0232778
0.0232377
0.0226715
0.0230733
0.0232811
0.0232803
0.0232775
0.0232745
0.0232722
0.0232696
0.0232679
0.0232665
0.0232655
0.0232649
0.0232643
0.0232451
0.0232454
0.0232458
0.0232464
0.0232472
0.0232482
0.0232497
0.023251
0.0232524
0.0232517
0.0232095
0.0226474
0.0230482
0.023255
0.0232541
0.0232512
0.0232481
0.0232458
0.0232431
0.0232414
0.02324
0.0232389
0.0232382
0.0232377
0.023978
0.0239797
0.0240014
0.0239538
0.023957
0.0239768
0.0239299
0.0239345
0.0239542
0.0239054
0.0239111
0.0239316
0.0238799
0.0238862
0.0239081
0.0238525
0.0177602
0.0182558
0.0238598
0.023883
0.024004
0.0240283
0.0240047
0.024029
0.0239801
0.0239784
0.0240013
0.0239885
0.0240005
0.02398
0.023982
0.0240007
0.023955
0.023954
0.0239753
0.0239658
0.0239567
0.0239729
0.0239491
0.0239728
0.023957
0.023958
0.0239759
0.0239301
0.02393
0.023951
0.0239419
0.0239111
0.0239246
0.0237668
0.023862
0.0239344
0.0239342
0.023952
0.0239051
0.0239054
0.0239269
0.0239178
0.0238982
0.0239032
0.0238734
0.0238045
0.0239109
0.02391
0.0239282
0.0238887
0.0238974
0.023886
0.0238851
0.0239039
0.0238697
0.0238796
0.0238256
0.0195915
0.0178013
0.0216361
0.0238326
0.0238562
0.0239749
0.0239868
0.0239874
0.0239864
0.0239717
0.0240003
0.023988
0.023974
0.0239877
0.0239886
0.0239874
0.0239759
0.0239277
0.0239534
0.0239627
0.0239319
0.0238524
0.0239685
0.0239362
0.0238681
0.0239478
0.0239654
0.0239558
0.0239288
0.0239748
0.0239569
0.0239682
0.0239038
0.02391
0.0239389
0.0238263
0.0238493
0.0238488
0.0238254
0.0238019
0.0237612
0.023943
0.0239121
0.0239092
0.0239279
0.0239131
0.0239458
0.0238261
0.0238446
0.023851
0.0238228
0.0238972
0.0238772
0.02392
0.0239099
0.023906
0.0239089
0.0239099
0.023923
0.0238557
0.0238553
0.0238466
0.0238552
0.0238809
0.023888
0.0239049
0.0238959
0.0238988
0.0238485
0.0238259
0.0238548
0.0238496
0.0238558
0.023868
0.0239906
0.0239885
0.0240009
0.0239916
0.0239992
0.0238795
0.0238797
0.0239022
0.0238928
0.0238838
0.0238911
0.0236584
0.0235409
0.0238596
0.0238594
0.0238788
0.0239994
0.0239917
0.0240012
0.0239889
0.0239918
0.023892
0.0238975
0.0239147
0.0173303
0.0185377
0.0220139
0.022474
0.0186078
0.0200142
0.0235176
0.023293
0.0238957
0.0238945
0.0238842
0.0225293
0.0228112
0.0238826
0.0238713
0.0238732
0.0240151
0.0240136
0.0240021
0.0240024
0.0240139
0.0240152
0.0239906
0.0239935
0.0239911
0.0239998
0.023992
0.0239951
0.0239586
0.0239628
0.0238204
0.0238255
0.023851
0.0238426
0.0238902
0.0232998
0.0238968
0.0237435
0.0236712
0.0236879
0.023754
0.0238756
0.0238936
0.0239812
0.0237053
0.0239539
0.0236508
0.0239793
0.0239614
0.0239911
0.0239931
0.0239893
0.0239195
0.0239807
0.0239816
0.0238876
0.0238826
0.0239583
0.023956
0.0239016
0.0239062
0.0239352
0.0239606
0.0239649
0.023955
0.0239592
0.0239344
0.023967
0.0239721
0.0239766
0.0239663
0.0239707
0.0239651
0.0238376
0.0238388
0.0238298
0.023828
0.0236963
0.0237053
0.0239046
0.0239387
0.0239427
0.0239332
0.0239373
0.0239039
0.0239214
0.0239495
0.0239536
0.0239441
0.0239482
0.0239204
0.0174418
0.0238352
0.0187473
0.0174298
0.0202164
0.018832
0.0238377
0.0238082
0.0175626
0.0238118
0.0238929
0.0238915
0.0239095
0.0239277
0.0239318
0.023922
0.0239263
0.02391
0.0212935
0.0219144
0.0238514
0.0213723
0.0203151
0.0221956
0.0214888
0.0238526
0.0201556
0.0211902
0.0238843
0.0235512
0.0236747
0.0233279
0.0235258
0.0238854
0.0232365
0.022793
0.0228914
0.018683
0.0228437
0.0227529
0.019648
0.0237383
0.0237499
0.0239975
0.0238534
0.0238526
0.0238764
0.0238667
0.0238631
0.0238725
0.0212527
0.0238358
0.0238504
0.0239973
0.0238735
0.0238826
0.0238896
0.0183936
0.0185055
0.01724
0.0227697
0.0227515
0.0187359
0.0191192
0.0237009
0.0237349
0.0145185
0.0240065
0.024007
0.0240005
0.0240004
0.0240072
0.0240067
0.0239645
0.0239693
0.0239647
0.0239515
0.023954
0.0239684
0.0239154
0.0239451
0.0239408
0.0239511
0.0239466
0.0239173
0.0237919
0.0238472
0.023864
0.0238105
0.0227232
0.0224918
0.0238741
0.0237607
0.0238032
0.0237937
0.0237844
0.019294
0.0239948
0.0239924
0.024
0.0239768
0.0239653
0.0239571
0.0239827
0.0239842
0.023989
0.0239781
0.0239826
0.0239811
0.023938
0.0239571
0.0239526
0.0239632
0.0239586
0.0239417
0.0239124
0.0231293
0.0236151
0.0227948
0.02287
0.0238643
0.0236645
0.0237192
0.0239456
0.0238823
0.0239211
0.0239446
0.0239614
0.0239629
0.0239521
0.0239543
0.0239313
0.0239393
0.0239349
0.0239071
0.0238322
0.022649
0.0223734
0.0238392
0.0226873
0.0227738
0.0223222
0.0223654
0.0238243
0.0237607
0.0237282
0.0239085
0.0239385
0.0239405
0.02393
0.0239329
0.0239073
0.0239252
0.0239492
0.0239514
0.0239411
0.0239431
0.0239163
0.023896
0.0236896
0.0237355
0.0236308
0.0235997
0.0238846
0.0239104
0.0239163
0.0239206
0.0239103
0.0239148
0.0239093
0.0238563
0.0226737
0.0222683
0.0230948
0.0229778
0.0238562
0.0202726
0.0204705
0.023853
0.0232244
0.0231309
0.0200221
0.0202128
0.0229972
0.0227825
0.0239946
0.0239975
0.0239957
0.0224871
0.0236157
0.0226466
0.0227522
0.022727
0.0236007
0.023996
0.0239947
0.0239981
0.0239933
0.0239949
0.0174784
0.0178797
0.0185771
0.0184498
0.0222352
0.0192111
0.0190697
0.0195865
0.0192535
0.022294
0.0189881
0.0192605
0.0234354
0.0233976
0.0226694
0.020108
0.0197668
0.0191573
0.0193571
0.0239877
0.02399
0.0239928
0.0239861
0.023989
0.0239865
0.0239525
0.0239673
0.0237972
0.023842
0.0238619
0.0238148
0.0233501
0.0237519
0.0237195
0.023785
0.0237619
0.0233403
0.0236434
0.0236118
0.0237093
0.0236614
0.0237186
0.0230861
0.0232139
0.0228467
0.0230216
0.0237079
0.0223634
0.0224332
0.0238283
0.0239744
0.0239642
0.0239846
0.0239774
0.0238601
0.0239074
0.0238869
0.023957
0.023916
0.0239837
0.0239894
0.023986
0.0239813
0.0239747
0.023976
0.0239673
0.0239778
0.023971
0.0239811
0.023985
0.0239731
0.0239797
0.0239843
0.0239815
0.0239771
0.0229738
0.0230567
0.0239051
0.0222469
0.0219017
0.0231962
0.0223198
0.0214079
0.0210946
0.0217964
0.0215455
0.0238688
0.0228972
0.0229536
0.0236303
0.0235338
0.0238763
0.0237068
0.0234114
0.0233028
0.0235149
0.0234404
0.0239484
0.0237321
0.0237675
0.0238871
0.0239184
0.0239581
0.0239606
0.0239401
0.0239321
0.0239551
0.0239574
0.0227265
0.0226967
0.0238338
0.0208297
0.0208483
0.0194077
0.0206601
0.0207453
0.0211667
0.0208241
0.0207513
0.0225626
0.0226591
0.0238365
0.0205944
0.0202715
0.0210215
0.0206926
0.0196534
0.0193274
0.0201448
0.0198099
0.0238252
0.0224127
0.0225243
0.0237316
0.0237212
0.023936
0.0239379
0.0239075
0.0239056
0.0239335
0.0239354
0.0239464
0.0239485
0.0239242
0.0239173
0.0239437
0.0239458
0.0175922
0.0180217
0.0228291
0.0229955
0.0226051
0.022769
0.0175617
0.0196806
0.023212
0.0229567
0.0230405
0.0231716
0.0193919
0.0218186
0.0219295
0.0214044
0.0217768
0.0179455
0.0223791
0.0225587
0.0219887
0.0222835
0.017936
0.0236496
0.0236784
0.0238954
0.0235203
0.0235827
0.0235967
0.0235171
0.0235827
0.0238862
0.0235811
0.0236246
0.0215507
0.0183352
0.018373
0.0189542
0.0183759
0.0216402
0.0185869
0.0205602
0.0183845
0.0207316
0.023432
0.0238104
0.023792
0.0238316
0.0238164
0.0234491
0.0231473
0.0231818
0.0205586
0.0207668
0.0195076
0.0199412
0.0231416
0.023046
0.0240054
0.0240071
0.0240267
0.0238699
0.0238682
0.0238577
0.0240027
0.0240031
0.023999
0.0239984
0.024003
0.0240028
0.024015
0.0240144
0.0240031
0.0239755
0.0239708
0.0239668
0.0239499
0.0239252
0.0239211
0.0237728
0.023857
0.0239275
0.0239231
0.023901
0.0237034
0.0236878
0.0238062
0.0237454
0.023768
0.0238975
0.0239802
0.0239818
0.0239771
0.0239362
0.02395
0.0239745
0.0239859
0.0239827
0.0239851
0.0239661
0.023871
0.0239301
0.0238728
0.023917
0.0239126
0.023945
0.0239422
0.023943
0.0239296
0.0239646
0.0239661
0.0239596
0.0239062
0.0239334
0.023929
0.0228567
0.0227446
0.0238441
0.0237968
0.0237248
0.0237181
0.0237557
0.0239111
0.02393
0.0239306
0.023927
0.0239407
0.0239415
0.0239313
0.0239319
0.0239141
0.0238015
0.0230259
0.0229124
0.023908
0.0239275
0.0239287
0.0239012
0.0239041
0.0239087
0.018327
0.0183467
0.0233242
0.0232523
0.0238522
0.0182986
0.0183105
0.0238063
0.023812
0.0238631
0.0239924
0.0239923
0.0172481
0.0174069
0.0174908
0.0184387
0.018684
0.017234
0.0173173
0.0184972
0.0182843
0.0198243
0.0231078
0.0230685
0.0233284
0.0203878
0.0201677
0.0227077
0.0240081
0.0240075
0.024001
0.0239892
0.0239897
0.0239905
0.0239916
0.0239834
0.0239847
0.0239938
0.0239968
0.0239951
0.0239452
0.023943
0.0239555
0.0239649
0.023959
0.0239553
0.0238094
0.0238305
0.0237383
0.0237492
0.0238562
0.0238321
0.0236905
0.0237158
0.023392
0.0233971
0.0235324
0.0235139
0.0232993
0.0234089
0.0234228
0.0238974
0.023777
0.0238014
0.0238699
0.0237645
0.0239048
0.0238878
0.0239733
0.0239661
0.0239384
0.0234507
0.0233772
0.023845
0.0237236
0.0235502
0.0239921
0.0239904
0.0239865
0.023987
0.0239805
0.0239844
0.0239398
0.0239788
0.0239817
0.023779
0.0238364
0.0239644
0.0232814
0.0231901
0.0238972
0.0239106
0.0239709
0.0239725
0.0239705
0.0239606
0.0239677
0.0239693
0.0238428
0.0227315
0.0227228
0.0236967
0.0237105
0.0239365
0.0239372
0.0239223
0.0239194
0.0239351
0.0239358
0.0175488
0.0186406
0.0204873
0.0206006
0.0192503
0.0193495
0.0173045
0.0231065
0.0230471
0.0238048
0.0179149
0.0177566
0.0187044
0.0187289
0.0177008
0.0191464
0.0191948
0.0176326
0.0176712
0.023925
0.0239262
0.023908
0.0239101
0.0239225
0.0239237
0.0208677
0.0231293
0.0231833
0.0230149
0.0230721
0.0206873
0.0236088
0.0238182
0.0238355
0.0238275
0.0238232
0.0236279
0.0233709
0.023581
0.0235561
0.0231747
0.0231225
0.0232451
0.0188037
0.0189156
0.0189884
0.0183149
0.022931
0.0208241
0.0204994
0.0211082
0.0209038
0.0227097
0.0222477
0.0222695
0.0232476
0.0233516
0.0237653
0.0239965
0.0239975
0.0239955
0.018349
0.0183689
0.0205437
0.0205141
0.0168982
0.018953
0.0185093
0.0185085
0.0183806
0.0184561
0.0190624
0.0146309
0.0230894
0.0231373
0.0240039
0.0240033
0.023999
0.0239329
0.0239291
0.0239507
0.0239472
0.0239575
0.0239652
0.023953
0.0239555
0.0237836
0.023852
0.0236217
0.0236402
0.0236404
0.0236207
0.0238079
0.0236766
0.02367
0.0226721
0.0222848
0.0222817
0.022356
0.0223401
0.0226068
0.0239629
0.0239705
0.0239715
0.0239681
0.0239696
0.0239603
0.0238775
0.0239382
0.0239078
0.0238968
0.0239305
0.0239437
0.0239445
0.0237248
0.0237288
0.0237856
0.0237394
0.0239288
0.0239294
0.0239097
0.0239393
0.02394
0.0239261
0.0239153
0.0239325
0.0239332
0.0236314
0.0236922
0.0236677
0.0237121
0.0237048
0.0236248
0.018374
0.0184262
0.0183097
0.0182952
0.0200894
0.0190662
0.0190022
0.0223563
0.0223567
0.0229323
0.0224817
0.0225758
0.0223105
0.0223827
0.0228562
0.0239941
0.0239933
0.0239935
0.0239941
0.0239967
0.023997
0.0239981
0.023995
0.0239957
0.0239958
0.022611
0.0231769
0.0231454
0.0232638
0.0232189
0.0226465
0.0228691
0.0230266
0.0229606
0.0231198
0.0230865
0.022811
0.0239955
0.0239961
0.023995
0.0239899
0.023987
0.0239936
0.0239925
0.0172534
0.018252
0.0175442
0.0175112
0.0185461
0.0185019
0.0200254
0.0201141
0.0191328
0.0172409
0.0171818
0.0187982
0.0177694
0.0177792
0.0177041
0.0195629
0.0179028
0.0175028
0.0231389
0.0231976
0.0234682
0.0229783
0.0229958
0.0229321
0.0229448
0.0233605
0.023052
0.0230767
0.0191967
0.0182159
0.0182981
0.0181583
0.0181532
0.0192559
0.0239886
0.0239895
0.0239888
0.0239844
0.0239857
0.0239876
0.0239312
0.0239537
0.02394
0.0239365
0.0239468
0.02395
0.0239397
0.0239434
0.0238027
0.0238357
0.023664
0.0236695
0.023648
0.0236563
0.0238595
0.0237548
0.0237585
0.0236673
0.0236744
0.0238221
0.0236692
0.0234431
0.0234049
0.0233184
0.0234983
0.0234782
0.0236303
0.0234419
0.0234364
0.0235036
0.0234682
0.023621
0.0236971
0.0235315
0.0235511
0.0234585
0.0234967
0.0236806
0.0234267
0.0229051
0.0233343
0.0233032
0.022319
0.0223547
0.0238152
0.02392
0.0239125
0.0237966
0.0238871
0.0239479
0.0239314
0.0235681
0.0235071
0.0237749
0.0237892
0.0238943
0.0236931
0.0236321
0.0239612
0.0239704
0.0239843
0.0239774
0.0239488
0.023914
0.0239477
0.0239742
0.0239769
0.0239783
0.0239728
0.0239746
0.0239689
0.0239625
0.0239687
0.0239823
0.02398
0.0239784
0.0239838
0.0239812
0.0239836
0.0239749
0.0239766
0.0239729
0.0239764
0.0221572
0.0220217
0.0229509
0.0218025
0.0219301
0.0215313
0.0223859
0.0212876
0.0211834
0.0217053
0.0216285
0.0235828
0.0231528
0.0232597
0.0229322
0.0230399
0.0235546
0.0238567
0.0237057
0.0237517
0.0233234
0.0235975
0.02381
0.0231025
0.0229268
0.0233823
0.0222475
0.0223523
0.0220708
0.0221572
0.0233502
0.0234955
0.0227467
0.0228343
0.0224706
0.0226026
0.023469
0.0238927
0.0239148
0.0208822
0.0196021
0.0197785
0.0192374
0.0194113
0.0208714
0.0197519
0.0198618
0.0198416
0.0202412
0.0208081
0.0182862
0.0184598
0.0186326
0.0183135
0.0209485
0.0208004
0.0189335
0.0190786
0.0186498
0.0188031
0.0207772
0.0205142
0.020419
0.0209447
0.0208091
0.0195152
0.0193916
0.0200375
0.0199492
0.023709
0.0237156
0.0239233
0.0239379
0.0239386
0.0239338
0.0239345
0.0239183
0.0176206
0.0200821
0.0203236
0.0184379
0.0173017
0.0195273
0.0197918
0.018249
0.0180776
0.0218522
0.0198143
0.0198239
0.0215949
0.0195603
0.0191247
0.0198169
0.0197494
0.0217113
0.0186285
0.0184314
0.0188573
0.0190553
0.0178424
0.0179435
0.0184269
0.0236626
0.02378
0.0237712
0.0237926
0.0237866
0.0236705
0.0235416
0.0235712
0.0235683
0.0235152
0.0235146
0.023537
0.0235789
0.0237296
0.0237193
0.0237587
0.0237437
0.0235974
0.0183417
0.0190955
0.0191821
0.0189628
0.0190298
0.0183566
0.0187373
0.0197156
0.0198974
0.0193161
0.0195055
0.0185162
0.0185432
0.0178166
0.0179349
0.0177763
0.0177818
0.0183809
0.018721
0.0188723
0.0181708
0.0184475
0.0183321
0.0236183
0.0236023
0.0234099
0.0231412
0.0232211
0.0185422
0.0187294
0.0196784
0.0185466
0.0182959
0.018921
0.0187885
0.0198303
0.0183477
0.0183334
0.0222756
0.0222925
0.0240598
0.0240597
0.0240731
0.0240596
0.0240595
0.0240729
0.0240595
0.0240596
0.024073
0.0240598
0.02406
0.0240732
0.0240332
0.024033
0.0240464
0.0240327
0.0240325
0.024053
0.0240322
0.0240319
0.0240527
0.024032
0.0240325
0.0240528
0.0240329
0.0240333
0.0240533
0.0240338
0.024034
0.0240469
0.0240071
0.0240065
0.0240263
0.024006
0.0240047
0.0240255
0.0240181
0.0240178
0.0240286
0.0240171
0.0240176
0.0240284
0.0240191
0.0240196
0.0240261
0.0240077
0.0240083
0.024021
0.0239813
0.0239806
0.0239999
0.0239929
0.0239928
0.0239993
0.0239972
0.0239969
0.0240003
0.0239923
0.0239937
0.0240033
0.0239824
0.0239832
0.0239957
0.0239559
0.0239553
0.0239742
0.0239674
0.0239674
0.0239737
0.0239718
0.0239718
0.0239748
0.0239683
0.0239694
0.0239783
0.0239581
0.0239585
0.0239708
0.0239305
0.0239303
0.023949
0.0239425
0.0239428
0.0239489
0.0239478
0.0239479
0.0239509
0.0239457
0.0239461
0.0239548
0.0239341
0.0239339
0.0239462
0.023905
0.0239051
0.023924
0.0239176
0.023918
0.0239243
0.0239239
0.023924
0.0239271
0.0239228
0.0239225
0.0239314
0.0239097
0.0239091
0.0239215
0.0238793
0.0238795
0.0238988
0.0238991
0.0238993
0.0239024
0.0238987
0.0238978
0.0239071
0.0238847
0.0238839
0.0238966
0.0238534
0.0238534
0.0238731
0.0238729
0.0238728
0.0238792
0.0238589
0.0238583
0.0238712
0.0238266
0.0238262
0.0238395
0.0238265
0.0238258
0.0238458
0.0238389
0.0238337
0.0238437
0.0193919
0.0236274
0.0236499
0.0238327
0.0238331
0.0238529
0.0238322
0.0238324
0.0238454
0.0238003
0.0238
0.0238131
0.0238002
0.0237993
0.0238192
0.023799
0.0210997
0.0210195
0.0227256
0.0238058
0.0238259
0.0238059
0.0238066
0.0238262
0.0238057
0.0238059
0.0238191
0.0237739
0.0237734
0.0237866
0.0237591
0.0224177
0.0211224
0.0232813
0.0237781
0.0237989
0.0237796
0.0237802
0.0237934
0.0239779
0.023981
0.0239811
0.0239827
0.0239837
0.023979
0.0240012
0.0239979
0.0239981
0.0239538
0.0239568
0.0239568
0.0239598
0.0239599
0.0239557
0.0239774
0.0239729
0.023974
0.0239301
0.0239331
0.0239329
0.0239373
0.0239378
0.0239336
0.0239543
0.0239501
0.0239514
0.0239056
0.0239087
0.0239085
0.0239141
0.023915
0.0239105
0.0239322
0.023928
0.0239288
0.0238894
0.0238892
0.023886
0.0239076
0.0239046
0.023905
0.0238471
0.0238598
0.0238632
0.0168619
0.0201231
0.0201485
0.0221211
0.0221274
0.0147451
0.0238828
0.0238796
0.0238797
0.0240028
0.0240141
0.0240145
0.0239994
0.0239994
0.0239983
0.0240284
0.0240174
0.024017
0.0239994
0.0239996
0.0240082
0.0240079
0.0240045
0.0240289
0.0240181
0.0240185
0.02398
0.0239863
0.0239865
0.0239879
0.0239861
0.0239798
0.0239989
0.0239925
0.0239912
0.0239901
0.0239897
0.0239869
0.0240002
0.0239983
0.0239987
0.0239813
0.0239906
0.0239892
0.0239882
0.0239882
0.0239822
0.0240006
0.0239944
0.0239944
0.0239551
0.0239612
0.0239612
0.023963
0.0239613
0.0239552
0.0239736
0.0239674
0.023966
0.0239657
0.0239688
0.0239688
0.0239595
0.0239639
0.0239621
0.0239743
0.0239726
0.023971
0.0239702
0.023967
0.0239713
0.0239577
0.0239664
0.0239655
0.0239639
0.0239643
0.0239585
0.0239762
0.0239702
0.0239699
0.0239304
0.0239366
0.0239363
0.023939
0.0239369
0.0239308
0.0239491
0.023943
0.023942
0.023942
0.0239449
0.0239449
0.0239124
0.0239349
0.0239335
0.0239444
0.0239426
0.0239219
0.0239344
0.0239431
0.0239429
0.0239402
0.0239408
0.0239349
0.0239526
0.0239467
0.0239461
0.0239055
0.0239118
0.0239114
0.0239147
0.0239122
0.0239059
0.0239246
0.0239184
0.0239178
0.023918
0.023921
0.0239208
0.0239003
0.0239215
0.0239171
0.0239215
0.0239202
0.0239024
0.0238697
0.0237758
0.0237878
0.0239103
0.0239193
0.0239199
0.0239161
0.023917
0.0239109
0.023929
0.023923
0.0239222
0.0238893
0.0238297
0.0238418
0.0238749
0.0238767
0.0238975
0.0238856
0.0238918
0.0238956
0.0238914
0.0238922
0.0238859
0.0239047
0.0238985
0.0238977
0.0238712
0.0238646
0.0238636
0.0238684
0.0238681
0.0238783
0.0238224
0.0238303
0.0238323
0.0193684
0.0237809
0.0237673
0.022759
0.0227656
0.0179895
0.0238232
0.0238327
0.0213584
0.0238393
0.0238403
0.023831
0.0238542
0.0238436
0.023846
0.0239767
0.0239776
0.0239759
0.0239883
0.0239834
0.0239819
0.0239842
0.0239841
0.0239873
0.0239847
0.0239822
0.0239864
0.0239984
0.0239981
0.024
0.0239875
0.0239893
0.0239897
0.023975
0.023973
0.0239719
0.0239875
0.0239865
0.0239868
0.0239885
0.0239854
0.0239856
0.0239858
0.0239863
0.0239879
0.023977
0.0239785
0.0239778
0.0239309
0.0239481
0.0239462
0.0239602
0.0239582
0.0239495
0.0239598
0.0239598
0.0239627
0.0239266
0.0238759
0.0238904
0.0237149
0.0237213
0.0238561
0.0238999
0.0239068
0.0239396
0.0239656
0.0239613
0.0239626
0.0239543
0.023959
0.0239602
0.0239715
0.023974
0.0239755
0.0239612
0.0239621
0.0239578
0.0239711
0.0239714
0.023967
0.0239046
0.0239241
0.0239228
0.0239321
0.0239307
0.023909
0.0239359
0.023936
0.023939
0.0238284
0.0236719
0.0236658
0.0237316
0.023726
0.0238474
0.0238454
0.023703
0.0237089
0.0236616
0.0236592
0.0238242
0.0239433
0.0239392
0.0239402
0.0239243
0.0239247
0.0239092
0.0239486
0.0239488
0.0239447
0.0238293
0.0234189
0.0233533
0.0236663
0.0236532
0.0238425
0.0238527
0.0237426
0.0237372
0.0233324
0.0232589
0.0238193
0.0238969
0.0238702
0.0238728
0.0238006
0.0238111
0.0238804
0.0239209
0.0239165
0.0239171
0.0239096
0.0239173
0.0239186
0.0239092
0.0239105
0.0239072
0.0239086
0.0239234
0.0239239
0.0239199
0.0239212
0.02391
0.0239259
0.0239266
0.0239223
0.023856
0.0237605
0.0237543
0.0237868
0.0237835
0.0238557
0.0238483
0.0236903
0.0236785
0.0237474
0.0237397
0.0238545
0.0238821
0.0238686
0.0238686
0.0238452
0.0238536
0.0238872
0.0239037
0.0239063
0.0239077
0.0238979
0.0239025
0.0238999
0.0239019
0.0239016
0.0238985
0.0238447
0.0233919
0.0233444
0.0232839
0.0233651
0.023842
0.0238543
0.0237924
0.0237898
0.0238613
0.0238119
0.0238093
0.0239905
0.0239937
0.0239939
0.0239936
0.0239949
0.0239899
0.024
0.0239966
0.0239954
0.0239987
0.0239975
0.023998
0.0238895
0.0238868
0.0238803
0.0238996
0.0238932
0.0238927
0.0238929
0.0238961
0.023896
0.0238872
0.0238953
0.0238921
0.0239015
0.0238984
0.0238882
0.0236445
0.0234799
0.0235048
0.0233102
0.0233509
0.0235635
0.0238598
0.0238663
0.0238696
0.0239983
0.0239979
0.0239991
0.0239904
0.023992
0.0239928
0.0239957
0.0239973
0.0240024
0.0239906
0.0239956
0.023994
0.0239949
0.0239947
0.0239916
0.0238945
0.0239094
0.0239045
0.0239155
0.023911
0.0238953
0.0239116
0.0239118
0.0239149
0.0220977
0.0211444
0.0210544
0.0216163
0.0215246
0.0224133
0.0234942
0.0232353
0.0232701
0.0238954
0.0238923
0.0238926
0.0238902
0.0238916
0.0238962
0.0238853
0.0238899
0.0238887
0.0225817
0.0217932
0.0217074
0.0221619
0.0221052
0.0227777
0.0238778
0.0238789
0.0238821
0.0238724
0.0238757
0.0238762
0.0238765
0.0238763
0.0238731
0.0240153
0.0240092
0.0240088
0.0240098
0.0240095
0.0240155
0.0240011
0.0240075
0.0240079
0.0240043
0.0240041
0.0240021
0.0240156
0.0240096
0.0240101
0.0240089
0.0240093
0.0240153
0.0239937
0.0239907
0.0239918
0.0239963
0.0239978
0.0239998
0.0239925
0.0239935
0.0239929
0.0239969
0.0239965
0.0239947
0.0238074
0.0238246
0.0238898
0.023897
0.0238834
0.0238843
0.0237363
0.0236307
0.0236435
0.0235275
0.0235472
0.0236827
0.0237214
0.0238343
0.0238312
0.0238391
0.0238369
0.0237304
0.0238769
0.0238676
0.023867
0.0239745
0.0239805
0.023983
0.023977
0.023955
0.0239713
0.0239679
0.0239806
0.0239772
0.023992
0.0239909
0.0239897
0.0239913
0.023991
0.0239927
0.0239797
0.0239787
0.0239798
0.0239825
0.0239817
0.0239807
0.0237754
0.0237852
0.0238928
0.0238779
0.0237585
0.0237666
0.0239414
0.0239461
0.0239605
0.0239535
0.0239321
0.0239368
0.0239485
0.0239495
0.0239361
0.023962
0.0239613
0.0239598
0.0239642
0.0239627
0.0239635
0.0239564
0.0239556
0.0239542
0.0239584
0.023957
0.0239578
0.0239337
0.0239468
0.0239476
0.0239692
0.0239702
0.0239684
0.0239736
0.0239731
0.0239716
0.023976
0.0239746
0.0239751
0.0239678