/*--------------------------------*- C++ -*----------------------------------*\
| =========                 |                                                 |
| \\      /  F ield         | OpenFOAM: The Open Source CFD Toolbox           |
|  \\    /   O peration     | Version:  5.x                                   |
|   \\  /    A nd           | Web:      www.OpenFOAM.org                      |
|    \\/     M anipulation  |                                                 |
\*---------------------------------------------------------------------------*/
FoamFile
{
    version     2.0;
    format      ascii;
    class       volScalarField;
    location    "600";
    object      p;
}
// * * * * * * * * * * * * * * * * * * * * * * * * * * * * * * * * * * * * * //

dimensions      [0 2 -2 0 0 0 0];

internalField   nonuniform List<scalar> 
6584
(
20.9995
19.175
17.3501
15.5254
13.7008
11.8762
10.0517
8.22758
6.4037
4.57969
2.75505
0.929188
-0.898241
-2.72708
-4.55671
-6.38646
-8.21581
-10.0447
-11.8731
-13.7012
-15.529
-17.356
-19.1822
-21.0073
21.0011
19.1794
17.3557
15.5314
13.707
11.8814
10.0546
8.22896
6.40488
4.58114
2.75677
0.93109
-0.896411
-2.72556
-4.55559
-6.38616
-8.21686
-10.0472
-11.8775
-13.7069
-15.5349
-17.3621
-19.187
-21.0086
21.0015
19.1826
17.3623
15.5396
13.7156
11.89
10.061
8.23199
6.40665
5.03869
3.21566
1.39105
-0.436063
-2.26573
-4.0969
-6.38999
-8.22521
-10.0576
-11.8879
-13.7164
-15.5433
-17.3684
-19.1899
-21.0096
21.0015
19.1833
17.3647
15.5448
13.7224
11.8981
10.0694
8.2389
6.4109
5.04111
3.2198
1.39689
-0.430097
-2.26241
-4.10221
-5.94113
-8.24133
-10.0718
-11.8996
-13.7259
-15.5503
-17.3719
-19.1913
-21.0104
21.0011
19.1831
17.3649
15.5465
13.7267
11.9041
10.0786
8.25388
6.87623
5.0461
3.22565
1.40529
-0.421137
-2.26641
-4.12169
-5.96531
-7.7983
-10.0848
-11.9098
-13.7335
-15.5546
-17.3739
-19.1925
-21.0111
21.0007
19.1828
17.3646
15.5466
13.7282
11.9082
10.0873
8.72124
6.89794
5.0741
3.47146
1.64839
-0.174103
-2.05057
-4.14614
-5.98461
-7.81265
-10.0957
-11.9184
-13.7386
-15.5573
-17.3755
-19.1936
-21.0118
21.0003
19.1824
17.3643
15.5461
13.7278
11.9091
10.0896
8.72366
6.90466
5.08927
3.506
1.80368
-0.0136772
-2.07433
-3.94056
-6.00454
-7.82743
-10.1056
-11.9247
-13.7422
-15.5596
-17.377
-19.1946
-21.0124
20.9999
19.1819
17.3637
15.5454
13.727
11.9081
10.0892
8.72407
6.90211
5.08152
3.49457
1.81186
-2.03054
-3.97867
-6.025
-7.84069
-10.1121
-11.9289
-13.745
-15.5615
-17.3783
-19.1954
-21.0128
20.9996
19.1815
17.3632
15.5447
13.726
11.9065
10.0866
8.72152
6.89581
5.06589
3.46119
1.72322
-2.14869
-4.01963
-6.04103
-7.84798
-10.1141
-11.9305
-13.7467
-15.5628
-17.379
-19.1959
-21.0129
20.9993
19.1811
17.3628
15.5441
13.7252
11.9055
10.085
8.71832
6.88921
5.05453
3.44056
1.68566
-2.2003
-4.04132
-6.0476
-7.84992
-10.1121
-11.9283
-13.7458
-15.563
-17.3792
-19.196
-21.0127
20.9992
19.1808
17.3624
15.5437
13.7247
11.905
10.0843
8.71676
6.88712
5.0535
3.44212
1.7014
-2.17503
-4.03101
-6.03987
-7.84382
-10.1059
-11.9222
-13.7411
-15.561
-17.3788
-19.1956
-21.0123
20.9992
19.1807
17.3623
15.5436
13.7247
11.9054
10.0848
8.71702
6.88937
5.06075
3.45896
1.74301
-2.10322
-3.99621
-6.02022
-7.83037
-10.0954
-11.9133
-13.7333
-15.5554
-17.3765
-19.1948
-21.0115
20.9992
19.1808
17.3624
15.5439
13.7252
11.9064
10.0863
8.71894
6.89397
5.07083
3.47866
1.78476
-2.02577
-3.95248
-5.99452
-7.81215
-10.0814
-11.9018
-13.7236
-15.5474
-17.3722
-19.1934
-21.0105
20.9993
19.1809
17.3626
15.5442
13.7259
11.9075
10.0877
8.26573
6.89791
5.07593
3.48404
1.7792
0.0661812
-2.06963
-3.9122
-5.96594
-7.79149
-10.0648
-11.8881
-13.712
-15.5391
-17.3663
-19.1902
-21.0092
20.9995
19.181
17.3628
15.5445
13.7263
11.9079
10.0871
8.26115
6.89349
5.05955
3.46182
1.64998
-0.169841
-2.03346
-4.10763
-5.9421
-8.22688
-10.0531
-11.8789
-13.7037
-15.5315
-17.3584
-19.1834
-21.0064
20.9995
19.1811
17.3628
15.5445
13.7261
11.9072
10.0843
8.25278
6.87738
5.051
3.23053
1.63737
-0.192048
-2.25821
-4.09849
-5.93332
-8.21986
-10.047
-11.873
-13.701
-15.5269
-17.3527
-19.1778
-21.0034
20.9995
19.181
17.3626
15.5441
13.7255
11.9055
10.0798
8.24741
6.41683
5.04891
3.22572
1.40072
-0.424728
-2.26027
-4.09629
-5.92816
-8.21328
-10.0402
-11.8674
-13.6954
-15.5225
-17.3489
-19.1762
-21.0018
20.9995
19.1809
17.3623
15.5435
13.7243
11.9023
10.0743
8.24269
6.41505
4.59111
3.22241
1.39809
-0.432198
-2.26245
-4.55116
-6.38107
-8.20924
-10.0365
-11.8637
-13.6912
-15.5181
-17.3449
-19.1722
-20.9996
20.9994
19.1806
17.3617
15.5428
13.7231
11.8988
10.0689
8.2393
6.41308
4.58879
2.76088
0.937042
-0.890069
-2.72247
-4.54983
-6.37922
-8.20679
-10.034
-11.861
-13.6882
-15.5151
-17.3421
-19.169
-20.9975
20.9992
19.1802
17.3611
15.5419
13.7218
11.896
10.0654
8.23746
6.41162
4.58714
2.75984
0.935001
-0.892254
-2.72234
-4.54907
-6.37785
-8.20493
-10.0321
-11.8589
-13.6859
-15.5128
-17.3398
-19.1665
-20.9958
20.999
19.1798
17.3604
15.5409
13.7204
11.894
10.0631
8.23612
6.41055
4.58584
2.75887
0.933216
-0.893857
-2.72235
-4.54869
-6.37688
-8.20357
-10.0307
-11.8572
-13.684
-15.511
-17.3379
-19.1644
-20.9944
20.9987
19.1793
17.3596
15.5398
13.719
11.8925
10.0615
8.23505
6.40942
4.5848
2.75799
0.932128
-0.894676
-2.72242
-4.54851
-6.37622
-8.20259
-10.0296
-11.8559
-13.6826
-15.5095
-17.3362
-19.1627
-20.9932
20.9984
19.1788
17.3588
15.5388
13.7177
11.8911
10.0603
8.2338
6.40843
4.58397
2.75739
0.931415
-0.895221
-2.72247
-4.5484
-6.37574
-8.20187
-10.0287
-11.8549
-13.6815
-15.5082
-17.3348
-19.1612
-20.9922
20.9981
19.1783
17.3581
15.5378
13.7165
11.8898
10.0592
8.23266
6.40755
4.58311
2.75691
0.930907
-0.895613
-2.72251
-4.54833
-6.37534
-8.20133
-10.028
-11.854
-13.6805
-15.5072
-17.3337
-19.1599
-20.9913
20.9978
19.1777
17.3573
15.5367
13.7152
11.8886
10.0581
8.2316
6.40656
4.58227
2.75652
0.930513
-0.895888
-2.72253
-4.54827
-6.37506
-8.20089
-10.0274
-11.8533
-13.6798
-15.5063
-17.3327
-19.1589
-20.9906
20.9975
19.1772
17.3565
15.5357
13.714
11.8875
10.0571
8.23061
6.40557
4.58147
2.75568
0.929811
-0.896453
-2.7228
-4.54845
-6.37502
-8.20078
-10.0272
-11.8531
-13.6795
-15.5057
-17.3319
-19.1579
-20.9899
20.9971
19.1767
17.3558
15.5348
13.7129
11.8864
10.0562
8.22974
6.40463
4.58003
2.75422
0.928435
-0.897665
-2.72385
-4.54945
-6.37585
-8.20154
-10.0279
-11.8537
-13.68
-15.5059
-17.332
-19.1579
-20.9897
20.9968
19.1762
17.3551
15.534
13.7118
11.8854
10.0554
8.22889
6.40333
4.57823
2.75248
0.926685
-0.899383
-2.72547
-4.55102
-6.37728
-8.2029
-10.0291
-11.8549
-13.6811
-15.5069
-17.333
-19.1588
-20.99
20.9965
19.1757
17.3544
15.5331
13.7108
11.8844
10.0545
8.22766
6.40164
4.57651
2.75076
0.924978
-0.901059
-2.72707
-4.55257
-6.37871
-8.20427
-10.0304
-11.8561
-13.6822
-15.508
-17.3339
-19.1597
-20.9903
20.9962
19.1752
17.3538
15.5323
13.7099
11.8834
10.0533
8.22595
6.39997
4.57479
2.74909
0.923307
-0.902699
-2.72862
-4.55411
-6.38014
-8.20565
-10.0317
-11.8574
-13.6833
-15.509
-17.3349
-19.1607
-20.9906
20.9959
19.1748
17.3531
15.5316
13.7089
11.882
10.0514
8.22423
6.3983
4.57309
2.74743
0.921664
-0.904312
-2.73016
-4.55562
-6.38157
-8.20704
-10.033
-11.8586
-13.6845
-15.5101
-17.336
-19.1617
-20.991
20.9957
19.1743
17.3526
15.5309
13.7073
11.8795
10.0493
8.22252
6.39665
4.57143
2.74579
0.920041
-0.905902
-2.73169
-4.55713
-6.38297
-8.20842
-10.0343
-11.8598
-13.6857
-15.5113
-17.3371
-19.1627
-20.9914
20.9954
19.1739
17.352
15.5298
13.7048
11.8766
10.0473
8.22081
6.39501
4.56975
2.74417
0.918441
-0.907474
-2.73321
-4.5586
-6.3844
-8.2098
-10.0356
-11.8611
-13.6869
-15.5124
-17.3382
-19.1638
-20.9918
20.9952
19.1736
17.3515
15.5282
13.7018
11.8737
10.0453
8.2191
6.39337
4.5681
2.74253
0.916859
-0.909032
-2.73469
-4.56008
-6.3858
-8.21118
-10.0369
-11.8624
-13.6881
-15.5136
-17.3393
-19.1648
-20.9921
20.995
19.1732
17.351
15.5266
13.699
11.871
10.0432
8.21738
6.39169
4.56641
2.74088
0.915296
-0.910575
-2.73615
-4.56155
-6.38717
-8.21257
-10.0383
-11.8636
-13.6893
-15.5148
-17.3404
-19.1659
-20.9925
20.9949
19.1729
17.3507
15.5255
13.6971
11.8686
10.0413
8.21567
6.3901
4.56475
2.73924
0.913773
-0.912097
-2.73759
-4.563
-6.38857
-8.21396
-10.0396
-11.865
-13.6906
-15.516
-17.3416
-19.1671
-20.993
1.73198
-1.92033
-1.79892
1.68713
-1.98672
-1.93379
1.69731
-1.96623
-1.98896
1.73728
-1.89273
-1.95884
1.78053
-1.80843
-1.88214
1.79221
0.192091
0.0699923
-1.7368
-1.79848
1.82099
0.216863
-1.78142
-1.71155
3.46927
1.96603
2.03436
-1.04274
-0.896838
-2.13679
-3.56429
-3.5243
3.44356
1.92366
1.95806
1.70223
0.924522
0.953882
-1.21416
-1.17142
-2.19789
-3.59888
-3.57584
3.43984
1.93077
1.92224
1.6862
0.911625
0.907242
-1.25113
-1.25632
-2.18203
-3.59526
-3.60172
3.454
1.96607
1.93438
1.71555
0.964489
0.940003
-1.13782
-1.19103
-2.11301
-3.55947
-3.58857
-1.00959
-1.08612
-2.03505
-3.51047
-3.54769
-0.906828
-0.950003
1.65405
0.16593
0.182633
-0.0607497
-1.56612
-1.72844
0.958943
1.00971
1.76372
0.891248
0.838288
0.998172
0.901118
-1.16801
-1.08362
-1.87328
-1.16361
-1.22113
0.907739
0.921072
1.69714
0.831872
0.815433
0.833571
0.833157
-1.25189
-1.21953
-1.97185
-1.27395
-1.29225
-1.22393
-1.27011
-1.9644
0.936467
0.914555
1.6881
0.82183
0.848814
0.815925
0.819421
-1.19651
-1.24706
-1.9833
-1.28657
-1.25273
-1.2953
-1.2902
-1.98684
0.852425
0.880743
0.85131
0.848621
-1.0895
-1.1364
-1.92288
-1.19147
-1.17327
-1.24826
-1.19349
-1.9326
0.922589
0.943811
0.884717
0.91829
-0.956508
-1.00301
-1.16691
-1.12144
-1.84993
0.967282
0.943232
0.94579
0.96491
-0.853451
-0.902314
1.77574
1.0199
1.1054
-0.550476
-0.396267
3.47406
2.0052
1.97124
1.7604
1.02991
0.998671
-0.497102
-0.522969
-1.96722
-3.46393
-3.49804
0.622129
0.499463
-1.0189
-1.1493
-1.85502
0.994772
0.968232
1.72076
0.433138
0.45134
0.519895
0.526156
0.448837
0.468742
-0.52695
-0.551128
-1.83946
-1.11494
-1.06989
0.527548
0.535961
-1.0637
-1.02195
-1.76973
0.22299
0.95586
1.01004
-0.877856
-0.748892
0.0949894
-0.578113
-0.98495
-0.628531
-0.466337
-0.609635
-0.963687
-1.19305
-1.19482
-1.26517
-1.26497
-1.16658
-1.16434
-1.02883
-0.636821
-1.06154
-0.471152
-0.494441
-0.5813
-0.556329
-0.930512
0.432239
0.86384
0.468572
0.48888
0.470465
0.856211
0.492055
0.551623
0.940299
0.485045
0.431279
-1.1334
-1.12897
0.818112
0.818325
0.846032
0.844829
-1.22554
-1.22244
-1.26538
-1.61508
-1.60488
-1.62603
-1.61803
-1.26848
-1.24456
-1.58075
-1.56127
-1.60082
-1.58614
-1.24516
0.835154
0.837122
0.814818
0.815635
-1.20907
-1.21375
-1.25576
-1.61323
-1.62383
-1.59471
-1.60892
-1.2515
-1.30375
-1.63101
-1.62791
-1.62654
-1.63077
-1.30377
0.437064
0.863883
0.489076
0.468226
0.506779
0.487365
0.867909
0.832649
0.4719
0.836439
-1.11247
-1.11489
-1.2207
-1.57308
-1.58909
-1.55066
-1.56763
-1.21946
0.505922
0.518951
0.898548
0.525867
0.506513
0.558905
0.529574
0.903471
0.472019
0.503498
-0.976243
-0.607449
-0.584898
-0.629523
-0.607194
-0.983027
-0.544989
0.527501
0.542263
0.199743
0.537742
0.522961
-0.0123801
-0.417151
-0.468469
-0.0592059
3.48801
2.13247
2.00913
1.79594
1.12904
1.1149
-0.025503
-0.740361
-0.788237
0.436109
1.05548
1.03393
1.76591
0.291526
0.283591
0.178966
0.527026
0.510616
0.292992
0.30726
-0.364721
-0.401752
0.0319834
0.311267
0.624534
0.634393
-0.37397
-0.276814
0.175458
0.934699
1.29541
1.2842
-1.19737
-1.03547
-1.17973
0.907618
1.26958
1.27148
1.26967
1.26816
0.907079
-1.2598
-1.26112
-1.15067
-1.17051
-0.229561
-0.23384
-0.924274
-0.553263
-0.560254
0.886206
0.876507
0.204872
0.954991
0.563817
0.672628
-1.15116
-0.994816
-1.0286
-1.20338
-1.51805
-1.48378
-1.55375
-1.52715
-1.214
0.910432
1.2739
1.26927
1.28243
1.2745
0.911817
0.823278
0.628121
0.655359
0.625733
0.624597
0.816933
0.658079
0.657898
0.838377
-1.24289
-1.21329
-1.26992
-1.42743
-1.39976
-1.44904
-1.44302
-1.28359
1.27386
1.27853
0.924151
0.828129
0.65143
0.627904
0.814761
0.625486
0.626082
0.623239
0.621675
0.817056
-1.19472
-1.23475
-1.27482
-1.4387
-1.44454
-1.37862
-1.41426
-1.25196
-1.30055
-1.45363
-1.44935
-1.44744
-1.45104
-1.2985
-1.09882
-0.926002
-0.924196
-0.990916
-0.972175
-1.12856
-1.19977
-1.52736
-1.54486
-1.50399
-1.52135
-1.1936
0.933385
0.572163
0.561439
0.609831
0.604917
0.93618
0.3292
0.333611
0.953486
0.619201
0.61233
0.32288
0.327838
-0.223393
-0.22313
-0.495558
-0.166292
-0.471257
-0.277142
-0.50923
-0.337473
-0.313475
-0.349137
-0.514078
0.563183
0.389325
0.490014
0.366953
0.5437
0.425522
0.436831
0.309696
0.296353
0.522401
0.349833
0.357843
0.348337
0.346356
0.522501
0.444998
0.45052
-0.535156
-0.536056
0.530921
0.362278
0.355453
0.304409
0.299262
-0.673349
-0.826087
-0.78585
-0.868771
-0.83785
-0.693888
-1.19263
-1.1845
-1.26197
-1.26384
-1.15645
-1.16474
-0.670915
-0.82297
-0.833281
-0.809779
-0.821058
-0.665973
-0.843107
-0.865836
-0.83809
-0.839701
-0.481045
-0.299
-0.291116
-0.320368
-0.300975
-0.483808
-0.240039
-0.271981
0.459686
0.655959
0.646455
0.679116
0.660559
0.460546
0.624408
0.625814
0.641852
0.625904
0.517876
0.704842
0.684649
0.459585
0.454469
-0.977364
-0.987865
-1.14755
-0.935418
-0.899597
-0.878447
-0.924595
-0.906394
-1.11073
-0.957162
-0.970157
0.621265
0.622966
0.821901
0.562077
0.561069
0.600068
0.564285
0.56489
0.566722
0.562261
0.565724
0.816589
0.624623
0.62217
0.599184
0.591659
0.625666
0.608092
0.597536
0.60156
0.59269
0.596078
0.83917
0.657459
0.656782
-1.24006
-1.21512
-1.43358
-1.42766
-1.26522
-1.28053
-1.44216
-1.43469
0.658819
0.654435
0.830712
0.600341
0.60137
0.556637
0.59518
0.594072
0.605904
0.600314
0.595998
0.624292
0.625475
0.815386
0.566344
0.564454
0.567313
0.566231
0.560924
0.558129
0.564121
0.562404
0.815939
0.622568
0.623874
-1.19578
-1.22863
-1.42784
-1.43528
-1.26964
-1.24741
-1.41711
-1.4243
-1.45525
-1.45323
-1.30233
-1.30053
-1.45321
-1.454
0.436979
0.473374
0.655745
0.661966
0.64478
0.652479
0.460556
0.500556
0.675159
0.650828
0.664053
0.672061
0.49306
0.623412
0.622579
0.61504
0.622876
0.480473
0.637714
0.643374
0.62341
0.634813
0.47506
-0.950824
-0.932514
-1.10281
-0.883301
-0.910134
-0.869919
-0.873713
-0.914395
-1.12399
-0.962635
-0.945205
0.510178
0.337296
0.34822
0.355973
0.333937
0.512099
0.31179
0.483412
0.349816
0.489425
-0.627831
-0.797746
-0.806325
-0.783234
-0.794132
-0.619613
-0.567078
-0.578128
0.337026
0.350489
0.303764
0.320768
-0.197659
-0.221721
-2.01598
-3.51126
-3.47974
-1.76106
-1.0715
-1.0376
0.362081
0.49638
0.486844
-0.0289229
0.017822
0.292006
-1.74498
-1.00384
-1.00199
1.31289
1.29836
0.938733
-1.20825
-1.16646
-1.17328
-1.25554
-1.25792
1.29166
1.29952
0.949928
-1.15006
-1.1422
-1.18447
-0.92144
-0.904343
-1.07529
0.976858
1.33507
1.31712
0.68573
0.688915
0.843235
-0.928469
-0.95088
-1.10523
0.855707
0.670325
0.68442
-1.24835
-1.18057
-1.18665
-1.22308
-1.34882
-1.34636
-1.28919
-1.39517
-1.38891
-1.2556
0.926994
1.28154
1.2883
0.667054
0.658082
0.843187
-1.20039
-1.16233
-1.15625
-1.24321
-1.28297
-1.34173
-1.34466
-1.29726
-1.35291
-1.35106
-1.34757
-1.35018
-1.2938
0.826406
0.680059
0.672007
-1.23202
-1.3698
-1.37582
-1.14727
-1.48005
-1.49798
0.219166
0.218895
0.633345
0.622308
0.955869
0.217574
0.218608
-0.554253
-0.535287
-0.885821
-0.537914
-0.488533
0.429247
0.399506
0.40326
0.45236
0.445968
0.390582
0.395154
0.412313
0.407935
0.465188
-0.504355
-0.495092
-0.546845
0.360348
0.361241
0.531835
-0.83412
-0.422637
-0.446088
-0.597299
-0.640806
-0.693471
-0.67859
-0.771724
-0.755374
-0.772843
-0.732858
-0.551351
-1.13703
-1.14037
-1.19068
-1.19347
-1.13983
-1.14205
-1.26665
-1.26507
-1.11276
-1.11052
-1.16568
-1.16125
-1.10842
-1.10749
-0.713874
-0.722941
-0.691575
-0.698279
-0.646481
-0.732721
-0.741563
-1.07177
-0.900592
-0.893749
0.433849
0.466424
0.523859
0.524055
0.552879
0.546396
0.484519
0.505722
0.508952
0.520971
0.504308
0.464856
0.704957
0.7107
0.52538
0.473049
0.40813
0.411432
0.433694
-0.80094
-0.78964
0.656838
0.664244
0.853703
0.51135
0.513551
-1.22976
-1.21955
-1.37318
-1.36742
-1.23587
-1.25123
-1.38279
-1.37779
0.84117
0.657952
0.658806
-1.20335
-1.21821
-1.35827
-1.35812
-1.30367
-1.30394
-1.35803
-1.35815
0.440441
0.489597
0.544256
0.54538
0.523849
0.522543
0.463984
0.6842
0.681618
0.829237
0.506651
0.503246
0.513553
0.520239
0.475585
0.527707
0.52605
0.499468
0.49687
-1.35782
-1.36323
-1.227
-1.20916
-1.3464
-1.35267
0.512708
0.66368
0.669668
0.653512
0.657688
0.508433
-0.596346
-0.742339
-0.780116
-0.729603
-0.736327
-0.593924
-0.627573
-0.688054
-0.688046
-0.548172
-0.509412
-0.593516
0.193943
0.229421
0.241455
0.212876
0.547548
0.374774
0.363579
0.384072
0.377337
0.519109
-0.0583355
-0.0887797
-0.286251
-0.282153
-0.457863
0.407382
0.436116
0.373948
0.28688
0.28358
0.332402
0.334026
0.169729
0.306818
0.262012
0.25783
0.255864
0.259858
0.308767
0.104796
-0.149458
-0.186449
-0.334908
-0.0738985
-0.11932
-1.15488
-1.16031
-1.20262
-1.03919
-1.06738
-1.07069
-1.07863
-1.07202
-1.25856
-1.25917
-1.03636
-1.04401
-1.02215
-1.02822
-1.17731
-1.13363
-1.12548
-0.237325
-0.182598
-0.17178
-0.195529
-0.191265
-0.241458
-1.00503
-1.04938
-1.0422
-1.06678
-1.05849
-1.017
-1.24518
-1.22183
-1.18843
-1.188
-1.28626
-1.34398
-1.34146
-1.17311
-1.16793
-1.2003
-1.24038
-1.33503
-1.33859
-1.27949
-1.3557
-1.35428
-1.29881
-1.29658
-1.35242
-1.35408
-0.986982
-1.02654
-1.02055
-1.01787
-1.02386
-0.979687
0.217764
0.216339
0.216518
0.215866
0.324545
0.268083
0.267667
-0.119707
-0.121185
-0.221599
-0.158267
-0.167316
-0.163055
-0.157506
-0.220433
-0.443416
-0.460586
-0.518392
-0.386862
-0.204206
-0.283143
-0.242254
-0.349746
-0.325195
-0.256577
-0.326419
-0.383279
-0.391725
-0.376896
-0.378129
-0.317926
-0.364201
-0.400056
-0.403785
-0.400757
-0.406316
-0.359513
0.402976
0.47007
0.440349
0.386316
0.380936
0.403196
0.395716
0.425704
0.45041
0.405196
0.400477
0.305685
0.301128
0.410743
0.410735
0.356361
0.382433
0.386005
0.443965
0.361147
0.361174
0.354832
0.458745
0.390471
0.381652
-0.473141
-0.479249
-0.534965
-0.432298
-0.4376
-0.412113
-0.422411
-0.540391
-0.485051
-0.476748
0.301296
0.24667
0.25134
0.238831
0.242205
0.299001
-0.723183
-0.707568
-0.65192
-0.711604
-0.746327
-0.737866
-1.11083
-1.18956
-1.14311
-1.14906
-1.09326
-1.08621
-1.1065
-1.10056
-1.26468
-1.26545
-1.06827
-1.0753
-1.05229
-1.06057
-1.16173
-1.10471
-1.09764
-1.11811
-1.11185
-1.16124
-1.08023
-0.704515
-0.707045
-0.65672
-0.705719
-0.710167
-0.850054
-0.799511
-0.789465
-0.819449
-0.810259
-0.858447
-0.840695
-0.785216
-0.781196
-0.782025
-0.779448
-0.840069
-0.746407
-0.315129
-0.373397
-0.376934
-0.249953
-0.261566
0.428165
0.522983
0.522454
0.462367
0.468288
0.536771
0.527947
0.497808
0.501648
0.56483
0.562522
0.625241
0.497586
0.495667
0.404511
0.403703
0.463905
0.372626
0.438534
0.398758
0.404887
-0.983354
-1.0356
-1.03064
-1.03931
-1.03813
-0.982619
-0.954896
-0.94578
-0.892157
-0.841453
-0.855698
-0.829436
-0.833558
-0.886096
-0.914657
-0.867342
-0.874777
-0.907257
0.561023
0.56017
0.594718
0.543606
0.545198
0.532138
0.569161
0.565421
0.566124
0.563422
0.564634
0.59329
0.531616
0.535057
0.53255
0.531212
0.591366
0.623643
0.566502
0.566462
0.542173
0.562366
0.618354
0.513755
0.505155
0.59904
0.542548
0.540571
0.546413
0.544463
0.600466
0.594102
0.536629
0.53419
0.538542
0.536872
0.594893
-1.23435
-1.21582
0.602173
0.550559
0.552577
0.546586
0.548237
0.602198
0.560268
0.551444
0.543407
0.577355
0.593945
0.532594
0.535832
0.53317
0.530693
0.597764
0.599103
0.543091
0.544913
0.538988
0.541411
0.597779
0.566528
0.566285
0.567847
0.566299
0.560296
0.559259
0.563864
0.564047
-1.19826
-1.22321
-1.3035
-1.35785
-1.3569
-1.35573
-1.35708
-1.30256
0.442107
0.538891
0.542857
0.487384
0.460398
0.524372
0.53085
0.512989
0.509875
0.623148
0.564873
0.567044
0.619554
0.564495
0.548729
0.568169
0.567867
0.621437
0.519671
0.516117
0.525577
0.527874
0.478874
0.497035
0.511624
-0.947375
-1.00235
-1.00456
-0.991554
-0.997418
-0.940467
-0.893608
-0.90234
-0.864411
-0.832649
-0.828071
-0.866718
-0.953566
-1.00475
-1.01065
-1.00351
-1.00229
-0.947093
0.341464
0.394163
0.392264
0.397718
0.39632
0.345192
0.342851
0.404087
0.409074
0.392581
0.396971
0.333595
0.307412
0.363885
0.364331
0.361772
0.363222
0.350083
0.393731
0.397401
0.366831
0.378118
0.343099
-0.684498
-0.687988
-0.632987
-0.55646
-0.588152
0.216365
0.219524
0.31119
0.248093
0.238715
0.266917
0.26332
0.317409
0.218665
0.218324
-0.101972
-0.113195
3.23206
2.09623
2.31535
1.64307
0.278108
0.493435
-0.17956
-1.57245
-1.33952
-2.04395
-3.20705
-3.19576
5.08694
3.95558
4.16325
3.5015
2.13659
2.10204
1.68171
0.207452
0.283956
-0.0221449
-1.5888
-1.58004
-2.06309
-3.47254
-3.44802
-3.93387
-5.07887
-5.06713
5.08672
3.95229
3.9578
3.5006
2.04211
2.14838
1.8297
1.16474
1.1291
0.0162387
-0.746437
-0.752099
-1.97557
-2.56078
-2.54737
-3.96866
-5.1041
-5.09044
5.07418
3.92748
3.94759
3.48689
3.03185
3.04204
1.80097
1.57727
1.59062
-2.07804
-2.75264
-2.72359
-4.0104
-5.12943
-5.11677
5.05906
3.90576
3.92089
3.45401
2.99081
2.99942
1.71528
1.47924
1.48785
-2.17668
-2.8219
-2.79915
-4.03899
-5.14801
-5.14028
5.05267
3.90146
3.9031
3.43893
2.97424
2.97561
1.68494
1.44748
1.44798
-2.20001
-2.84096
-2.83915
-4.0366
-5.14908
-5.15114
5.05643
3.91222
3.90312
3.44537
2.98439
2.97996
1.70577
1.47306
1.46802
-2.15052
-2.80666
-2.82286
-4.00646
-5.13106
-5.14213
5.06576
3.9286
3.91622
1.74884
1.52122
1.5145
-2.07343
-2.74579
-2.76969
-3.96352
-5.10167
-5.11714
5.07508
3.94115
3.93248
-1.99877
-2.5741
-2.58946
-3.92168
-5.06931
-5.0855
5.07002
4.15336
4.16358
3.46315
2.10511
2.12007
1.77135
1.09935
1.1069
0.0343796
-0.306826
-0.350022
-2.03441
-3.42498
-3.45355
-4.1192
-5.03584
-5.05312
5.05315
4.14247
4.14562
3.23243
2.09517
2.1025
1.64
0.269134
0.288076
-0.188227
-1.56934
-1.5674
-2.02906
-3.18047
-3.41929
-4.10112
-5.02111
-5.02568
3.22792
2.3175
2.32
1.40152
0.491978
0.263988
-0.420941
-1.3436
-1.57028
-2.25879
-3.17924
-3.17819
1.49753
1.50843
1.74176
-1.90496
-1.63542
-1.65944
-1.56423
-1.58539
-1.81731
1.44942
1.45186
1.68961
-1.98306
-1.72113
-1.72761
-1.66639
-1.68536
-1.94546
1.46325
1.45889
1.69372
-1.97282
-1.71068
-1.69941
-1.72865
-1.73031
-1.98975
1.5081
1.50211
1.73165
-1.90257
-1.63083
-1.67098
-1.69483
-1.68027
-1.95073
-1.81862
-1.5928
-1.5821
-1.6608
-1.64909
-1.87131
1.11102
1.13394
1.79854
0.165028
0.300973
0.294838
-0.061445
-0.0926251
0.103006
-1.5715
-1.56072
-1.78853
1.11562
1.17507
1.83078
0.421972
0.457667
0.484549
0.900699
0.941951
0.263884
0.257703
0.352342
-1.76696
-1.52739
-1.54374
-0.99516
-0.996108
-1.73609
3.00947
3.02054
3.47807
1.99458
2.56399
2.54999
2.59157
2.57842
2.00483
-1.02552
-0.889739
-0.919495
-0.771808
-0.796963
-0.917983
-2.79172
-2.76223
-2.09385
-3.55146
-3.10178
-3.11816
-3.06783
-3.08452
-3.53792
2.97881
2.9839
3.44812
1.93362
2.51863
2.51279
2.53742
2.52688
1.93832
1.46518
1.47171
1.70836
0.927763
1.04801
1.04472
1.0738
1.06866
0.949211
-1.12276
-1.1229
-1.17384
-2.83887
-2.82585
-2.18364
-3.59338
-3.15491
-3.1617
-3.13287
-3.1453
-3.58575
2.97663
2.97463
3.43875
1.92337
2.50921
2.51218
2.50934
2.50821
1.92182
1.44943
1.44798
1.68521
0.909723
1.03118
1.03277
1.0288
1.0284
0.906938
-2.82888
-2.83764
-2.19722
-3.59982
-3.16324
-3.15773
-3.16536
-3.16587
-3.60212
2.99556
2.9897
3.44944
1.95137
2.52941
2.53682
2.51674
2.5226
1.94666
1.48412
1.47848
1.71057
0.953568
1.30303
1.31178
1.05729
1.06035
0.942911
-1.14066
-1.07885
-1.07708
-2.77792
-2.79911
-2.1415
-3.57042
-3.1278
-3.11474
-3.14968
-3.13963
-3.58027
-1.01616
-0.877667
-0.86767
-1.03084
-1.02723
-1.08267
-2.60595
-2.62119
-2.06383
-3.52295
-3.07235
-3.05805
-3.10086
-3.08656
-3.53546
-0.912437
-0.797372
-0.791591
-0.836566
-0.829819
-0.943429
1.20134
1.09624
1.65654
0.194665
0.872344
0.864009
0.507388
0.503539
0.152684
-0.747197
-0.739368
-0.0351554
-1.57113
-0.976827
-1.0973
-1.02533
-0.984817
-1.7017
0.964302
1.08464
1.07902
1.36268
1.34083
0.984054
1.75225
1.52046
1.53382
0.880844
0.724057
0.739984
0.984588
0.875501
0.892485
0.781103
0.793623
0.912673
-1.16299
-1.11305
-1.1195
-1.03194
-1.04054
-1.09237
-1.65284
-1.67222
-1.8902
-1.17852
-1.28403
-1.27021
-1.3449
-1.33698
-1.23283
0.908443
1.03021
1.02933
1.04168
1.03864
0.917183
1.69284
1.45526
1.45972
0.828747
0.76817
0.771673
0.752762
0.752929
0.816336
0.773939
0.775622
0.835472
-1.70839
-1.71864
-1.97808
-1.27631
-1.3231
-1.31995
-1.23246
-1.36073
-1.3535
-1.31778
-1.31343
-1.26525
-1.95564
-1.69051
-1.70469
0.933023
1.05088
1.05402
1.03491
1.03724
0.918145
1.69056
1.45504
1.45186
0.823492
0.762026
0.758548
0.789186
0.786698
0.846969
0.815062
0.752605
0.752801
0.755841
0.754268
0.818662
-1.72315
-1.71444
-1.97858
-1.30254
-1.3056
-1.25574
-1.98901
-1.72959
-1.72569
0.85644
0.711702
0.704919
0.764405
0.761055
0.876889
0.853329
0.79379
0.791773
0.703076
0.697403
0.844919
-1.09237
-1.0362
-1.03382
-1.07911
-1.08102
-1.13506
-1.65361
-1.63678
-1.91287
-1.18398
-1.32152
-1.32731
-1.28373
-1.28997
-1.17968
-1.24315
-1.29391
-1.29808
-1.33305
-1.3395
-1.20432
-1.94194
-1.67499
-1.6592
0.926576
0.81591
0.81166
0.832925
0.830591
0.941309
0.889095
0.773497
0.768596
0.807031
0.801822
0.913588
-0.963085
-0.850074
-0.843306
-0.864292
-0.854665
-0.996387
-1.16026
-1.271
-1.27742
-1.45613
-1.47394
-1.14093
-1.86056
-1.63753
-1.62622
0.975181
0.650514
0.637849
0.617458
0.646122
0.972083
0.948465
0.837413
0.835113
-0.880861
-0.525066
-0.496101
1.54814
1.56285
1.78836
1.05547
1.394
1.3701
1.37187
1.35553
1.06845
-0.320427
-0.351918
-0.421063
1.99172
2.56016
2.5673
2.54461
2.55247
1.98678
1.53431
1.52785
1.75467
1.01635
1.30136
1.30874
1.28611
1.29373
1.01177
-0.50027
-0.440262
-0.43751
-0.463236
-0.461989
-0.520175
-2.54597
-2.5598
-1.99055
0.602867
0.552975
0.576153
0.430175
0.44176
0.512377
-1.07696
-1.42037
-1.38485
-1.47212
-1.43351
-1.09685
-1.83616
-1.60814
-1.63089
0.983408
1.32837
1.27988
1.31536
1.32475
0.979666
1.7261
1.49592
1.48996
0.521371
0.465606
0.464676
0.468383
0.466156
0.524386
-0.531752
-0.474551
-0.467745
-1.61499
-1.60384
-1.82899
-1.09535
-1.43227
-1.45022
-1.35512
-1.42657
-1.0889
0.528954
0.472565
0.470713
0.47871
0.477171
0.534234
-1.04481
-1.33273
-1.34446
-1.3113
-1.32162
-1.03889
-1.77893
-1.5504
-1.54065
0.572246
0.610958
0.285611
1.02592
0.713464
0.677895
0.7111
0.722609
1.0262
-0.8615
-0.729427
-0.749096
-0.428257
-0.417432
-0.824316
0.152765
-0.276796
-0.299669
-0.842084
-0.878873
-1.00582
-0.530177
-0.671405
-0.642332
-0.662301
-0.645556
-0.591458
-0.941283
-0.823628
-0.847917
-0.889887
-0.880105
-1.0227
-1.06525
-1.00981
-1.00666
-0.474946
-0.415807
-0.412288
-0.435506
-0.432327
-0.491256
-0.571663
-0.715813
-0.722644
-0.701903
-0.708844
-0.567683
-0.936951
-0.82308
-0.816368
0.708663
0.71974
0.871809
0.849065
0.691159
0.704451
0.498514
0.564461
0.558127
0.617045
0.606284
0.540965
0.925926
0.808469
0.823021
-1.08182
-1.08661
-1.13918
-1.12244
-1.07083
-1.07654
0.753657
0.754227
0.819456
0.817264
0.753388
0.75356
0.784268
0.786233
0.848796
0.842387
0.781379
0.782839
-1.32558
-1.32278
-1.26291
-1.61185
-1.50733
-1.51046
-1.50077
-1.50338
-1.60845
-1.62361
-1.51847
-1.52053
-1.5133
-1.51604
-1.62102
-1.27229
-1.33201
-1.32864
-1.29754
-1.29442
-1.24258
-1.57474
-1.4713
-1.47717
-1.45779
-1.46485
-1.56835
-1.59618
-1.49222
-1.49679
-1.4824
-1.48739
-1.59137
-1.24601
-1.30022
-1.29796
0.776481
0.775243
0.834106
0.838144
0.778833
0.777765
0.75208
0.752266
0.815418
0.815226
0.752182
0.752181
-1.31926
-1.32316
-1.26014
-1.61711
-1.50755
-1.50329
-1.51516
-1.51157
-1.62077
-1.59969
-1.49224
-1.49047
-1.4991
-1.49553
-1.60453
-1.24762
-1.31154
-1.3153
-1.63046
-1.52406
-1.5242
-1.52218
-1.52341
-1.62951
-1.62852
-1.52073
-1.51829
-1.52368
-1.52259
-1.63006
0.748727
0.714104
0.860437
0.506
0.561666
0.563431
0.546002
0.546866
0.486047
0.872354
0.756554
0.752058
0.840787
0.694842
0.685784
-1.05835
-1.05548
-1.11007
-1.11697
-1.06188
-1.06016
-1.27432
-1.27508
-1.22139
-1.57836
-1.47114
-1.46543
-1.48425
-1.47746
-1.58373
-1.55638
-1.44852
-1.44264
-1.45996
-1.45436
-1.56211
-1.21729
-1.27112
-1.2725
0.507627
0.451999
0.451516
0.463145
0.460443
0.517268
0.784308
0.778873
0.893769
0.522183
0.581543
0.584934
0.564474
0.565587
0.506028
0.547138
0.689813
0.695868
0.675745
0.682681
0.542124
0.908564
0.795965
0.78998
0.475281
0.416258
0.414405
0.44972
0.446255
0.500267
-0.863442
-0.856813
-0.969584
-0.604626
-0.662008
-0.664927
-0.642449
-0.646216
-0.588826
-0.666787
-0.669198
-0.607723
-0.989773
-0.876645
-0.87022
0.532438
0.392843
0.386004
0.406663
0.39619
0.537525
0.540183
0.482574
0.480608
-0.425506
-0.280359
-0.263495
-0.409056
-0.405991
-0.46472
2.13553
2.58411
2.58472
2.57377
2.57949
2.01958
1.12402
1.34632
1.35071
1.33743
1.34182
1.11903
-0.262899
-0.25868
-0.0190289
-0.75055
-0.49905
-0.498521
-0.487466
-0.514442
-0.769736
1.04741
1.3277
1.33281
1.3157
1.32203
1.0445
1.77115
1.54619
1.54045
0.227306
0.235826
0.199802
0.520124
0.410604
0.387672
0.402727
0.406275
0.514535
-0.37592
-0.243139
-0.221647
-0.252835
-0.256709
-0.385575
0.116824
-0.0176587
-0.0462044
0.424181
0.488359
0.334735
0.634976
0.540688
0.524776
0.516954
0.536128
0.635185
-0.354708
-0.273116
-0.294026
-0.127717
-0.0733709
-0.283111
0.265676
0.012904
0.0259781
1.0552
1.0514
0.931068
1.29072
1.17147
1.17537
1.16483
1.16819
1.28837
-1.17618
-1.12255
-1.12402
1.02911
1.02991
0.908445
1.26928
1.15
1.14936
1.15256
1.15127
1.27119
1.26819
1.14863
1.14918
1.14871
1.1487
1.26908
0.906898
1.02837
1.02853
-1.09042
-1.08393
-1.14524
-0.809745
-0.803364
-0.918167
-0.572628
-0.688549
-0.695164
-0.676153
-0.682233
-0.566539
0.884558
0.663367
0.614577
0.653235
0.658085
0.8807
0.213373
0.434266
0.429045
0.839523
0.857421
0.969983
0.606077
0.746447
0.724172
0.788966
0.769019
0.622734
-1.09872
-1.10559
-1.15763
-1.3078
-1.29638
-1.19162
-1.5064
-1.40104
-1.41232
-1.37661
-1.38938
-1.49623
-1.54569
-1.44153
-1.44991
-1.42267
-1.43255
-1.53708
-1.22358
-1.32787
-1.31822
1.03255
1.03121
0.909319
1.27137
1.15171
1.15329
1.14965
1.15073
1.27128
1.27878
1.15919
1.16207
1.1548
1.15699
1.27757
0.91393
1.03614
1.03407
0.759768
0.763828
0.826602
0.636999
0.700493
0.694524
0.712574
0.707814
0.649241
0.625332
0.689272
0.689362
0.689157
0.689138
0.624887
0.81593
0.752925
0.753182
0.658556
0.716485
0.715242
0.71755
0.717073
0.65833
0.836243
0.776713
0.777926
-1.32194
-1.32354
-1.27495
-1.42537
-1.37742
-1.37674
-1.44641
-1.3923
-1.39421
-1.3887
-1.3907
-1.44584
1.27464
1.15631
1.15447
1.16076
1.15861
1.27734
0.921331
1.03971
1.04221
0.769103