/*--------------------------------*- C++ -*----------------------------------*\
| =========                 |                                                 |
| \\      /  F ield         | OpenFOAM: The Open Source CFD Toolbox           |
|  \\    /   O peration     | Version:  5.x                                   |
|   \\  /    A nd           | Web:      www.OpenFOAM.org                      |
|    \\/     M anipulation  |                                                 |
\*---------------------------------------------------------------------------*/
FoamFile
{
    version     2.0;
    format      ascii;
    class       volScalarField;
    location    "600";
    object      p_rgh;
}
// * * * * * * * * * * * * * * * * * * * * * * * * * * * * * * * * * * * * * //

dimensions      [0 2 -2 0 0 0 0];

internalField   nonuniform List<scalar> 
6584
(
0.00589519
0.00628671
0.00675418
0.00744971
0.00833164
0.00945658
0.010799
0.012359
0.0139391
0.0153935
0.0162069
0.0158384
0.0139219
0.0106033
0.0064896
0.0022843
-0.00147142
-0.00463763
-0.00714675
-0.00907794
-0.0105095
-0.011568
-0.0122547
-0.0127987
0.00575767
0.00618709
0.00662793
0.00731946
0.00818451
0.00931566
0.0106843
0.0123411
0.0140662
0.0157438
0.0167884
0.0165675
0.0145825
0.0109968
0.00658385
0.00206327
-0.00182463
-0.00503341
-0.00751261
-0.00939257
-0.0107626
-0.0117837
-0.0124154
-0.0129952
0.00546235
0.00590187
0.00629316
0.00695358
0.00777536
0.00890852
0.0103456
0.0122781
0.0143501
0.0162312
0.0185167
0.0192943
0.0176526
0.0135398
0.0081416
0.00130354
-0.00290284
-0.00617768
-0.00855245
-0.0102647
-0.0114634
-0.0123549
-0.0128675
-0.0134161
0.0050737
0.00548489
0.00580273
0.00639048
0.00712309
0.00820156
0.00968914
0.011914
0.014845
0.0176398
0.0215786
0.0239816
0.0224507
0.0164568
0.00881523
0.00202012
-0.00472509
-0.00806112
-0.010188
-0.0115846
-0.0125028
-0.0131708
-0.0135104
-0.0139518
0.00462093
0.00496511
0.00518033
0.00563522
0.00620344
0.00709721
0.00848802
0.0107937
0.0136195
0.0187997
0.0253461
0.0312339
0.030271
0.0202199
0.00825242
-0.000619468
-0.00616564
-0.0109451
-0.0125412
-0.0133323
-0.0138294
-0.0141631
-0.0142777
-0.0145414
0.00412976
0.00436794
0.00444881
0.00469604
0.00499353
0.00545016
0.006441
0.00794865
0.0117658
0.0177275
0.0274771
0.0435288
0.0483874
0.0283732
0.00475151
-0.00636637
-0.0114051
-0.0147339
-0.0154698
-0.0154187
-0.015362
-0.0152581
-0.0151037
-0.0151261
0.00363831
0.00373823
0.00366297
0.00364064
0.00358444
0.0034283
0.00372735
0.00463668
0.00656543
0.011481
0.0245959
0.0555791
0.0945571
0.0288526
-0.00405376
-0.0172506
-0.0189299
-0.0195534
-0.0188324
-0.0176951
-0.0169634
-0.0163441
-0.0158971
-0.0156317
0.00319036
0.0031356
0.00290338
0.00258519
0.00212748
0.00125508
0.000484686
0.000278675
-0.00112371
-0.00184964
0.00277212
0.0246136
-0.0171913
-0.0340861
-0.0338127
-0.0286426
-0.0247983
-0.0222242
-0.0198848
-0.0184295
-0.0172777
-0.0165491
-0.0159794
0.00282705
0.00262435
0.00226294
0.00168108
0.000858293
-0.00065602
-0.0025332
-0.00424087
-0.00944285
-0.0184314
-0.0317186
-0.0673279
-0.131437
-0.0747792
-0.0513871
-0.0380923
-0.0293061
-0.0249465
-0.0215833
-0.0195053
-0.0179002
-0.0169489
-0.0160989
0.00257895
0.0022607
0.00182764
0.00108103
4.20054e-05
-0.00180524
-0.00436838
-0.00721169
-0.0145606
-0.0281488
-0.0510484
-0.104626
-0.182941
-0.0987235
-0.0612555
-0.0436375
-0.0317049
-0.0262645
-0.0223862
-0.0199519
-0.0180731
-0.017004
-0.0159403
0.00245828
0.00207625
0.00164566
0.000873115
-0.000167494
-0.00192285
-0.0044771
-0.00758551
-0.0143603
-0.026367
-0.0463158
-0.0861684
-0.16123
-0.0938431
-0.059042
-0.0431251
-0.0311955
-0.0257862
-0.0220726
-0.0196401
-0.0177232
-0.0166667
-0.0154863
0.00245517
0.00206741
0.00170806
0.00104185
0.000197407
-0.00111012
-0.00303338
-0.00553294
-0.00966876
-0.0159591
-0.0255695
-0.040137
-0.0966835
-0.06769
-0.047138
-0.0372048
-0.0280216
-0.0236617
-0.0206946
-0.018603
-0.016871
-0.015949
-0.0147585
0.00254098
0.00219755
0.00195406
0.00148045
0.000948502
0.000250749
-0.000742621
-0.00214996
-0.00317728
-0.00328151
-0.00214031
0.0066529
-0.0310739
-0.0360894
-0.0316529
-0.028503
-0.0232521
-0.0204867
-0.0185478
-0.0170146
-0.0156269
-0.0149178
-0.0138111
0.00267713
0.00241096
0.00229661
0.00204166
0.00183699
0.00171746
0.00157181
0.00236562
0.00236457
0.00652171
0.0129939
0.0337544
0.0931004
0.0108395
-0.0118908
-0.0180934
-0.0198246
-0.0181359
-0.0169643
-0.0160299
-0.0151197
-0.0141343
-0.0136745
-0.012716
0.00282516
0.0026498
0.00265108
0.00259115
0.00265377
0.00294186
0.00340329
0.00463052
0.00591114
0.0107284
0.017772
0.0316699
0.0415836
0.0174203
-0.00102622
-0.00909498
-0.0122895
-0.0135175
-0.013632
-0.0134937
-0.013146
-0.0125411
-0.012325
-0.0115485
0.00295381
0.00286711
0.00295546
0.00304245
0.00328369
0.0038021
0.0045573
0.00608745
0.00755429
0.0113559
0.0169372
0.0220066
0.0214566
0.0126748
0.00300377
-0.00409096
-0.00840216
-0.0100042
-0.010821
-0.0111818
-0.0112625
-0.0109777
-0.0109637
-0.010378
0.00304228
0.00303245
0.00317524
0.00335799
0.00368996
0.0043076
0.005103
0.00666573
0.0084099
0.0102688
0.0131563
0.0148395
0.0169207
0.0103526
0.0036578
-0.00154618
-0.00537547
-0.00736492
-0.00853042
-0.00919177
-0.00956078
-0.00951369
-0.00965418
-0.00924638
0.00307984
0.00313102
0.00329847
0.00353337
0.00388404
0.00450326
0.00519251
0.00647573
0.00781976
0.00976257
0.0103517
0.0127325
0.0100214
0.00748916
0.0025503
-0.00096445
-0.00334588
-0.00548971
-0.00672303
-0.0075448
-0.0080788
-0.00819776
-0.00844089
-0.00818731
0.00306391
0.00316019
0.00332917
0.00358498
0.00390714
0.00447702
0.0050018
0.00602838
0.00666151
0.00836553
0.0066062
0.00900412
0.00909963
0.00334906
0.00246471
-0.000702764
-0.00239465
-0.00426121
-0.00536544
-0.00622746
-0.00682432
-0.00704935
-0.0073488
-0.00722249
0.0029975
0.00312534
0.0032806
0.00353939
0.00380932
0.00432056
0.00467288
0.00555271
0.00570928
0.00726459
0.00611869
0.00725186
0.00677786
0.0028824
0.00226891
-0.000512697
-0.00172999
-0.00338784
-0.00433479
-0.00518001
-0.00577555
-0.00606378
-0.00638463
-0.00635948
0.0028868
0.00303582
0.00316861
0.00342173
0.0036295
0.00408813
0.00428402
0.00505804
0.00494583
0.00618838
0.00523789
0.00535452
0.00483573
0.00227827
0.00188361
-0.000422001
-0.00126823
-0.00275148
-0.00353885
-0.00434405
-0.00490208
-0.00522586
-0.00554373
-0.00559698
0.00273931
0.0029021
0.00300819
0.00325242
0.00339625
0.00380959
0.00387398
0.00454783
0.00427239
0.00522297
0.00434991
0.00410787
0.0036831
0.00173659
0.00148729
-0.000405141
-0.000979572
-0.00229231
-0.00292367
-0.00367652
-0.00417622
-0.00451737
-0.00481619
-0.00492888
0.00256289
0.00273448
0.00281291
0.00304805
0.00313192
0.0035075
0.00346986
0.00405679
0.00369385
0.00443835
0.00366797
0.00324136
0.00287726
0.00132394
0.00115816
-0.000411013
-0.000795629
-0.00195254
-0.00244451
-0.00314089
-0.00357256
-0.00391933
-0.00418939
-0.0043462
0.00236507
0.00254239
0.0025944
0.0028218
0.0028531
0.00319824
0.00308628
0.00360138
0.00320016
0.00379208
0.00311415
0.00257056
0.00225679
0.000993058
0.000884435
-0.000424085
-0.000673503
-0.00169221
-0.00206572
-0.00270642
-0.00306836
-0.00341352
-0.0036498
-0.00383859
0.00215267
0.00233393
0.00236204
0.00258353
0.00257092
0.00289178
0.00272845
0.00318404
0.00277395
0.00324977
0.0026544
0.00204344
0.00177786
0.000725254
0.000657299
-0.000438576
-0.000590044
-0.0014867
-0.00176132
-0.00234921
-0.00264408
-0.00298311
-0.00318388
-0.00339518
0.00193169
0.00211587
0.00212317
0.00234049
0.00229267
0.00259425
0.00239773
0.00280436
0.00240372
0.00279179
0.00226689
0.00162332
0.0014054
0.000511433
0.00047248
-0.000450109
-0.000530166
-0.00131953
-0.00151248
-0.00205075
-0.00228347
-0.00261345
-0.00277917
-0.00300555
0.00170722
0.00189364
0.00188337
0.00209787
0.00202285
0.00230902
0.00209341
0.00246013
0.00208041
0.00240537
0.00193963
0.00129015
0.00111482
0.000340082
0.000323377
-0.000457116
-0.000484141
-0.0011788
-0.00130453
-0.00179692
-0.00197327
-0.00229238
-0.0024246
-0.00265983
0.0014835
0.00167157
0.00164679
0.00185925
0.00176398
0.00203759
0.00181358
0.00214825
0.0017952
0.00207596
0.00166372
0.00102188
0.000878013
0.000197865
0.000204625
-0.000456674
-0.000443069
-0.00105433
-0.00112504
-0.00157505
-0.00170148
-0.00200821
-0.00210949
-0.00234864
0.00126414
0.00145295
0.00141634
0.00162685
0.00151725
0.00178014
0.00155566
0.00186511
0.00154084
0.00179026
0.00142624
0.000797816
0.000684364
8.44665e-05
0.000111856
-0.00044913
-0.000403435
-0.000940829
-0.000965994
-0.0013765
-0.00145899
-0.00175201
-0.00182496
-0.0020639
0.00105208
0.00124033
0.00119418
0.00140204
0.00128278
0.00153583
0.00131635
0.00160559
0.00131174
0.00153941
0.00121944
0.000608928
0.000524977
-5.05387e-06
4.10426e-05
-0.000433961
-0.000362353
-0.00083371
-0.000821062
-0.00119413
-0.00123806
-0.00151581
-0.00156298
-0.00179788
0.000849887
0.00103545
0.000981593
0.00118517
0.00106009
0.00130368
0.00109212
0.00136377
0.00110135
0.0013147
0.00103609
0.000448101
0.000392915
-7.42059e-05
-1.06066e-05
-0.000410241
-0.000317579
-0.000728995
-0.000684977
-0.00102205
-0.00103238
-0.00129286
-0.00131676
-0.00154359
0.000659996
0.000839636
0.000779761
0.000975979
0.000848729
0.00108145
0.000880645
0.00113571
0.000904677
0.00110856
0.000869784
0.000310135
0.000282918
-0.000125063
-4.53076e-05
-0.000377219
-0.000267806
-0.000623711
-0.000554319
-0.000855623
-0.000837193
-0.00107769
-0.00108082
-0.00129507
0.000484216
0.000652719
0.000588873
0.000773021
0.000646926
0.000864006
0.000677954
0.000914421
0.000715323
0.000911834
0.000713144
0.000191546
0.000191593
-0.000156908
-6.37351e-05
-0.000332681
-0.000212106
-0.000514401
-0.000426232
-0.000689917
-0.000648141
-0.000864186
-0.000849348
-0.00104496
0.000326708
0.000477216
0.000412204
0.000577846
0.00045727
0.000652281
0.000485491
0.000698157
0.000532049
0.000719679
0.000560195
9.19625e-05
0.000116632
-0.000169089
-6.77451e-05
-0.000276402
-0.000152276
-0.000400796
-0.00030218
-0.000524835
-0.000466626
-0.000652595
-0.000623686
-0.000793558
0.000182554
0.000298407
0.000239878
0.000369543
0.000267973
0.000421366
0.000288135
0.000456538
0.000332667
0.000494804
0.000384959
1.47791e-05
5.70211e-05
-0.000147544
-5.33336e-05
-0.000195536
-8.59257e-05
-0.00026728
-0.000175138
-0.000340648
-0.000279215
-0.000418741
-0.000383386
-0.000510569
8.3609e-05
0.000165775
0.000118565
0.000212703
0.000134773
0.00024686
0.000148732
0.000272129
0.000184909
0.000316372
0.000217558
-2.40146e-05
1.63129e-05
-0.000114074
-3.57237e-05
-0.000122438
-3.58082e-05
-0.00015938
-8.33968e-05
-0.000197908
-0.00014345
-0.000240551
-0.000206967
-0.000294484
-0.0584841
-0.129901
-0.0129949
-0.103312
-0.19537
-0.143016
-0.0907388
-0.177534
-0.197702
-0.0464871
-0.110453
-0.17076
0.0018053
-0.0368562
-0.100944
0.0323274
0.102437
0.0961365
0.0137817
-0.0286762
0.0350148
0.0956241
0.00271913
0.0399986
-0.0236675
-0.051219
0.0200677
-0.104746
0.0353094
-0.119827
-0.0732958
-0.0344094
-0.0485454
-0.0933482
-0.059238
-0.0884765
-0.13043
-0.100184
-0.241637
-0.20336
-0.180388
-0.109081
-0.0848755
-0.0495311
-0.0836998
-0.0945978
-0.103379
-0.140485
-0.146316
-0.272422
-0.276941
-0.167578
-0.109831
-0.112655
-0.0315429
-0.0441204
-0.0796089
-0.070551
-0.0867917
-0.112674
-0.176893
-0.219263
-0.105334
-0.081736
-0.104733
-0.0748061
-0.120111
-0.0385586
-0.0441601
-0.0724635
0.0167346
-0.0206716
0.0346308
0.0318878
0.094381
0.0347056
0.0247507
0.0161692
-0.0948933
-0.0430042
-0.0261193
-0.0480464
-0.102043
0.0638522
-0.0378971
-0.199578
-0.116677
-0.0840624
-0.111443
-0.195668
-0.14574
-0.133481
-0.0935408
-0.138232
-0.151929
-0.107234
-0.137351
-0.274337
-0.24364
-0.180522
-0.243784
-0.261619
-0.198719
-0.241884
-0.173156
-0.116141
-0.137901
-0.101164
-0.143594
-0.118481
-0.151563
-0.145588
-0.221609
-0.270215
-0.193098
-0.256604
-0.223589
-0.263123
-0.258627
-0.196256
-0.0855331
-0.0555338
-0.116272
-0.089726
-0.123518
-0.172982
-0.137703
-0.169516
-0.12272
-0.220919
-0.172738
-0.146597
-0.0111458
0.0123365
-0.0511908
-0.0157225
-0.0264912
-0.0686953
-0.116586
-0.0743557
-0.0724068
0.0388158
0.0579795
0.014644
0.0361433
0.0446422
0.0204416
-0.0137048
-0.0325261
0.0570751
-0.0579864
0.102622
-0.00755259
-6.43378e-05
-0.0383391
-0.0208591
-0.0168196
-0.0501296
0.00771808
-0.0161353
0.00847793
-0.0133778
-0.0352838
0.117987
-0.00633935
0.0271371
-0.0975829
-0.066445
-0.05433
-0.0827951
-0.0647797
-0.0797899
-0.0645633
0.00924449
0.018562
-0.062337
-0.043129
-0.019884
-0.0441518
-0.0632543
-0.0683748
-0.0279333
0.0192874
0.0280153
-0.0225058
0.0131042
-0.00638972
0.158344
0.10753
0.0773846
0.0524467
0.0962403
0.157748
-0.0764152
-0.0486294
-0.0729616
0.0916497
-0.0550453
-0.0282719
-0.230898
-0.227883
-0.279131
-0.279153
-0.198374
-0.201241
-0.0930782
-0.0777303
-0.0969845
0.0338393
0.0107806
-0.0169557
0.00612334
-0.0035897
-0.0825974
-0.0759593
-0.10793
-0.0789135
-0.110136
-0.0833593
-0.0732546
-0.0126457
0.00255998
-0.020126
-0.0770262
-0.167242
-0.162673
-0.147324
-0.147379
-0.122354
-0.123852
-0.266431
-0.266469
-0.252607
-0.220016
-0.209533
-0.23019
-0.222812
-0.253309
-0.220824
-0.186022
-0.166867
-0.20559
-0.191422
-0.22418
-0.134178
-0.131855
-0.15235
-0.151293
-0.254021
-0.255477
-0.241586
-0.219086
-0.228602
-0.201036
-0.215069
-0.239794
-0.266072
-0.234882
-0.23192
-0.231025
-0.234712
-0.265994
-0.0817002
-0.0735116
-0.0823406
-0.0975516
-0.0641328
-0.0798789
-0.0691206
-0.105745
-0.099433
-0.101323
-0.145689
-0.149101
-0.199526
-0.180649
-0.195678
-0.159348
-0.175385
-0.195379
-0.00527486
0.00908011
-0.036549
-0.0420003
-0.0614544
-0.00899421
-0.037889
-0.0313851
-0.0385423
-0.00810017
-0.044351
-0.0452063
-0.0204397
-0.0742607
-0.0478022
-0.0505667
-0.0470475
0.0490676
0.0666039
0.0787101
0.0298202
0.0435739
0.0927837
0.0556729
0.0362729
0.198976
0.0105397
0.0246833
0.00443681
0.0196246
0.031019
0.0148868
0.0649088
0.0449453
0.0471223
0.171322
0.0113285
-0.0124983
-0.0147281
0.0160599
0.0169322
0.082453
0.0652425
0.0796247
0.019304
0.021509
0.0683334
0.0605007
0.0802891
0.239405
0.17396
0.131995
0.123184
0.170014
0.240568
-0.119513
-0.0987695
-0.110073
-0.237238
-0.22398
-0.215597
-0.145474
-0.124191
-0.121905
-0.12442
-0.125708
-0.146261
-0.276431
-0.277624
-0.186887
-0.210646
0.0438597
0.0363494
0.00179192
0.00917572
0.0288554
0.059265
0.0527695
0.0658595
0.017851
-0.00058488
0.110503
-0.186851
-0.210943
-0.222284
-0.150964
-0.124746
-0.0915203
-0.159562
-0.133641
-0.161812
-0.142361
-0.12031
-0.124865
-0.111843
-0.119717
-0.140756
-0.143569
-0.157998
-0.150058
-0.164562
-0.163657
-0.149916
-0.148316
-0.144204
-0.131722
-0.272164
-0.252906
-0.248935
-0.231582
-0.230463
-0.250542
-0.245948
-0.258696
-0.119392
-0.114263
-0.129766
-0.140403
-0.148817
-0.153588
-0.152847
-0.166002
-0.16479
-0.157248
-0.162673
-0.148535
-0.235501
-0.264993
-0.250911
-0.242304
-0.246494
-0.210449
-0.219482
-0.232178
-0.264861
-0.253846
-0.250447
-0.248936
-0.251458
-0.262989
-0.133179
-0.136019
-0.127107
-0.183683
-0.172205
-0.161948
-0.148767
-0.137493
-0.153878
-0.115875
-0.131895
-0.142064
0.000580242
0.0054969
-0.00633506
0.0167366
0.00993755
0.00369105
0.0511793
0.0608547
0.023447
0.0265356
0.0189281
0.0362532
0.0475429
0.0539683
0.0471375
0.00439381
0.145913
0.0296201
0.0106365
-0.00270515
-0.000968726
0.0127941
-0.00381855
-0.00615594
0.0588048
0.058906
0.161471
0.0321494
0.0401725
-0.0756842
-0.0702856
0.0141553
0.0156606
0.0132906
0.0145302
0.012251
0.0196467
0.0151866
0.0143218
-0.0546252
-0.0505113
-0.0297723
-0.0332217
0.0216196
0.021398
0.0212758
0.0224969
0.0265963
-0.112676
-0.0906576
-0.0514297
-0.131265
-0.101704
-0.12298
-0.235895
-0.219064
-0.277718
-0.279292
-0.189768
-0.208039
-0.0918917
-0.0878324
-0.0979057
-0.0744865
-0.0844895
-0.0868528
-0.113176
-0.122696
-0.101114
-0.109733
0.02393
0.0321827
0.0407764
0.0140055
0.0276526
0.0210472
0.0270508
0.0145147
-0.0974447
-0.0813096
-0.0931694
-0.0604477
-0.0767782
-0.0936136
-0.109158
-0.116179
-0.096731
-0.106651
-0.0506053
-0.0348674
-0.0549721
-0.0515548
-0.0593365
-0.185654
-0.207891
-0.183469
-0.197452
-0.163445
-0.140407
-0.193844
-0.169663
-0.143822
-0.164182
-0.181391
-0.160833
-0.158656
-0.143984
-0.159774
-0.164335
-0.153742
-0.159714
-0.168119
-0.168688
-0.16479
-0.166143
-0.150009
-0.162674
-0.161228
-0.131883
-0.139385
-0.118611
-0.128835
-0.149129
-0.152242
-0.141529
-0.147719
-0.1306
-0.142586
-0.13648
-0.271728
-0.262965
-0.239354
-0.232788
-0.250706
-0.257732
-0.245658
-0.239994
-0.143209
-0.149766
-0.138608
-0.152354
-0.145975
-0.165868
-0.153469
-0.137267
-0.12491
-0.143944
-0.138585
-0.165838
-0.165883
-0.152177
-0.170466
-0.171064
-0.168835
-0.170711
-0.167858
-0.164971
-0.170334
-0.168278
-0.150046
-0.163341
-0.165379
-0.244753
-0.26168
-0.233987
-0.239527
-0.248107
-0.234098
-0.223263
-0.230972
-0.255001
-0.253249
-0.26579
-0.26421
-0.25338
-0.253756
-0.08759
-0.0879212
-0.0820425
-0.0776859
-0.0930236
-0.0840414
-0.0944449
-0.0664106
-0.0634458
-0.0600802
-0.0750136
-0.0661089
-0.0694235
-0.119436
-0.111886
-0.121789
-0.122052
-0.103871
-0.101447
-0.095934
-0.109042
-0.101393
-0.106022
-0.148809
-0.139377
-0.136636
-0.145473
-0.153995
-0.126025
-0.141698
-0.159887
-0.158525
-0.169088
-0.153919
0.00318932
0.00759914
0.00171371
0.012061
0.00821777
0.0056051
0.0137243
-0.0211422
-0.00192742
-0.0160039
-0.0621078
-0.0617732
-0.071222
-0.0484906
-0.0587273
-0.0585887
-0.0611623
-0.0641562
0.0642561
0.0759252
0.0291755
0.0336555
0.0720989
0.0564208
-0.00400847
-0.0223567
0.00122524
-0.000226316
0.0180249
0.0350827
0.320057
0.248933
0.222182
0.220709
0.257661
0.325005
0.031367
0.0765305
0.0423295
-0.0810388
-0.0957612
-0.115232
-0.239804
-0.252049
-0.253754
-0.275013
-0.2771
-0.100172
-0.0915869
-0.101989
-0.231113
-0.228137
-0.216592
-0.124086
-0.11419
-0.110371
-0.0764822
-0.0585001
-0.0767369
-0.112927
-0.104978
-0.0962906
-0.133272
-0.157173
-0.138147
-0.112984
-0.124615
-0.115411
-0.273016
-0.256317
-0.258759
-0.245677
-0.262472
-0.261298
-0.260384
-0.226563
-0.22204
-0.235781
-0.126582
-0.11108
-0.103732
-0.123927
-0.132714
-0.12422
-0.224158
-0.235641
-0.232952
-0.268316
-0.254745
-0.257236
-0.258868
-0.263794
-0.264481
-0.263593
-0.260594
-0.262115
-0.260702
-0.113351
-0.119646
-0.122378
-0.212743
-0.204069
-0.208361
-0.0982451
-0.0939874
-0.110345
0.0536997
0.0570515
0.0417278
0.0298928
0.0261754
0.0447762
0.0494896
0.0343734
0.0492412
0.0333059
-0.0470142
-0.042285
-0.0780353
-0.0641109
-0.0660044
-0.0668729
-0.0602396
-0.0604311
-0.0622027
-0.0451254
-0.0487556
-0.0452017
-0.0450908
-0.0420921
-0.0409218
0.0273085
0.0226006
0.0228419
0.086627
0.144605
0.110123
-0.0899187
-0.0904929
-0.0792107
-0.063678
-0.147082
-0.138386
-0.0385268
0.00135969
0.00717659
-0.236106
-0.245881
-0.233591
-0.224945
-0.226241
-0.229195
-0.280865
-0.27955
-0.197702
-0.194075
-0.195537
-0.203458
-0.212575
-0.204881
-0.0973987
-0.10016
-0.0745862
-0.0777894
-0.0807639
-0.102882
-0.106252
-0.107054
-0.110515
-0.0998906
-0.0867922
-0.103647
-0.100097
-0.103542
-0.0714612
-0.077136
-0.0838521
-0.121064
-0.123596
-0.106268
-0.111442
-0.113653
-0.00471129
-0.0288605
-0.0422693
-0.0315227
-0.0344667
-0.0315189
-0.0699966
-0.164721
-0.156565
-0.134353
-0.127401
-0.114697
-0.126415
-0.128518
-0.267438
-0.266375
-0.205782
-0.199756
-0.211874
-0.233523
-0.217077
-0.211596
-0.126605
-0.134993
-0.141067
-0.251344
-0.256949
-0.266835
-0.266842
-0.266225
-0.266388
-0.266728
-0.26668
-0.0836
-0.0847321
-0.0838414
-0.0815605
-0.0970103
-0.0945387
-0.0964924
-0.109554
-0.117039
-0.110071
-0.117988
-0.116358
-0.127545
-0.125205
-0.101183
-0.101465
-0.0991199
-0.115479
-0.11474
-0.192722
-0.198633
-0.209674
-0.185135
-0.180106
-0.186413
-0.0488741
-0.044435
-0.0394288
-0.0559289
-0.0502664
-0.0522928
-0.0345086
-0.0364301
-0.0451775
-0.023762
-0.030433
-0.0308825
-0.0687525
-0.0686048
-0.0713335
-0.0536912
-0.0497327
-0.0725348
0.0705942
0.0709716
0.0779507
0.0289501
0.0393197
0.033453
0.0293858
0.0463841
0.035986
0.0389714
0.0890682
0.0691937
0.0441309
0.0519201
0.0464566
0.134264
0.224116
0.0904726
0.0162443
0.0163696
0.0723667
0.0996446
0.104196
0.0203732
0.0211468
0.0203918
0.0222525
0.0216125
0.0206452
0.10202
0.0931221
0.0751492
0.154996
0.229812
0.194656
-0.250751
-0.251064
-0.238411
-0.228733
-0.219537
-0.212638
-0.232983
-0.228972
-0.276402
-0.276985
-0.192058
-0.193942
-0.184073
-0.188495
-0.213531
-0.224566
-0.221353
0.0402675
0.0430565
0.0464331
0.0366779
0.0406434
0.0376303
-0.214251
-0.202218
-0.198978
-0.209495
-0.205814
-0.218133
-0.272132
-0.247296
-0.259221
-0.26352
-0.259374
-0.260292
-0.259214
-0.249787
-0.239937
-0.226973
-0.267853
-0.25365
-0.255567
-0.253284
-0.265689
-0.26502
-0.264181
-0.262135
-0.263385
-0.264256
-0.177359
-0.170721
-0.17643
-0.164657
-0.167385
-0.173796
0.0594522
0.0611913
0.0353058
0.0390295
0.0397255
0.038564
0.0350133
0.0565412
0.0544988
0.0523315
0.0548711
0.0557247
0.0489911
0.0512774
0.0500486
-0.00491941
-0.0194985
-0.0201242
0.00730671
0.116464
0.0980561
0.135724
0.036055
0.0546477
0.0764932
0.00218245
0.0033131
-0.000571846
0.010681
0.00730519
0.00567908
-0.0104564
-0.00875731
-0.0152988
-0.00419392
-0.00716151
-0.00690154
0.0752721
0.0815194
0.0535521
-0.00217286
-0.0173961
0.0245619
0.0162863
-0.0771697
-0.0682402
-0.0677303
-0.070048
0.0146126
0.0151619
0.0114803
0.0122552
0.0130552
-0.058039
-0.0590285
-0.0579241
-0.049237
-0.0455861
-0.0530951
-0.0470251
-0.0544435
-0.0571928
-0.0282356
-0.0257384
-0.0270866
-0.0260539
-0.0306684
-0.0191497
-0.0225681
-0.0372007
-0.0388858
-0.0349759
0.0235042
0.0236845
0.0229918
0.024574
0.0242468
0.0247424
-0.105676
-0.0930715
-0.100139
-0.135597
-0.129862
-0.116633
-0.246868
-0.234378
-0.247549
-0.249743
-0.236488
-0.235525
-0.240097
-0.237999
-0.279603
-0.280277
-0.201905
-0.20602
-0.196433
-0.199137
-0.192584
-0.190908
-0.187972
-0.218527
-0.215458
-0.205713
-0.214074
-0.0878335
-0.0942293
-0.0835314
-0.0810192
-0.0842071
-0.116565
-0.121732
-0.118029
-0.126801
-0.124847
-0.119766
-0.104148
-0.103005
-0.0997864
-0.113963
-0.107069
-0.106763
-0.111661
0.0174439
0.0162645
0.0128439
0.0220103
0.017873
-0.0923317
-0.0932636
-0.096894
-0.100635
-0.0903326
-0.0833951
-0.0886912
-0.117574
-0.119249
-0.120942
-0.118703
-0.11376
-0.112213
-0.115568
-0.0535666
-0.0455846
-0.0428259
-0.0300291
-0.0676694
-0.0690328
-0.0611851
-0.19042
-0.186662
-0.181268
-0.196394
-0.192171
-0.198858
-0.209723
-0.201146
-0.156633
-0.166642
-0.17497
-0.147071
-0.157746
-0.149254
-0.188701
-0.180017
-0.18572
-0.178733
-0.161323
-0.163632
-0.154643
-0.161494
-0.160315
-0.166662
-0.164539
-0.168432
-0.168517
-0.165282
-0.165706
-0.134855
-0.137193
-0.134021
-0.142359
-0.139978
-0.137252
-0.121277
-0.125235
-0.123153
-0.13443
-0.127355
-0.124166
-0.130546
-0.135365
-0.150385
-0.154739
-0.153364
-0.157127
-0.156099
-0.151484
-0.143489
-0.146562
-0.144828
-0.151995
-0.150187
-0.14592
-0.268832
-0.264348
-0.150182
-0.151159
-0.151394
-0.148292
-0.150238
-0.147997
-0.163935
-0.152531
-0.15465
-0.156019
-0.134748
-0.139232
-0.13993
-0.136144
-0.13849
-0.130226
-0.141983
-0.144402
-0.14629
-0.14087
-0.142335
-0.140086
-0.170098
-0.169999
-0.168929
-0.170718
-0.166447
-0.1655
-0.169466
-0.168092
-0.247988
-0.259094
-0.266399
-0.266829
-0.266292
-0.265296
-0.266146
-0.265553
-0.0852274
-0.0828057
-0.0835973
-0.0859382
-0.0959508
-0.0907998
-0.0859578
-0.12185
-0.119881
-0.116943
-0.118603
-0.120549
-0.123158
-0.12612
-0.128293
-0.122981
-0.12515
-0.123935
-0.124037
-0.123595
-0.104649
-0.103838
-0.102686
-0.113845
-0.106035
-0.145545
-0.146688
-0.149598
-0.140369
-0.14362
-0.1426
-0.148704
-0.150752
-0.130609
-0.135894
-0.130294
-0.137594
-0.165219
-0.15831
-0.161573
-0.152277
-0.155017
-0.161058
0.00637935
0.00366504
0.00557856
-0.00145936
0.00137223
0.0043583
0.0115149
0.012115
0.0119202
0.00767933
0.0102018
0.00892883
0.0126425
-0.0253615
-0.0204675
-0.0393907
-0.0318489
-0.0051129
-0.00749372
-0.00471109
-0.0164357
-0.0112773
-0.00954326
-0.0629187
-0.0660796
-0.0654558
-0.0577128
-0.0676474
0.0631367
0.0658853
0.0314626
0.0280836
0.0253793
0.0324199
0.030741
0.0325391
0.0313247
0.0331832
0.0622477
0.057587
0.0272018
0.0364673
0.0285764
0.039977
0.0441814
0.0320508
0.0429375
0.0322172
0.0261406
0.0267824
0.0141333
0.0141271
0.0152604
0.0220564
0.022558
0.0267389
0.0463257
0.039113
0.0562144
0.0863714
0.0497478
0.0853565
0.0435345
0.0348447
0.0306985
0.00567819
0.0115429
0.000140439
-0.00695602
-0.00175593
0.00573668
0.00752568
0.0199149
0.0103592
0.0288861
0.0468125
0.0565473
0.0891444
0.0760633
0.135995
0.0929494
0.0757592
0.0271111
0.0110049
0.0174527
-0.0246156
-0.0235715
-0.013936
-0.0103843
-0.0200311
0.00133735
-0.00585032
-0.00638763
0.00469439
0.0127026
0.0160491
0.0304732
-0.0625575
-0.056343
-0.0287778
-0.0653852
-0.0482203
-0.0354403
-0.0246406
-0.0407668
-0.0265284
-0.0387604
-0.04768
-0.039156
-0.0753519
-0.0847755
-0.0760597
-0.159097
-0.124785
-0.101981
-0.0955874
-0.0689927
-0.0599983
-0.0286578
-0.0423575
-0.0429175
-0.0520502
-0.0625837
-0.0618394
-0.105156
-0.11621
-0.115872
-0.183482
-0.145863
-0.142879
-0.097815
-0.0745291
-0.0739943
-0.0218639
-0.027959
-0.0397972
-0.0421413
-0.0488863
-0.0543007
-0.0813032
-0.0877581
-0.0932947
-0.138924
-0.117295
-0.131042
-0.0754625
-0.0635851
-0.0707858
-0.00950896
-0.00795489
-0.023018
-0.0336852
-0.0350614
-0.0423983
-0.0707402
-0.0660385
-0.0858987
-0.043727
-0.0435606
-0.0540935
0.00210703
0.00775069
-0.00335329
-0.0105003
-0.0206795
-0.0320053
-0.0166924
-0.0236715
-0.0331235
0.00918823
0.0127845
0.00990064
0.0178376
0.0293623
0.0283838
0.0359768
0.0476614
0.0520065
0.0641917
0.0687768
0.0673291
0.0178305
0.00182457
-0.00816764
-0.00493553
-0.00967095
-0.0158566
0.0113904
0.0147634
0.0143266
0.018033
0.0225091
0.0276636
0.0241265
0.024453
0.0407711
0.0252081
0.0173624
0.022825
0.014946
0.00699797
0.00313775
0.00190732
-0.00282829
-0.0056188
0.0149375
0.0178174
0.0197101
0.0153978
0.0193415
0.0196005
0.0209785
0.0121847
0.0154791
0.0115841
0.00668614
0.00740044
-0.0662545
-0.0551975
-0.0485864
-0.114827
-0.128567
-0.152001
-0.00577206
-0.0255148
-0.0302799
-0.11455
-0.11219
-0.100947
-0.191668
-0.212539
-0.218801
-0.158742
-0.177309
-0.154458
-0.0985181
-0.103295
-0.0947632
-0.183578
-0.203594
-0.192906
-0.219811
-0.221516
-0.198636
-0.0494225
-0.056025
-0.0527133
-0.119295
-0.128832
-0.113871
-0.188598
-0.174946
-0.163273
-0.0454322
-0.0443079
-0.035193
-0.104711
-0.0940738
-0.091237
0.0496968
0.0364653
0.0227952
0.101086
0.0958812
0.0912219
0.0916584
0.0802419
0.0977956
-0.0263437
-0.0175768
-0.0207371
0.0686507
0.0911998
0.0540903
0.375658
0.335691
0.345615
0.0832911
0.102986
0.137376
0.367366
0.386529
0.0149151
0.0261638
0.0124289
0.0665788
0.0762381
0.0363249
-0.0291165
-0.0179633
-0.0148383
-0.0221729
-0.0203183
-0.0345117
0.00880326
-0.00540716
-0.0115564
-0.0880027
-0.095536
-0.124405
0.0459912
0.0223674
0.0154503
-0.0946286
-0.0656023
-0.077831
-0.0605235
-0.064734
-0.0808968
-0.0323178
-0.0481328
-0.0474391
-0.0591256
-0.0543743
-0.0443663
-0.0837032
-0.0656813
-0.0712475
-0.0471016
-0.0575906
-0.0790568
-0.0989521
-0.0923861
-0.0823247
-0.127104
-0.119889
-0.123204
-0.0935586
-0.0987678
-0.104831
-0.210949
-0.214454
-0.207529
-0.142328
-0.128835
-0.166018
-0.103056
-0.118037
-0.125237
-0.0955535
-0.108091
-0.0950055
-0.0585811
-0.0614221
-0.0514544
-0.0923793
-0.0730439
-0.0692158
-0.0742633
-0.0748131
-0.0942739
-0.113752
-0.115481
-0.104652
-0.142607
-0.135507
-0.133787
-0.138628
-0.139007
-0.146648
-0.136299
-0.143079
-0.181133
-0.112943
-0.129418
-0.125278
-0.129517
-0.130914
-0.114027
-0.0356497
-0.0425775
-0.0371172
-0.0605834
-0.0489771
-0.0404393
-0.0636849
-0.0568288
-0.0658446
-0.075731
-0.0818659
-0.0760297
-0.0980124
-0.0878387
-0.0783597
-0.108475
-0.105245
-0.109709
-0.180595
-0.179993
-0.176807
-0.0928837
-0.110708
-0.130774
-0.0903758
-0.100572
-0.0897811
-0.118775
-0.110398
-0.0982011
-0.0809976
-0.0839638
-0.074515
-0.121313
-0.118175
-0.116943
-0.044788
-0.0566379
-0.0624961
-0.0533979
-0.055625
-0.0446691
-0.0784129
-0.0668137
-0.0629233
0.0119439
0.0154698
0.0205419
-0.0191146
-0.0130534
-0.0148691
0.038434
0.0454273
0.03597
0.0571531
0.0496581
0.044079
0.0775991
0.076262
0.067779
0.0367577
0.0424548
0.0568116
0.0247988
0.0373419
0.0316729
0.0384436
0.0384391
0.0229043
-0.0892215
-0.0824103
-0.0881975
-0.0301713
-0.0525961
-0.069275
-0.0378369
-0.0428647
-0.0291984
-0.0586046
-0.0720952
-0.0569961
0.049115
0.0538753
0.0722179
-0.0441979
-0.0314616
-0.0260004
-0.195635
-0.203298
-0.207405
-0.122042
-0.130627
-0.125333
-0.0903618
-0.109091
-0.100479
-0.126077
-0.118096
-0.10466
-0.177383
-0.170068
-0.180636
-0.144857
-0.137154
-0.13808
-0.12611
-0.128857
-0.1364
-0.0977862
-0.108845
-0.104412
-0.14053
-0.144291
-0.142421
-0.156002
-0.155567
-0.150884
-0.140858
-0.139164
-0.13507
-0.199889
-0.210107
-0.186695
-0.245972
-0.238021
-0.234594
-0.209065
-0.193266
-0.185904
-0.233435
-0.230683
-0.239737
-0.164479
-0.182395
-0.196279
-0.119712
-0.115194
-0.11188
-0.131683
-0.12952
-0.13521
-0.098334
-0.107526
-0.111033
-0.142774
-0.145121
-0.146951
-0.120397
-0.122424
-0.120161
-0.15251
-0.156557
-0.156192
-0.148935
-0.150531
-0.146333
-0.215079
-0.207108
-0.188822
-0.218207
-0.221607
-0.226539
-0.198128
-0.220875
-0.217412
-0.0812198
-0.0832784
-0.0908217
-0.059062
-0.0625552
-0.0596385
-0.114499
-0.117286
-0.118573
-0.0934197
-0.0987229
-0.0934295
-0.126648
-0.127585
-0.124471
-0.174134
-0.171501
-0.169134
-0.149947
-0.134332
-0.128601
-0.160269
-0.156227
-0.162059
-0.120574
-0.126464
-0.129003
-0.218404
-0.212078
-0.2147
-0.16798
-0.173982
-0.181926
-0.155154
-0.169932
-0.155164
-0.0068572
-0.00489646
-0.00945853
0.014064
0.0113954
0.00949709
-0.046452
-0.0487769
-0.0542678
-0.014309
-0.0196467
-0.0206782
-0.0324156
-0.0315573
-0.0252822
-0.0713275
-0.0617635
-0.0625839
-0.110482
-0.108687
-0.114643
-0.0723402
-0.0884185
-0.0924036
-0.081743
-0.0837013
-0.0736021
0.0484032
0.0615547
0.0467367
0.0727474
0.0638737
0.0502763
0.0176877
0.019172
0.0165422
0.0357832
0.0535759
0.0602647
-0.0144246
0.000888211
-0.000563756
0.00422135
0.00234634
-0.0225334
0.0388716
0.0213989
0.0177415
0.118423
0.0888797
0.0790951
-0.0153791
-0.0136617
-0.0054052
-0.0315045