/*--------------------------------*- C++ -*----------------------------------*\
| =========                 |                                                 |
| \\      /  F ield         | OpenFOAM: The Open Source CFD Toolbox           |
|  \\    /   O peration     | Version:  5.x                                   |
|   \\  /    A nd           | Web:      www.OpenFOAM.org                      |
|    \\/     M anipulation  |                                                 |
\*---------------------------------------------------------------------------*/
FoamFile
{
    version     2.0;
    format      ascii;
    class       surfaceScalarField;
    location    "600";
    object      phi;
}
// * * * * * * * * * * * * * * * * * * * * * * * * * * * * * * * * * * * * * //

dimensions      [0 3 -1 0 0 0 0];

internalField   nonuniform List<scalar> 
13181
(
8.79887e-06
0.0091566
8.53251e-06
0.00916727
7.4754e-06
0.00916756
6.34521e-06
0.00916763
4.51637e-06
0.00916883
-2.75514e-06
0.00917377
-7.11124e-06
0.00917101
-7.38682e-06
0.00916698
-5.56174e-06
0.00916482
-1.12528e-07
0.0091612
9.36018e-06
0.00915723
2.10087e-05
0.009155
3.14474e-05
0.00915621
3.7478e-05
0.00916067
3.81315e-05
0.009166
3.44518e-05
0.00917033
2.81756e-05
0.00917298
2.06957e-05
0.00917413
9.07942e-06
0.00917812
-8.48845e-07
0.00917693
-1.3505e-05
0.00917916
-1.86636e-05
0.00917166
-1.96931e-05
0.00916803
0.00914527
1.25932e-05
0.0091412
3.55358e-05
0.00914432
3.60156e-05
0.00916708
3.56826e-05
0.00916796
2.99438e-05
0.00917457
1.11718e-05
0.00919254
-1.33278e-05
0.00919551
-2.04188e-05
0.00917407
-1.81367e-05
0.00916254
-7.46469e-06
0.00457516
0.00457537
1.1738e-05
0.00456895
0.00456907
3.62542e-05
0.00456502
0.00456546
5.82781e-05
0.0045666
0.00456759
7.0864e-05
0.00457344
0.00457464
7.20036e-05
0.00458185
0.00458301
5.66199e-05
0.00918571
3.37856e-05
0.00919581
1.12729e-05
0.00919664
-1.21732e-05
0.00920156
-2.05378e-05
0.00918529
-2.1345e-05
0.00917996
-2.24581e-05
0.00917277
-4.82501e-07
0.00914605
0.00914095
-3.52993e-06
0.00914016
-2.56055e-07
0.00914105
1.98647e-05
0.00914696
1.82568e-05
0.00916957
1.97888e-05
0.00917304
2.17529e-05
0.00919058
-1.01831e-05
0.00922744
-3.05924e-05
0.00919448
-1.56977e-05
0.0091676
-1.99492e-05
0.00457171
-1.2255e-05
0.00456332
-2.17364e-06
7.80358e-06
-5.15157e-06
0.00455667
1.35008e-05
-2.25166e-05
0.00455813
3.0978e-05
-3.81292e-05
0.00456816
4.34145e-05
-4.6042e-05
0.00458202
4.58683e-05
4.6548e-05
0.00461181
-3.61467e-05
-4.71102e-05
0.00461061
7.05357e-06
0.0092353
-6.69953e-06
0.0092104
-6.11079e-06
0.00920097
-7.99663e-06
0.00918718
-9.79684e-06
0.00918176
7.49785e-06
0.00915548
8.31427e-06
0.00914524
0.00914317
-9.35825e-06
0.00914323
-1.20449e-05
0.00914374
-1.21681e-05
0.00914708
1.9924e-06
0.00915541
-1.96205e-06
0.00917699
-8.12135e-07
0.00918943
-3.9767e-06
0.00923061
-2.25018e-05
0.009213
-3.02494e-05
0.00461277
-3.28695e-05
0.00459544
0.00456559
-2.60867e-05
-0.00456975
0.00454801
-1.22588e-05
-0.00455635
2.06041e-05
1.40013e-07
0.00452983
1.52907e-05
-0.00454526
-3.25024e-05
0.00452998
4.88449e-05
-0.00454632
-6.07952e-05
0.00456401
5.93251e-05
-0.00456254
-4.18578e-05
0.00461337
2.01608e-05
-0.00459167
-5.5936e-06
0.00461527
2.14062e-06
3.5223e-05
0.00461492
-1.60202e-05
-4.52803e-06
0.00460571
2.73426e-05
0.00921828
1.81001e-05
0.00921022
6.83881e-06
0.00919844
1.79876e-05
0.00917061
1.71192e-05
0.00915635
1.17697e-05
0.00915059
0.0091469
-1.11821e-05
0.00914664
-1.5552e-05
0.00914811
-2.06351e-05
0.00915216
-2.2089e-05
0.00915686
-1.49611e-05
0.00916986
-1.74109e-05
0.00919188
1.71894e-05
0.00919601
2.39693e-05
0.00458706
1.19694e-05
0.0046072
0.00463969
-2.94888e-06
0.00457157
-2.76105e-05
-0.0045658
2.18392e-05
0.00454374
-3.29629e-05
-0.00454064
2.98564e-05
1.59509e-05
1.15706e-05
-0.00450922
0.00224057
0.00224113
-4.49196e-05
7.723e-05
-0.00450759
0.00223769
0.00223758
-8.73731e-05
5.08017e-05
-0.00458222
0.00230332
0.00231547
-6.03976e-05
0.00461527
6.07233e-05
-0.0046156
-5.14257e-05
0.00462446
5.0734e-05
-0.00462377
-4.79643e-05
0.00461655
4.63354e-05
5.27069e-05
0.00924758
-4.38321e-05
-3.81796e-05
3.18775e-05
0.00923105
3.32764e-05
0.00919704
2.75985e-05
0.00917629
1.93388e-05
0.00916461
1.34977e-05
0.00915643
0.00915107
-1.22742e-05
0.00915003
-1.69115e-05
0.00915274
-2.29437e-05
0.00915819
-3.1378e-05
0.0091653
-3.59363e-05
0.00917442
-3.78734e-05
0.00919382
-2.36279e-05
0.00921397
-3.22085e-05
0.00459575
-3.23204e-05
0.00460042
6.19136e-06
-0.00463323
2.66163e-05
0.0045761
2.72927e-05
-0.0045799
-2.34953e-05
-0.00228048
-4.62855e-06
0.00228543
-3.17364e-07
-0.00222712
8.53872e-06
0.00222851
-9.92096e-06
-0.00221437
-2.85337e-05
0.00220129
4.16088e-05
-0.0022931
-3.46652e-05
0.00226511
6.26622e-05
-4.61074e-05
0.00011204
-0.0046235
-5.01794e-05
0.00229966
0.00230809
-0.00010664
0.00464265
9.11367e-05
-0.00462714
-7.4298e-05
-0.00462754
0.00464179
6.00519e-05
6.5821e-05
0.0092853
-5.38423e-05
-4.9699e-05
5.16055e-05
0.00924526
3.99284e-05
0.00920872
2.77494e-05
0.00918847
1.96524e-05
0.0091727
1.36563e-05
0.00916242
0.00915501
-1.29632e-05
0.00915353
-1.78365e-05
0.00915762
-2.35928e-05
0.00916395
-3.14491e-05
0.00917316
-4.28563e-05
0.00918583
-5.34105e-05
0.00920437
-3.49247e-05
0.00923056
-3.50719e-05
-0.00460433
0.00461367
-4.42656e-05
-0.0046013
0.00461569
-7.03902e-05
5.60048e-05
-0.00458567
0.00460914
8.89731e-05
-5.2835e-05
-5.96081e-05
-0.00227176
5.32615e-05
0.00227218
-5.36882e-05
-0.00110912
1.63862e-05
0.00110488
-1.21523e-05
-1.8309e-05
-0.00105627
0.00105063
2.39481e-05
-5.16435e-05
-0.00228572
0.000100507
-3.80972e-05
0.00112453
0.00115042
-0.000109953
-0.00231502
0.00232786
9.71134e-05
-0.00014465
-0.00466787
0.00469825
0.000114264
-8.96811e-05
-0.00465809
0.00467798
6.97916e-05
7.36763e-05
0.00931765
-5.2374e-05
-5.36464e-05
5.3806e-05
0.00926513
3.56718e-05
0.00922685
2.38602e-05
0.00920028
1.61984e-05
0.00918036
1.10098e-05
0.00916761
0.00915701
-1.2184e-05
0.00915628
-1.67353e-05
0.00916217
-2.19103e-05
0.00916913
-2.98673e-05
0.00918111
-4.04587e-05
0.00919642
-5.59128e-05
0.00921982
-3.4073e-05
0.0092479
-3.91879e-05
-0.00462368
0.00463422
-4.46108e-05
-0.00463456
0.00465312
-7.71434e-05
5.85798e-05
-0.00464252
0.00467971
0.000103078
-6.85587e-05
-7.17112e-05
-0.00230647
9.6351e-05
0.0023266
-0.000116487
-0.00112104
0.000102712
0.00113452
-0.00011619
-0.000148818
-0.00116485
0.00117926
0.000134415
-0.00015033
-0.00237605
0.00239863
0.000127741
-0.000164857
-0.00473752
0.00477582
0.000126561
-9.80355e-05
-0.00470145
0.00472219
7.72926e-05
6.67571e-05
0.00936412
-5.30948e-05
-6.01351e-05
3.75134e-05
0.00929437
2.39989e-05
0.00924037
1.52851e-05
0.009209
1.04529e-05
0.0091852
8.04232e-06
0.00917002
0.00915798
-1.10309e-05
0.00915851
-1.37748e-05
0.00916491
-1.76415e-05
0.00917299
-2.24167e-05
0.00918589
-2.90132e-05
0.00920302
-3.83324e-05
0.00922914
-2.95223e-05
0.00926309
-2.39961e-05
-0.00463689
0.00464546
-3.80881e-05
-0.0046752
0.00468978
-6.7657e-05
5.30781e-05
-0.00471626
0.00474295
8.65651e-05
-5.96646e-05
-5.35974e-05
-0.00238528
8.42628e-05
0.00240074
-9.9724e-05
-0.00122372
8.94126e-05
0.00123276
-9.84539e-05
-0.00012256
-0.00128244
0.00129339
0.00011161
-0.000112526
-0.0024613
0.00247946
9.4368e-05
-0.000110253
-0.00481139
0.00483791
8.3727e-05
-6.3383e-05
-0.00474046
0.00475404
4.97965e-05
4.35186e-05
0.00938319
-2.52455e-05
-3.73402e-05
1.95071e-05
0.00931839
6.8201e-06
0.00925305
3.68332e-06
0.00921213
2.33724e-06
0.00918654
1.98051e-06
0.00917038
0.00915598
-8.76291e-06
0.00915962
-1.09471e-05
0.0091671
-1.26179e-05
0.00917466
-1.50307e-05
0.0091883
-1.64576e-05
0.00920444
-1.81248e-05
0.00923081
-1.29319e-05
0.00926434
-6.44079e-06
-0.00465313
0.00466078
-2.0582e-05
-0.00469887
0.00470211
-2.68767e-05
2.36391e-05
-0.0047585
0.00476146
2.96273e-05
-2.03693e-05
-1.22118e-05
-0.00242863
2.64642e-05
0.002431
-2.88306e-05
-0.00126572
2.103e-05
0.00126631
-2.16215e-05
-2.22557e-05
-0.00133518
0.00133632
2.11242e-05
-2.19813e-05
-0.0025112
0.0025141
1.90839e-05
-1.49952e-05
-0.00485283
0.00485467
1.31544e-05
-1.1606e-05
-0.00476246
0.00476482
9.24299e-06
4.78142e-06
0.00937853
5.68375e-06
-5.81017e-06
8.31824e-06
0.00931485
-6.89307e-06
0.00926827
-1.04851e-05
0.00921573
-6.75422e-06
0.00918281
-4.16014e-06
0.00916779
0.00915188
-6.75531e-06
0.00916021
-7.41074e-06
0.00916775
-7.4712e-06
0.00917472
-6.15629e-06
0.00918699
-4.73307e-06
0.00920302
1.37284e-06
0.0092247
3.01778e-06
0.00925622
6.47612e-06
-0.00466322
0.00466361
2.62588e-06
-0.00469965
0.00469194
1.52517e-05
-7.54628e-06
-0.00475258
0.00473469
-2.76074e-05
1.92776e-05
2.62236e-05
-0.00241932
-3.06989e-05
0.00241047
3.95515e-05
-0.00124601
-3.93684e-05
0.00124081
4.45718e-05
7.21845e-05
-0.00130976
0.00130217
-6.45982e-05
6.79007e-05
-0.00249867
0.00248752
-5.67555e-05
7.68575e-05
-0.00484422
0.00482416
-5.67968e-05
4.05993e-05
-0.00476012
0.00475012
-3.05994e-05
-3.32398e-05
0.00935451
3.27404e-05
2.45177e-05
-1.63558e-05
0.00929797
-6.24469e-06
0.00925815
-2.42387e-05
0.00923372
-1.71336e-05
0.00917571
-1.06988e-05
0.00916135
0.00914587
-4.38827e-06
0.00916
-3.3183e-06
0.00916668
-1.7725e-06
0.00917318
1.37862e-06
0.00918383
7.62943e-06
0.00919677
1.89306e-05
0.0092134
1.41932e-05
0.0092438
1.71494e-05
-0.00465798
0.0046518
2.03769e-05
-0.00468085
0.00466786
4.28253e-05
-2.98404e-05
-0.00471048
0.00468415
-6.14587e-05
4.2918e-05
4.48735e-05
-0.00237565
-6.22863e-05
0.0023628
7.51405e-05
-0.00119707
-6.66428e-05
0.00119018
7.35344e-05
0.000113806
-0.00123956
0.00123049
-0.00010474
0.000117703
-0.002441
0.00242378
-0.000100488
0.000134211
-0.004795
0.00476067
-9.98767e-05
7.64651e-05
-0.00473546
0.00471841
-5.94124e-05
-5.88103e-05
0.00931647
5.03379e-05
4.65108e-05
-3.48989e-05
0.00927405
-1.86216e-05
0.00924188
-1.011e-05
0.00922521
-2.61494e-05
0.00919175
-1.74451e-05
0.00915265
0.00913791
-2.46464e-06
0.00915933
-6.43374e-07
0.00916486
1.77663e-06
0.00917076
6.54859e-06
0.00917906
1.3579e-05
0.00918974
2.59698e-05
0.00920101
2.13743e-05
0.00922646
2.19415e-05
-0.00464408
0.00463649
2.8963e-05
-0.0046542
0.00464148
5.06617e-05
-3.79365e-05
-0.00465808
0.00463541
-6.75189e-05
4.60245e-05
4.41725e-05
-0.00232639
-6.3322e-05
0.00231621
7.35012e-05
-0.00114733
-5.96344e-05
0.00114299
6.39695e-05
0.000106798
-0.00116743
0.00115924
-9.86106e-05
0.000118542
-0.00237329
0.00235855
-0.0001038
0.000141035
-0.00472338
0.00469227
-0.000109927
8.67175e-05
-0.00470084
0.00468386
-6.97411e-05
-6.88835e-05
0.00927754
5.37475e-05
5.40698e-05
-4.315e-05
0.00924832
-2.50085e-05
0.00922374
-2.0224e-05
0.00922042
-2.99725e-05
0.00920149
-2.33513e-05
0.00914603
0.00912862
-6.40627e-07
0.00915803
9.36007e-07
0.00916328
4.01571e-06
0.00916768
8.2785e-06
0.0091748
1.48541e-05
0.00918316
2.44943e-05
0.00919137
3.71038e-05
0.00921385
3.33466e-05
0.00924264
2.39477e-05
-0.00462989
-0.00463294
-0.00463092
0.00462384
4.04358e-05
-0.00461763
0.00462465
3.51591e-05
-4.2184e-05
-0.0023017
-5.68552e-06
0.00232698
-1.95922e-05
-0.00114823
3.55612e-05
0.00112974
-1.70749e-05
-0.00033142
1.23907e-05
0.00034387
-2.48406e-05
4.39623e-05
-0.0011243
0.00225938
-8.83251e-05
3.85785e-05
-0.00112929
-0.00232641
8.51619e-05
0.00232127
-8.00302e-05
0.00010948
-0.0046681
0.00464954
-9.09179e-05
7.51633e-05
-0.00467087
0.00466557
-6.98625e-05
-6.54014e-05
0.00924775
4.5234e-05
4.99595e-05
-4.29808e-05
0.0092259
-2.64831e-05
0.00920724
-3.59799e-05
0.00922992
-7.16731e-06
0.00917268
-2.55864e-05
0.00916444
0.00912114
-4.41994e-07
0.00915738
9.83696e-07
0.00916186
3.17777e-06
0.00916548
6.17093e-06
0.00917181
1.12561e-05
0.00917808
1.59845e-05
0.00918664
9.26072e-06
0.00922057
-9.44171e-06
0.00929301
-3.1674e-05
-0.00463368
0.00465182
-2.75869e-05
-0.00463521
0.0046157
-6.69114e-06
2.62024e-05
-0.00229334
-1.45727e-05
0.00228962
1.8293e-05
-0.00225959
-8.71614e-06
0.00226678
1.52758e-06
-0.000954449
4.1734e-05
0.0020138
-6.59039e-05
-0.00103518
-0.00228468
7.47185e-05
0.00227883
-6.88654e-05
-0.00461189
7.90562e-05
0.00462098
-0.000143228
5.50816e-05
0.000132926
-0.0046389
0.00462575
-0.00011977
-0.000150087
0.00923542
7.72043e-05
0.000109482
-0.00467986
-0.00459216
-0.000119657
0.00921732
-9.6441e-05
0.00920268
-7.55354e-05
0.00918633
-1.88869e-05
0.00917327
-7.33614e-06
0.00916113
1.93775e-06
0.00915517
0.00914453
-2.87889e-07
0.00915705
2.11038e-07
0.00916136
1.2007e-06
0.00916449
3.05982e-06
0.00916995
4.75233e-06
0.00917638
2.39363e-06
0.009189
-2.25815e-05
0.00924555
-3.20707e-05
0.00929662
5.88316e-06
-0.0046487
0.00462008
-3.45175e-06
-0.00460354
0.00460355
1.13172e-05
-1.1319e-05
-0.00458742
0.00459651
-1.76436e-06
-7.32968e-06
-0.00228307
6.23269e-06
0.00228664
-9.79959e-06
-0.0020592
3.11808e-05
0.00207339
-4.53711e-05
-0.0022777
4.69094e-05
0.00456946
-0.000102418
-0.00228097
4.47208e-05
-0.00461097
0.000111529
0.00460379
-0.000104346
-0.00461741
9.88158e-05
0.00461036
-9.17618e-05
-0.000114902
0.00919581
7.25549e-05
8.19641e-05
-8.3354e-05
0.00918577
-7.05914e-05
0.00918992
-6.2735e-05
0.00917848
-5.46916e-05
0.00916523
-4.58527e-05
0.00915229
-3.4277e-05
0.0091436
0.00913428
-1.0594e-06
0.00915767
-6.25285e-07
0.00916093
-4.61301e-07
0.00916433
-3.10658e-07
0.0091698
-9.58125e-07
0.00917703
-1.25943e-05
0.00920064
-2.97786e-05
0.00926273
-2.72207e-07
0.00926711
5.13697e-07
0.00923377
-0.00461908
-0.00461265
-2.82666e-06
-0.00460658
0.00460845
-1.35822e-06
-0.00460417
0.00461058
-1.16988e-05
5.29183e-06
-0.0045879
2.05185e-05
0.00459181
-2.44359e-05
-0.00432326
4.5958e-05
0.00434419
-6.68827e-05
-0.00457891
7.34132e-05
0.00458294
-7.7438e-05
-0.00459811
7.73364e-05
0.00459536
-7.45842e-05
-0.00460554
7.23943e-05
0.00460197
-6.88226e-05
-0.000110932
0.00918222
6.07296e-05
6.37892e-05
-9.28434e-05
0.00916768
-7.42615e-05
0.00917134
-5.52297e-05
0.00915944
-3.81753e-05
0.00914817
-3.00974e-05
0.00914421
-2.6637e-05
0.00914013
0.00913361
-1.6229e-06
0.00915874
-2.29018e-06
0.00916159
-3.43322e-06
0.00916547
-4.36685e-06
0.00917073
-9.03894e-06
0.0091817
-3.17176e-05
0.00922332
-3.1742e-05
0.00926276
-1.0931e-05
0.0092463
-1.77514e-05
0.00924059
-1.39737e-05
0.00923679
-0.00461119
-0.00461238
-1.69948e-05
-0.00461624
0.00462097
-1.87052e-05
-0.00459166
2.65185e-05
0.00458215
-1.70084e-05
-0.00436043
4.20312e-05
0.00437694
-5.85379e-05
-0.00458701
5.35283e-05
0.00459091
-5.74278e-05
-0.00011032
0.00919164
-0.00459519
-0.00459606
5.29067e-05
5.70213e-05
-0.00010529
0.00919265
-0.00459937
-0.00459831
-9.62056e-05
0.00917313
-8.7664e-05
0.00915914
-7.15902e-05
0.00915527
-5.74467e-05
0.0091453
-4.54103e-05
0.00913614
-3.54078e-05
0.00913421
-2.19925e-05
0.00912672
0.00913875
-2.36535e-06
0.00916026
-4.09444e-06
0.00916332
-5.43614e-06
0.00916682
-7.23898e-06
0.00917253
-1.10082e-05
0.00918547
-2.83911e-05
0.0092407
-2.09802e-05
0.00925535
-1.3715e-05
0.00923904
-2.25413e-05
0.00924942
-3.4487e-05
0.00924873
-4.28031e-05
0.00925965
-0.00462807
-0.00462326
-6.73923e-05
0.00886648
-0.00454033
-0.00430157
-8.89106e-05
0.00896022
-0.00440551
-0.00453319
-9.38699e-05
0.00920421
-0.00459645
-0.0046028
-9.34597e-05
0.00919123
-9.0515e-05
0.0091897
-8.4175e-05
0.00916679
-7.74605e-05
0.00915243
-6.58372e-05
0.00914364
-5.56388e-05
0.0091351
-4.79481e-05
0.00912845
-3.64701e-05
0.00912273
-2.66804e-05
0.00911693
0.00913982
-3.19974e-06
0.00916216
-4.91046e-06
0.00916503
-7.32044e-06
0.00916923
-9.77757e-06
0.00917499
-1.3803e-05
0.0091895
-2.38804e-05
0.00925078
-2.00517e-05
0.00925152
-1.81878e-05
0.00923717
-2.48426e-05
0.00925607
-3.44552e-05
0.00925834
-4.16132e-05
0.00926681
-5.76423e-05
0.00888251
-7.23434e-05
0.00897492
-7.73891e-05
0.00920926
-7.98944e-05
0.00919374
-7.84819e-05
0.00918829
-7.42924e-05
0.0091626
-6.88966e-05
0.00914703
-6.05029e-05
0.00913525
-5.22812e-05
0.00912688
-4.47356e-05
0.0091209
-3.60969e-05
0.00911409
-2.79313e-05
0.00910876
0.00913982
-4.06675e-06
0.00916439
-6.67156e-06
0.00916764
-9.51568e-06
0.00917207
-1.24423e-05
0.00917792
-1.54504e-05
0.00919251
-1.94164e-05
0.00925474
-1.97297e-05
0.00925183
-2.08736e-05
0.00923832
-2.65405e-05
0.00926174
-3.45897e-05
0.00926639
-3.96003e-05
0.00927182
-5.15497e-05
0.00889446
-6.25543e-05
0.00898592
-6.63317e-05
0.00921303
-6.94064e-05
0.00919681
-6.86494e-05
0.00918753
-6.5795e-05
0.00915975
-6.19464e-05
0.00914318
-5.57509e-05
0.00912905
-4.90985e-05
0.00912023
-4.24509e-05
0.00911425
-3.5002e-05
0.00910665
-2.78836e-05
0.00910165
0.00913969
-4.92896e-06
0.00916687
-7.8348e-06
0.00917054
-1.04886e-05
0.00917472
-1.37333e-05
0.00918116
-1.70251e-05
0.0091958
-1.86864e-05
0.00925641
-2.10239e-05
0.00925417
-2.56565e-05
0.00924295
-2.73447e-05
0.00926343
-3.39579e-05
0.00927301
-3.79188e-05
0.00927578
-4.70086e-05
0.00890355
-5.49383e-05
0.00899385
-5.8222e-05
0.00921632
-6.09393e-05
0.00919953
-6.0606e-05
0.0091872
-5.87407e-05
0.00915788
-5.6087e-05
0.00914053
-5.06734e-05
0.00912364
-4.62474e-05
0.0091158
-3.97574e-05
0.00910776
-3.38299e-05
0.00910072
-2.8141e-05
0.00909596
0.00913886
-6.26752e-06
0.00917005
-8.3866e-06
0.00917266
-1.17503e-05
0.00917809
-1.46903e-05
0.0091841
-1.81162e-05
0.00919922
-1.98406e-05
0.00925813
-2.22528e-05
0.00925658
-2.65324e-05
0.00924723
-2.74591e-05
0.00926435
-3.29049e-05
0.00927845
-3.60588e-05
0.00927893
-4.3161e-05
0.00891065
-4.90307e-05
0.00899972
-5.17629e-05
0.00921905
-5.41368e-05
0.0092019
-5.39831e-05
0.00918704
-5.26958e-05
0.0091566
-5.02259e-05
0.00913806
-4.67648e-05
0.00912018
-4.28044e-05
0.00911184
-3.72426e-05
0.0091022
-3.21766e-05
0.00909565
-2.68036e-05
0.00909058
0.00913873
-6.56846e-06
0.00917285
-9.83452e-06
0.00917593
-1.28185e-05
0.00918107
-1.58664e-05
0.00918715
-1.93215e-05
0.00920268
-2.05143e-05
0.00925932
-2.29433e-05
0.00925901
-2.68258e-05
0.00925111
-2.96815e-05
0.00926721
-3.18142e-05
0.00928058
-3.41961e-05
0.00928131
-3.98697e-05
0.00891633
-4.43239e-05
0.00900418
-4.66124e-05
0.00922134
-4.8611e-05
0.0092039
-4.85486e-05
0.00918698
-4.76115e-05
0.00915566
-4.57383e-05
0.00913618
-4.24907e-05
0.00911693
-3.92651e-05
0.00910862
-3.54501e-05
0.00909839
-3.10887e-05
0.00909129
-2.69067e-05
0.0090864
0.00913771
-7.33577e-06
0.00917572
-1.01829e-05
0.00917878
-1.37245e-05
0.00918461
-1.68129e-05
0.00919024
-1.97266e-05
0.00920559
-2.08321e-05
0.00926043
-2.33107e-05
0.00926149
-2.67912e-05
0.00925459
-3.02711e-05
0.00927069
-3.05849e-05
0.0092809
-3.24295e-05
0.00928316
-3.686e-05
0.00892076
-4.05336e-05
0.00900785
-4.21373e-05
0.00922294
-4.40101e-05
0.00920577
-4.39982e-05
0.00918697
-4.34002e-05
0.00915506
-4.19992e-05
0.00913478
-3.97717e-05
0.0091147
-3.71125e-05
0.00910596
-3.29061e-05
0.00909418
-2.91205e-05
0.00908751
-2.55131e-05
0.00908279
0.0091372
-8.07071e-06
0.00917861
-1.09509e-05
0.00918166
-1.39936e-05
0.00918766
-1.70741e-05
0.00919332
-2.04107e-05
0.00920893
-2.13981e-05
0.00926142
-2.33751e-05
0.00926346
-2.65245e-05
0.00925774
-2.96155e-05
0.00927378
-3.52035e-05
0.00928649
-3.50457e-05
0.009283
-3.81337e-05
0.00892384
-4.00534e-05
0.00900977
-4.1332e-05
0.00922422
-4.24783e-05
0.00920692
-4.24297e-05
0.00918692
-4.21681e-05
0.0091548
-4.13631e-05
0.00913398
-4.05193e-05
0.00911386
-3.58101e-05
0.00910125
-3.20895e-05
0.00909046
-2.82671e-05
0.00908368
-2.46368e-05
0.00907916
0.00913662
-8.77821e-06
0.0091815
-1.16517e-05
0.00918453
-1.41588e-05
0.00919016
-1.77009e-05
0.00919686
-2.04295e-05
0.00921166
-2.17871e-05
0.00926277
-2.33337e-05
0.00926501
-2.61787e-05
0.00926059
-3.14249e-05
0.00927903
-3.6124e-05
0.00929119
-3.71482e-05
0.00928403
-4.05164e-05
0.00892721
-4.28681e-05
0.00901212
-4.42683e-05
0.00922562
-4.53398e-05
0.00920799
-4.52392e-05
0.00918682
-4.47924e-05
0.00915435
-4.32653e-05
0.00913245
-4.17116e-05
0.00911231
-3.97765e-05
0.00909931
-3.69073e-05
0.00908759
-3.44247e-05
0.0090812
-3.11714e-05
0.00907591
0.00912844
-9.46082e-06
0.00918434
-1.22983e-05
0.00918737
-1.52471e-05
0.00919311
-1.77217e-05
0.00919933
-2.03354e-05
0.00921427
-2.15582e-05
0.009264
-2.3253e-05
0.00926671
-2.82478e-05
0.00926558
-3.27454e-05
0.00928352
-3.52631e-05
0.0092937
-3.58786e-05
0.00928464
-3.88064e-05
0.00893014
-4.07464e-05
0.00901406
-4.17961e-05
0.00922667
-4.26892e-05
0.00920888
-4.25942e-05
0.00918673
-4.21781e-05
0.00915394
-4.12142e-05
0.00913149
-3.9371e-05
0.00911046
-3.76641e-05
0.00909761
-3.55704e-05
0.0090855
-3.28615e-05
0.00907849
-3.03926e-05
0.00907344
0.00912003
-1.01218e-05
0.00918711
-1.23976e-05
0.00918964
-1.52662e-05
0.00919598
-1.76677e-05
0.00920174
-2.06654e-05
0.00921727
-2.17633e-05
0.00926509
-2.54921e-05
0.00927043
-3.03162e-05
0.0092704
-3.23685e-05
0.00928558
-3.44498e-05
0.00929578
-3.49253e-05
0.00928512
-3.74102e-05
0.00893263
-3.8992e-05
0.00901564
-3.98887e-05
0.00922757
-4.05906e-05
0.00920959
-4.04425e-05
0.00918658
-4.00245e-05
0.00915352
-3.90843e-05
0.00913055
-3.78753e-05
0.00910925
-3.58332e-05
0.00909556
-3.34561e-05
0.00908312
-3.19302e-05
0.00907697
-2.91861e-05
0.0090707
0.00911181
-1.02574e-05
0.00918928
-1.34626e-05
0.00919285
-1.57349e-05
0.00919825
-1.85622e-05
0.00920456
-2.04426e-05
0.00921915
-2.44473e-05
0.0092691
-2.84772e-05
0.00927446
-3.02091e-05
0.00927214
-3.2078e-05
0.00928744
-3.39074e-05
0.00929761
-3.40964e-05
0.00928531
-3.63131e-05
0.00893484
-3.75614e-05
0.00901689
-3.82788e-05
0.00922828
-3.89172e-05
0.00921023
-3.86557e-05
0.00918632
-3.82671e-05
0.00915313
-3.73123e-05
0.00912959
-3.61996e-05
0.00910814
-3.42634e-05
0.00909363
-3.25333e-05
0.00908139
-3.01482e-05
0.00907458
-2.80542e-05
0.0090686
0.0091037
-1.13694e-05
0.00919184
-1.34829e-05
0.00919496
-1.56543e-05
0.00920042
-1.84075e-05
0.00920732
-2.37097e-05
0.00922445
-3.01366e-05
0.00927553
-2.85089e-05
0.00927284
-3.01088e-05
0.00927374
-3.17956e-05
0.00928913
-3.34984e-05
0.00929932
-3.36023e-05
0.00928541
-3.55056e-05
0.00893674
-3.65756e-05
0.00901796
-3.71303e-05
0.00922884
-3.75173e-05
0.00921061
-3.72846e-05
0.00918608
-3.68639e-05
0.00915271
-3.58628e-05
0.00912859
-3.43134e-05
0.00910659
-3.34282e-05
0.00909274
-3.13081e-05
0.00907927
-2.94975e-05
0.00907277
-2.75048e-05
0.00906661
0.00909516
-1.14373e-05
0.00919375
-1.39639e-05
0.00919749
-1.6528e-05
0.00920299
-1.82115e-05
0.009209
-3.34898e-05
0.00923973
-2.97806e-05
0.00927182
-2.86146e-05
0.00927167
-3.01375e-05
0.00927526
-3.17419e-05
0.00929074
-3.32909e-05
0.00930087
-3.33144e-05
0.00928543
-3.4987e-05
0.00893842
-3.58203e-05
0.0090188
-3.62583e-05
0.00922928
-3.65577e-05
0.00921091
-3.61822e-05
0.00918571
-3.57208e-05
0.00915225
-3.46984e-05
0.00912757
-3.36816e-05
0.00910557
-3.18275e-05
0.00909089
-3.07701e-05
0.00907821
-2.84947e-05
0.00907049
-2.65603e-05
0.00906468
0.00908662
-1.24516e-05
0.00919601
-1.38888e-05
0.00919893
-1.63369e-05
0.00920544
-2.70424e-05
0.00921971
-3.41673e-05
0.00924686
-3.04339e-05
0.00926808
-2.86851e-05
0.00926992
-3.01956e-05
0.00927677
-3.17648e-05
0.0092923
-3.33123e-05
0.00930241
-3.32749e-05
0.0092854
-3.47708e-05
0.00893991
-3.54949e-05
0.00901952
-3.56898e-05
0.00922947
-3.58505e-05
0.00921107
-3.54127e-05
0.00918527
-3.49142e-05
0.00915175
-3.37888e-05
0.00912644
-3.28047e-05
0.00910459
-3.14303e-05
0.00908951
-2.94361e-05
0.00907622
-2.76451e-05
0.0090687
-2.52445e-05
0.00906228
0.00907854
-1.23776e-05
0.00919759
-1.47545e-05
0.0092013
-1.65738e-05
0.00920726
-2.97909e-05
0.00923292
-3.32842e-05
0.00925035
-3.00774e-05
0.00926488
-2.88078e-05
0.00926865
-3.03305e-05
0.00927829
-3.19103e-05
0.00929388
-3.358e-05
0.00930408
-3.36968e-05
0.00928551
-3.48792e-05
0.0089411
-3.54539e-05
0.00902009
-3.53941e-05
0.00922941
-3.54194e-05
0.0092111
-3.48306e-05
0.00918468
-3.43158e-05
0.00915124
-3.31017e-05
0.00912523
-3.21641e-05
0.00910365
-3.07349e-05
0.00908808
-2.92921e-05
0.00907478
-2.6954e-05
0.00906637
-2.50604e-05
0.00906038
0.00906986
-1.26565e-05
0.00919896
-1.45296e-05
0.00920318
-1.61813e-05
0.00920891
-2.64575e-05
0.0092432
-3.17975e-05
0.00925569
-3.07354e-05
0.00926381
-2.8822e-05
0.00926674
-3.05828e-05
0.00928005
-3.21743e-05
0.00929548
-3.42012e-05
0.00930611
-3.46487e-05
0.00928596
-3.53892e-05
0.00894184
-3.58034e-05
0.00902051
-3.53879e-05
0.009229
-3.5295e-05
0.009211
-3.44267e-05
0.00918381
-3.40366e-05
0.00915085
-3.31043e-05
0.0091243
-3.17887e-05
0.00910234
-3.02317e-05
0.00908653
-2.84011e-05
0.00907294
-2.69359e-05
0.0090649
-2.45954e-05
0.00905804
0.00906102
-1.33232e-05
-1.52192e-05
-1.62061e-05
-2.15508e-05
-2.47072e-05
-3.08652e-05
-2.8854e-05
-3.0786e-05
-3.23458e-05
-3.50152e-05
-3.62051e-05
-3.62275e-05
-3.63825e-05
-3.54818e-05
-3.52136e-05
-3.41664e-05
-3.38636e-05
-3.22634e-05
-3.15792e-05
-2.98815e-05
-2.86608e-05
-2.60818e-05
-2.47828e-05
9.64625e-05
-0.000106465
-0.00121372
0.00128934
0.00013231
-0.00127555
-7.18433e-05
-7.42627e-05
-0.00115528
-0.000164835
0.0011713
3.01938e-05
-3.16708e-05
-0.00126424
0.00134578
3.57586e-05
-0.00134367
-1.75679e-05
-2.02996e-05
0.00130139
-6.62266e-05
-6.83849e-05
-3.34533e-05
3.83417e-05
-0.0012509
0.00131565
-6.29228e-05
-0.00132304
3.61906e-05
3.41264e-05
0.00134644
-1.01126e-05
-1.28067e-05
-6.50959e-05
7.18357e-05
-0.00120381
0.00124011
-0.000112048
-0.00125034
0.00012228
0.00130759
4.10501e-05
3.919e-05
-6.16961e-05
6.68568e-05
-0.00115249
0.00116138
-0.000110021
-0.00117059
0.000119231
0.00012456
0.00122935
3.73799e-05
-5.19916e-05
-0.00113361
-1.16898e-05
0.000294201
-1.43851e-06
-0.000148256
-0.000132817
-3.0669e-05
-0.000132833
-0.000179608
0.00111637
-6.22771e-05
-0.00111591
6.18198e-05
0.000114433
0.00115375
9.62071e-05
-0.000106364
-0.00111088
-0.00104878
-5.79623e-06
0.00103626
0.000138438
-0.0011415
-0.000152215
-0.00111398
-5.76857e-05
0.00112002
9.40414e-05
-0.000112574
-0.00236675
0.00121894
-0.00121007
8.75953e-05
-0.00113315
9.2262e-05
0.0011436
0.000311412
0.000126072
-0.000614873
0.00031268
-6.68623e-05
-6.84287e-05
0.000115823
-0.000540961
-0.000125732
0.00055087
0.000119988
-0.00127012
0.00247717
0.000129532
-0.00245244
-0.000154257
-0.00237112
-0.000177187
0.00239798
4.24834e-05
-4.82614e-05
-0.00242286
0.00125805
-0.00125657
2.87097e-05
8.11584e-05
0.00122719
0.00125327
6.5953e-05
-7.16591e-05
-0.00124756
0.00064181
-2.28631e-05
-0.000640044
4.2849e-05
-2.17517e-05
-0.000626259
-6.63766e-05
6.3634e-05
0.000629002
0.000330594
9.43322e-06
-0.000339093
-9.34281e-07
-0.000332784
5.15849e-05
-5.67123e-05
0.000337911
3.33986e-05
-0.00133282
0.00253548
4.68834e-05
-0.00252831
-5.4061e-05
-0.000134263
0.0024989
-1.81133e-05
2.49786e-05
-0.00242619
0.00124201
-0.0012463
-2.91659e-05
2.01491e-05
0.00125893
0.00126232
-4.96075e-06
7.07459e-06
-0.00126443
0.000655721
8.42916e-06
-0.000657213
-9.69852e-06
2.76071e-06
-0.000655637
-7.39082e-06
1.26076e-05
0.000655321
-4.90131e-06
0.000309211
-4.59903e-07
-0.000308707
-4.38815e-08
-0.000309772
-1.29649e-07
0.00031019
-2.88237e-07
-5.59328e-05
-0.00131675
0.00251648
-4.7568e-05
-0.0025277
5.87852e-05
-2.42773e-05
0.00253778
-5.75355e-05
7.00385e-05
-0.00238815
0.00119737
-0.00120362
-5.88479e-05
-3.47842e-05
0.00123743
0.0012232
-5.3659e-05
5.98396e-05
-0.00122938
4.19086e-05
0.00061751
-0.000619573
-3.98466e-05
-0.000634355
1.64264e-05
-3.03258e-05
0.000631285
1.697e-05
0.000341825
-4.42654e-05
-0.000350366
5.28061e-05
-0.000323222
-1.01027e-05
2.50469e-06
0.00033082
-0.000102156
-0.00124945
0.00244631
-0.000108424
-0.00246651
0.000128624
8.20399e-05
0.00250234
0.000591428
-8.13848e-05
-0.000594368
4.24988e-05
4.18259e-05
-0.000309771
-4.02986e-05
4.11959e-05
0.000308873
-0.00010157
-0.00117588
0.00236714
-0.000122123
-0.0023858
0.000140786
0.000137908
0.0024261
0.000542047
-6.08672e-05
-0.000544453
6.32735e-05
-0.000565041
-7.42901e-05
7.74345e-05
0.000561897
-1.61056e-05
8.16861e-06
-0.00225165
-2.44305e-05
0.000849436
-0.000819564
-5.44144e-06
1.23864e-06
0.000305354
-4.68876e-05
-0.000931992
-8.17915e-05
0.00227531
-0.00228459
9.10712e-05
4.03237e-05
0.00112001
-6.75363e-05
-0.00062466
6.59372e-05
-8.94963e-05
-0.000594384
8.38885e-05
0.000599992
-0.00117744
0.000110473
0.00119028
-0.00012331
-0.000595324
0.000601778
-4.83243e-05
-4.76266e-05
0.000627154
-0.000628314
-3.34424e-05
-3.2934e-05
8.38692e-05
-0.000533459
0.00054046
-9.08701e-05
9.13834e-05
-9.72138e-05
-0.000589493
4.58525e-05
-0.000334902
-4.37342e-05
6.27379e-05
-6.45618e-05
0.000313236
-0.00122727
0.000153926
-0.00017104
0.00124438
-0.000620291
-6.19198e-05
0.000628037
0.000116912
0.000334239
4.59255e-05
-0.000334312
-6.18725e-06
-0.000656088
1.56614e-05
-9.02322e-06
-2.30622e-05
4.14182e-05
0.000647416
-2.39619e-05
5.71394e-05
0.00125803
-6.19015e-05
-0.000319303
0.000322093
-2.58522e-05
0.000333891
-6.66237e-06
-0.000333416
0.000315631
0.000315878
-3.40898e-05
-3.6642e-05
-2.33698e-05
-0.000318796
-1.83316e-06
-0.000311541
3.60198e-06
1.58162e-05
-5.4134e-06
0.000320191
-0.00132851
7.53019e-05
0.00133499
-3.9606e-05
-4.21769e-05
-0.000334574
0.000328011
2.2379e-05
0.000339605
9.46258e-07
-0.000342384
0.000338026
4.77984e-05
1.70804e-05
-0.000342221
8.80248e-05
-0.00132094
-4.65094e-05
-4.90879e-05
1.66655e-05
-0.000637289
-2.84324e-05
1.47003e-05
7.54645e-06
-1.42575e-05
0.000649805
1.26274e-05
-1.27088e-05
0.00125904
1.59802e-05
-0.00033855
0.000334516
1.15796e-05
0.000319805
1.82198e-05
-0.000321359
0.000332737
-6.23761e-06
7.7858e-06
-0.000337906
-1.66211e-05
-0.000314125
7.52386e-06
-1.20393e-06
0.000309402
1.01265e-06
-0.00133993
-2.99038e-05
0.00133527
1.84228e-05
1.61466e-05
-0.000339052
0.000340765
-2.91668e-06
0.000328316
-2.22386e-05
-0.000322699
0.000338197
1.27784e-06
-2.39975e-06
-0.000337112
-1.75067e-05
-0.0013434
1.16638e-05
9.31103e-06
-0.000616281
-4.27484e-05
0.000615286
2.10482e-05
2.26951e-05
0.000598515
-4.88296e-05
5.07267e-05
-0.000600413
0.000317314
1.89171e-05
-0.000617563
2.16396e-05
2.15515e-05
-4.17223e-05
-0.000311742
4.36935e-05
-4.82155e-05
6.08415e-05
0.000329199
-0.00128014
-9.97296e-05
0.00127027
5.51613e-05
5.44438e-05
-0.000336756
0.000329523
-4.09833e-05
0.000618958
4.12133e-05
-7.76121e-05
-0.000624281
0.000334996
-1.67825e-05
-3.92008e-05
-0.00034182
-9.43174e-05
-0.00128972
5.25623e-05
5.13334e-05
-0.000577523
-4.8086e-05
0.000575338
5.02712e-05
0.000564331
-4.19641e-05
4.33458e-05
-0.000565713
-4.96447e-05
0.000597201
5.09587e-05
-4.89165e-05
5.15128e-05
-0.00058012
-7.50479e-05
-0.000568599