/*--------------------------------*- C++ -*----------------------------------*\
| =========                 |                                                 |
| \\      /  F ield         | OpenFOAM: The Open Source CFD Toolbox           |
|  \\    /   O peration     | Version:  5.x                                   |
|   \\  /    A nd           | Web:      www.OpenFOAM.org                      |
|    \\/     M anipulation  |                                                 |
\*---------------------------------------------------------------------------*/
FoamFile
{
    version     2.0;
    format      ascii;
    class       volScalarField;
    location    "600";
    object      pSat;
}
// * * * * * * * * * * * * * * * * * * * * * * * * * * * * * * * * * * * * * //

dimensions      [0 2 -2 0 0 0 0];

internalField   nonuniform List<scalar> 
6584
(
697.948
697.948
697.948
697.948
697.948
697.948
697.948
697.948
697.948
697.948
697.948
697.948
697.948
697.948
697.948
697.948
697.948
697.948
697.948
697.948
697.948
697.948
697.948
697.948
697.948
697.948
697.948
697.948
697.948
697.948
697.948
697.948
697.948
697.948
697.948
697.948
697.948
697.948
697.948
697.948
697.948
697.948
697.948
697.948
697.948
697.948
697.948
697.948
697.948
697.948
697.948
697.948
697.948
697.948
697.948
697.948
697.948
697.948
697.948
697.948
697.948
697.948
697.948
697.948
697.948
697.948
697.948
697.948
697.948
697.948
697.948
697.948
697.948
697.948
697.948
697.948
697.948
697.948
697.948
697.948
697.948
697.948
697.948
697.948
697.948
697.948
697.948
697.948
697.948
697.948
697.948
697.948
697.948
697.948
697.948
697.948
697.948
697.948
697.948
697.948
697.948
697.948
697.948
697.948
697.948
697.948
697.948
697.948
697.948
697.948
697.948
697.948
697.948
697.948
697.948
697.948
697.948
697.948
697.948
697.948
697.948
697.948
697.948
697.948
697.948
697.948
697.948
697.948
697.948
697.948
697.948
697.948
697.948
697.948
697.948
697.948
697.948
697.948
697.948
697.948
697.948
697.948
697.948
697.948
697.948
697.948
697.948
697.948
697.948
697.948
697.948
697.948
697.948
697.948
697.948
697.948
697.948
697.948
697.948
697.948
697.948
697.948
697.948
697.948
697.948
697.948
697.948
697.948
697.948
697.948
697.948
697.948
697.948
697.948
697.948
697.948
697.948
697.948
697.948
697.948
697.948
697.948
697.948
697.948
697.948
697.948
697.948
697.948
697.948
697.948
697.948
697.948
697.948
697.948
697.948
697.948
697.948
697.948
697.948
697.948
697.948
697.948
697.948
697.948
697.948
697.948
697.948
697.948
697.948
697.948
697.948
697.948
697.948
697.948
697.948
697.948
697.948
697.948
697.948
697.948
697.948
697.948
697.948
697.948
697.948
697.948
697.948
697.948
697.948
697.948
697.948
697.948
697.948
697.948
697.948
697.948
697.948
697.948
697.948
697.948
697.948
697.948
697.948
697.948
697.948
697.948
697.948
697.948
697.948
697.948
697.948
697.948
697.948
697.948
697.948
697.948
697.948
697.948
697.948
697.948
697.948
697.948
697.948
697.948
697.948
697.948
697.948
697.948
697.948
697.948
697.948
697.948
697.948
697.948
697.948
697.948
697.948
697.948
697.948
697.948
697.948
697.948
697.948
697.948
697.948
697.948
697.948
697.948
697.948
697.948
697.948
697.948
697.948
697.948
697.948
697.948
697.948
697.948
697.948
697.948
697.948
697.948
697.948
697.948
697.948
697.948
697.948
697.948
697.948
697.948
697.948
697.948
697.948
697.948
697.948
697.948
697.948
697.948
575.745
697.948
697.948
697.948
697.948
697.948
697.948
697.948
697.948
697.948
697.948
697.948
697.948
697.948
697.948
697.948
697.948
697.948
697.948
697.948
697.948
697.948
697.948
697.948
665.313
697.948
697.948
697.948
697.948
697.948
697.948
697.948
697.948
697.948
697.948
697.948
697.948
697.948
697.948
697.948
697.948
697.948
697.948
697.948
697.948
697.948
697.948
697.944
668.058
697.948
697.948
697.948
697.948
697.948
697.948
697.948
697.948
697.948
697.948
697.948
697.948
697.948
697.948
697.948
697.948
697.948
697.948
697.948
697.948
697.948
697.948
697.351
683.621
697.948
697.948
697.948
697.948
697.948
697.948
697.948
697.948
697.948
697.948
697.948
697.948
697.948
697.948
697.948
697.948
697.948
697.948
697.948
697.948
697.948
697.948
697.013
683.985
697.948
697.948
697.948
697.948
697.948
697.948
697.948
697.948
697.948
697.948
697.948
697.948
697.948
697.948
697.948
697.948
697.948
697.948
697.948
697.948
697.948
697.85
679.465
691.192
697.948
697.948
697.948
697.948
697.948
697.948
697.948
697.948
697.948
697.948
697.948
697.948
697.948
697.948
697.948
697.948
697.948
697.948
697.948
697.948
697.947
697.766
679.551
691.241
697.947
697.948
697.948
697.948
697.948
697.948
697.948
697.948
697.948
697.948
697.948
697.948
697.948
697.948
697.948
697.948
697.948
697.948
697.948
697.948
697.946
697.686
679.628
691.283
697.946
697.948
697.948
697.948
697.948
697.948
697.948
697.948
697.948
697.948
697.948
697.948
697.948
697.948
697.948
697.948
697.948
697.948
697.948
697.948
697.945
697.611
679.699
691.319
697.945
697.948
697.948
697.948
697.948
697.948
697.948
697.948
697.948
697.948
697.948
697.948
697.948
697.948
697.948
697.948
697.948
697.948
697.948
697.948
697.944
697.54
679.765
691.351
697.944
697.948
697.948
697.948
697.948
697.948
697.948
697.948
697.948
697.948
697.948
697.948
697.948
697.948
697.948
697.948
697.948
697.948
697.948
697.948
697.942
697.473
679.826
691.379
697.943
697.948
697.948
697.948
697.948
697.948
697.948
697.948
697.948
697.948
697.948
697.948
697.948
697.948
697.948
697.948
697.948
697.948
697.948
697.948
697.94
697.41
679.882
691.403
697.943
697.948
697.948
697.948
697.948
697.948
697.948
697.948
697.948
697.948
697.948
697.948
697.948
697.948
697.948
697.948
697.948
697.948
697.948
697.948
697.938
697.343
679.94
691.428
697.942
697.948
697.948
697.948
697.948
697.948
697.948
697.948
697.948
697.948
697.948
697.948
697.948
697.948
697.948
697.948
697.948
697.948
697.948
697.948
697.935
697.272
680
691.454
697.941
697.948
697.948
697.948
697.948
697.948
697.948
697.948
697.948
697.948
697.948
697.948
697.948
697.948
697.948
697.948
697.948
697.948
697.948
697.948
697.933
697.205
680.058
691.478
697.94
697.948
697.948
697.948
697.948
697.948
697.948
697.948
697.948
697.948
697.948
697.948
697.948
697.948
697.948
697.948
697.948
697.948
697.948
697.948
697.93
697.14
680.114
691.501
697.939
697.948
697.948
697.948
697.948
697.948
697.948
697.948
697.948
697.948
697.948
697.948
697.948
697.948
697.948
697.948
697.948
697.948
697.948
697.948
697.927
697.077
680.167
691.522
697.939
697.948
697.948
697.948
697.948
697.948
697.948
697.948
697.948
697.948
697.948
697.948
697.948
697.948
697.948
697.948
697.948
697.948
697.948
697.948
697.923
697.015
680.22
691.543
697.938
697.948
697.948
697.948
697.948
697.948
697.948
697.948
697.948
697.948
697.948
697.948
697.948
697.948
697.948
697.948
697.948
697.948
697.948
697.948
697.92
696.955
680.271
691.563
697.937
697.948
697.948
697.948
697.948
697.948
697.948
697.948
697.948
697.948
697.948
697.948
697.948
697.948
697.948
697.948
697.948
697.948
697.948
697.948
697.916
696.895
680.322
691.583
697.936
697.948
697.948
697.948
697.948
697.948
697.948
697.948
697.948
697.948
697.948
697.948
697.948
697.948
697.948
697.948
697.948
697.948
697.948
697.948
697.912
696.834
680.373
691.603
697.936
697.948
697.948
697.948
697.948
697.948
697.948
697.948
697.948
697.948
697.948
697.948
697.948
697.948
697.948
697.948
697.948
697.948
697.948
697.948
697.908
696.773
680.424
691.622
697.935
697.948
697.948
697.948
697.948
697.948
697.948
697.948
697.948
697.948
697.948
697.948
697.948
697.948
697.948
697.948
697.948
697.948
697.948
697.947
697.904
696.709
680.475
691.642
697.934
697.948
697.948
697.948
697.948
697.948
697.948
697.948
697.948
697.948
697.948
697.948
697.948
697.948
697.948
697.948
697.948
697.948
697.948
697.948
697.948
697.948
697.948
697.948
697.948
697.948
697.948
559.167
570.279
697.948
697.948
697.948
697.948
697.948
697.948
697.948
697.948
697.948
697.948
697.948
697.948
697.948
697.948
697.948
697.948
697.948
697.948
697.743
697.91
697.505
697.888
697.948
697.948
697.948
697.948
697.948
697.948
697.948
697.107
697.208
692.883
695.32
697.948
697.948
697.948
697.948
697.948
697.948
697.948
697.403
697.25
696.579
694.293
697.948
697.948
697.948
697.701
697.631
697.948
697.948
697.948
697.89
697.844
697.948
594.255
560.069
639.711
697.948
697.948
697.923
697.948
697.948
697.947
697.842
697.948
697.948
697.899
697.948
697.948
697.948
697.931
697.253
697.692
697.948
697.076
695.145
697.791
697.173
695.474
697.488
697.948
697.716
697.228
697.925
697.727
697.948
697.228
697.116
697.948
694.728
695.656
695.064
694.685
694.199
692.744
697.948
697.078
697.287
697.222
697.088
697.948
695.336
696.173
695.725
695.199
697.604
696.708
697.948
697.652
697.844
697.3
697.631
697.948
696.908
697.234
696.274
696.846
697.834
697.725
697.853
697.896
697.948
697.491
697.194
697.273
697.471
697.91
697.894
697.948
697.948
697.948
697.933
697.948
697.948
697.948
697.948
697.948
697.703
697.592
691.514
688.02
697.948
697.948
697.948
697.948
697.936
697.948
697.948
697.948
697.573
697.426
697.948
549.365
570.059
643.998
656.249
571.267
598.41
687.343
680.99
697.948
697.9
697.922
657.784
665.886
697.924
697.934
697.948
697.948
697.948
697.948
697.948
697.948
697.948
697.925
697.948
697.938
697.948
697.941
697.948
697.644
697.743
694.281
694.405
695.789
695.529
697.616
681.057
697.762
694.171
691.905
692.24
694.311
697.868
695.307
697.936
690.097
697.049
688.585
697.924
697.245
697.934
697.948
697.895
696.033
697.937
697.94
695.972
695.852
697.63
697.586
696.306
696.417
697.258
697.943
697.945
697.941
697.942
697.256
697.854
697.947
697.948
697.946
697.947
697.821
695.173
695.226
694.666
694.633
691.057
691.291
697
697.941
697.94
697.942
697.941
696.998
697.171
697.94
697.941
697.94
697.94
697.163
551.319
695.725
574.458
551.631
602.991
575.942
695.842
694.62
553.99
694.762
697.33
697.269
697.456
697.943
697.942
697.944
697.943
697.49
626.408
641.455
696.549
628.515
605.02
648.825
631.269
696.631
601.327
624.014
697.796
688.179
691.84
681.839
687.446
697.781
679.435
665.824
668.876
574.263
666.855
664.611
596.854
694.199
694.384
697.946
697.948
697.948
697.948
697.948
697.863
697.85
630.708
697.725
697.856
697.947
697.783
697.715
697.948
565.93
567.904
549.732
665.644
665.427
572.158
579.416
693.3
694.157
510.131
697.948
697.948
697.948
697.948
697.948
697.948
697.84
697.947
697.945
697.518
697.35
697.825
697.109
697.936
697.936
697.937
697.936
697.122
693.541
694.952
696.247
694.525
665.973
660.056
697.874
694.531
695.95
696.303
696.336
587.746
697.948
697.944
697.948
697.916
697.599
697.421
697.946
697.948
697.948
697.948
697.948
697.945
697.422
697.941
697.938
697.944
697.942
697.484
696.587
675.252
688.24
666.809
668.71
695.422
689.576
691.015
697.377
695.824
696.775
697.451
697.907
697.91
697.877
697.883
697.242
697.936
697.936
697.155
694.948
662.797
655.908
694.855
664.076
666.279
654.665
655.836
694.602
692.962
691.864
697.034
697.88
697.876
697.871
697.895
697.175
697.202
697.873
697.876
697.875
697.873
697.123
697.505
691.587
692.951
689.698
688.879
696.984
697.805
697.945
697.944
697.946
697.945
697.816
697.069
661.651
650.717
673.87
670.343
697.114
603.858
608.534
697.371
677.909
674.978
598.084
602.455
673.198
667.515
697.946
697.947
697.947
659.932
690.227
663.967
666.697
666.03
689.776
697.948
697.94
697.948
697.92
697.947
551.704
558.532
569.533
567.005
649.78
581.409
578.846
588.721
582.184
651.35
578.176
583.373
684.985
683.916
661.746
599.516
592.391
580.145
584.108
697.904
697.945
697.948
697.931
697.943
697.888
697.525
697.813
693.674
694.823
696.164
694.669
682.381
693.666
692.676
694.705
693.976
682.127
690.414
689.462
692.365
690.942
693.373
675.546
679.047
669.163
673.807
693.039
656.84
658.58
693.52
697.71
697.483
697.907
697.774
694.409
695.957
695.431
697.299
696.181
697.818
697.944
697.922
697.733
697.565
697.83
697.64
697.922
697.685
697.879
697.925
697.726
697.859
697.945
697.906
697.843
671.299
673.379
696.402
653.069
644.866
676.956
654.818
633.473
626.434
642.405
636.609
695.526
669.397
670.797
688.318
685.744
695.149
690.422
682.579
679.759
685.26
683.329
697.434
691.345
692.259
695.945
696.714
697.894
697.903
697.341
697.246
697.885
697.891
664.697
664.002
695.013
619.635
619.808
590.643
616.036
617.136
626.266
619.196
617.354
660.884
663.355
694.797
615.46
608.557
624.801
617.59
595.748
589.155
605.893
598.926
694.61
657.044
659.906
692.117
691.683
697.885
697.881
697.023
697.107
697.893
697.887
697.871
697.872
697.195
697.132
697.872
697.871
554.105
561.571
666.438
670.993
660.512
664.824
553.664
592.134
677.114
669.782
672.243
675.951
586.453
641.18
643.692
631.643
640.237
560.905
654.747
659.32
645.087
652.337
560.834
690.375
691.249
697.467
686.811
688.504
689.02
686.738
688.485
697.054
688.376
689.652
632.487
565.481
566.349
576.699
566.154
634.653
569.786
609.893
566.612
613.648
684.757
695.527
694.929
696.235
695.727
685.249
676.989
677.908
610.603
615.627
587.164
596.293
677.135
674.514
697.948
697.948
697.948
697.948
697.94
697.941
697.948
697.948
697.948
697.948
697.948
697.948
697.948
697.948
697.948
697.948
697.947
697.863
697.51
696.792
696.696
693.036
695.193
697.938
697.939
697.313
691.423
691.001
694.362
693.257
693.965
697.696
697.943
697.948
697.948
696.843
697.176
697.876
697.938
697.917
697.946
697.767
695.064
696.689
695.59
696.595
696.489
697.426
697.613
697.615
697.233
697.917
697.922
697.745
697.171
697.936
697.937
667.89
665.013
695.452
694.033
691.991
691.819
692.606
697.068
697.612
697.61
697.216
697.609
697.611
697.608
697.607
697.098
694.35
672.357
669.355
697.334
697.878
697.874
697.875
697.947
697.946
566.467
567.023
681.152
678.804
697.399
565.553
565.972
696.088
696.41
697.905
697.937
697.927
547.921
550.262
551.739
568.338
572.594
547.258
548.704
568.993
565.193
594.541
675.976
674.932
681.976
605.633
600.797
662.852
697.948
697.948
697.948
697.902
697.923
697.939
697.944
697.863
697.88
697.948
697.948
697.947
697.256
697.209
697.575
697.784
697.616
697.529
693.984
694.53
692.568
692.899
695.961
695.208
691.172
691.907
683.495
683.621
687.499
686.963
681.028
683.934
684.302
697.715
694.244
695.007
694.646
691.746
695.758
695.288
697.604
697.421
696.622
683.186
681.212
694.083
690.656
685.804
697.947
697.946
697.877
697.851
697.667
697.76
696.599
697.764
697.831
692.556
694.105
697.742
678.654
676.248
696.196
696.525
697.936
697.94
697.89
697.753
697.926
697.931
695.395
664.701
664.571
691.087
691.418
697.604
697.604
697.178
697.151
697.603
697.604
553.213
572.577
609.355
611.731
584.542
586.363
549.431
674.493
672.918
694.484
560.972
558.091
575.809
576.16
556.461
582.772
583.579
555.84
556.409
697.886
697.882
697.354
697.555
697.893
697.89
616.936
674.747
676.331
671.44
673.086
612.946
689.872
695.932
696.373
696.295
696.123
690.436
683.035
688.905
688.184
677.75
676.361
679.601
576.313
578.182
579.669
565.05
669.494
615.649
608.139
622.616
617.564
663.317
653.976
654.502
679.983
682.905
694.908
697.946
697.946
697.939
565.08
565.417
610.905
610.62
544.641
576.253
567.993
567.982
565.664
567.024
578.336
511.721
675.758
677.029
697.948
697.948
697.948
696.975
696.885
697.513
697.171
697.475
697.679
697.382
697.437
693.324
695.071
689.376
689.878
689.941
689.367
694.432
690.703
690.537
664.654
654.88
654.798
656.649
656.251
662.979
697.55
697.773
697.781
697.743
697.765
697.495
695.706
697.249
696.368
696.063
697.238
697.617
697.619
691.953
692.086
693.692
692.162
697.616
697.614
697.048
697.607
697.608
697.209
697.112
697.606
697.605
689.734
691.441
690.727
692.047
691.817
689.567
567.701
568.814
565.379
565.299
599.603
579.185
577.847
656.647
656.658
671.464
659.789
662.178
655.509
657.306
669.448
697.942
697.939
697.944
697.936
697.946
697.948
697.948
697.943
697.945
697.942
663.059
677.951
677.087
680.346
679.104
663.972
669.719
673.875
672.118
676.388
675.484
668.204
697.944
697.947
697.945
697.871
697.808
697.934
697.924
547.957
565.047
552.706
552.21
568.895
568.019
598.027
599.847
580.005
547.283
546.335
574.649
556.138
556.267
555.058
589.299
558.485
551.66
676.847
678.445
685.921
672.569
673.028
671.36
671.689
682.876
674.5
675.168
580.909
562.753
564.192
561.851
561.685
582.08
697.93
697.934
697.915
697.844
697.891
697.923
696.845
697.541
697.142
697.062
697.243
697.315
697.074
697.164
693.811
694.662
690.491
690.629
690.079
690.292
696.075
693.077
693.204
690.48
690.7
694.898
690.601
684.938
683.868
681.54
686.51
685.931
690.024
684.759
684.623
686.439
685.471
689.743
691.996
687.317
687.886
685.249
686.328
691.507
684.396
670.701
682.317
681.444
655.737
656.623
693.1
696.152
695.958
692.637
695.164
696.917
696.46
686.369
684.707
692.238
692.619
695.621
689.815
688.126
697.153
697.396
697.796
697.551
696.838
695.826
696.781
697.798
697.875
697.891
697.799
697.831
697.668
697.472
697.635
697.891
697.827
697.799
697.896
697.843
697.906
697.758
697.765
697.673
697.784
650.919
647.695
670.58
642.5
645.456
636.28
656.412
630.757
628.419
640.291
638.518
687.031
675.411
678.216
669.731
672.483
686.284
694.611
690.331
691.602
679.891
687.341
693.306
673.963
669.418
681.825
652.906
655.409
648.748
650.774
680.996
684.761
665.08
667.263
658.267
661.5
684.072
696.086
696.627
620.709
594.042
597.629
586.771
590.223
620.392
597.369
599.381
599.052
607.259
618.425
568.482
571.723
574.628
568.886
621.442
618.596
580.795
583.636
575.304
578.246
618.006
613.721
611.673
623.094
620.125
592.964
590.477
603.645
601.791
691.455
691.545
697.186
697.605
697.606
697.604
697.604
697.141
554.517
600.908
605.923
568.954
549.312
589.777
595.01
567.106
563.949
641.932
596.797
597.105
636.032
592.157
583.772
597.073
595.821
638.733
574.203
570.501
577.493
581.139
559.014
561.079
569.628
690.762
694.103
693.83
694.507
694.312
691.006
687.389
688.2
688.202
686.73
686.728
687.312
688.332
692.583
692.271
693.451
693.003
688.87
565.666
579.662
581.271
577.256
578.466
565.998
572.671
591.718
595.406
583.829
587.529
568.651
569.057
556.792
558.812
556.176
556.231
566.599
572.834
575.609
562.933
567.855
565.77
689.999
689.527
684.129
676.836
678.961
571.063
574.611
590.696
569.039
564.407
576.201
573.612
593.901
565.754
565.639
654.649
655.066
697.948
697.948
697.948
697.948
697.948
697.948
697.948
697.948
697.948
697.948
697.948
697.948
697.948
697.948
697.948
697.948
697.948
697.948
697.948
697.948
697.948
697.948
697.948
697.948
697.948
697.948
697.948
697.948
697.948
697.948
697.948
697.948
697.948
697.948
697.948
697.948
697.948
697.948
697.948
697.948
697.948
697.948
697.948
697.948
697.948
697.948
697.948
697.948
697.948
697.948
697.948
697.948
697.948
697.948
697.948
697.948
697.948
697.948
697.948
697.948
697.948
697.948
697.948
697.948
697.948
697.948
697.948
697.948
697.948
697.948
697.948
697.948
697.948
697.948
697.948
697.948
697.948
697.948
697.948
697.948
697.948
697.948
697.948
697.948
697.948
697.947
697.947
697.948
697.948
697.948
697.948
697.948
697.948
697.948
697.948
697.948
697.948
697.948
697.948
697.948
697.947
697.947
697.948
697.948
697.948
697.948
697.948
697.948
697.948
697.948
697.948
697.948
697.947
697.947
697.948
697.948
697.948
697.948
697.948
697.948
697.948
697.948
697.948
697.948
697.948
697.948
697.948
697.948
697.948
697.948
697.948
697.948
697.948
697.948
697.948
697.948
697.817
697.816
591.534
691.294
691.841
697.948
697.948
697.948
697.948
697.948
697.948
697.948
697.948
697.948
697.948
697.948
697.948
697.946
627.106
624.648
667.45
697.948
697.948
697.948
697.948
697.948
697.948
697.948
697.948
697.948
697.947
697.948
697.56
660.03
627.828
683.411
697.94
697.948
697.948
697.948
697.948
697.948
697.948
697.948
697.948
697.948
697.948
697.948
697.948
697.948
697.947
697.947
697.948
697.948
697.947
697.946
697.948
697.948
697.948
697.947
697.947
697.948
697.948
697.946
697.946
697.946
697.946
697.948
697.947
697.947
697.948
697.948
697.947
697.948
697.947
697.947
697.948
697.948
697.948
697.948
697.948
697.948
697.948
697.815
697.867
697.948
544.152
602.531
603.19
650.959
651.093
513.366
697.948
697.948
697.948
697.948
697.948
697.948
697.948
697.948
697.947
697.948
697.948
697.948
697.948
697.948
697.948
697.948
697.948
697.948
697.948
697.948
697.948
697.948
697.948
697.948
697.948
697.948
697.948
697.948
697.948
697.948
697.946
697.941
697.948
697.948
697.948
697.948
697.948
697.948
697.948
697.948
697.948
697.948
697.948
697.948
697.948
697.948
697.948
697.948
697.948
697.948
697.948
697.948
697.948
697.948
697.948
697.948
697.781
697.903
697.893
697.94
697.936
697.898
697.82
697.749
697.865
697.948
697.948
697.948
697.948
697.948
697.948
697.948
697.948
697.948
697.948
697.948
697.948
697.948
697.948
697.948
697.948
697.948
697.948
697.947
697.947
697.948
697.103
697.74
697.741
697.763
697.753
697.17
697.948
697.948
697.948
697.948
697.948
697.948
697.948
697.948
697.948
697.948
697.948
697.948
697.948
697.948
697.948
697.948
697.948
697.948
697.947
697.947
697.948
697.335
697.939
697.94
697.773
697.779
697.271
696.451
693.757
694.12
697.948
697.948
697.948
697.948
697.948
697.948
697.948
697.948
697.948
697.675
695.933
696.351
696.981
697.055
697.655
697.948
697.948
697.948
697.948
697.948
697.948
697.948
697.948
697.948
697.885
697.701
697.72
697.529
697.566
697.852
697.872
697.817
697.948
589.375
696.335
696.242
665.729
666.201
563.855
697.752
697.731
633.155
697.948
697.934
697.941
697.941
697.934
697.948
697.932
697.945
697.943
697.948
697.948
697.946
697.948
697.948
697.948
697.945
697.896
697.939
697.948
697.948
697.948
697.944
697.947
697.948
697.906
697.859
697.847
697.947
697.946
697.947
697.948
697.948
697.948
697.948
697.948
697.948
697.945
697.946
697.939
697.304
697.787
697.774
697.88
697.865
697.623
697.948
697.948
697.948
696.947
695.52
695.905
691.31
691.468
695.23
696.152
696.325
697.251
697.947
697.947
697.948
697.69
697.82
697.833
697.898
697.942
697.944
697.841
697.847
697.734
697.948
697.948
697.948
697.207
697.764
697.768
697.743
697.745
697.128
697.948
697.947
697.947
694.805
690.405
690.222
692.278
692.106
695.584
694.989
691.019
691.162
690.092
690.01
694.635
697.946
697.946
697.948
697.72
697.711
697.267
697.948
697.946
697.946
695.471
683.252
681.361
690.752
690.327
696.067
695.793
692.622
692.454
680.764
678.693
695.058
697.574
696.802
696.897
694.506
694.829
696.821
697.947
697.947
697.948
697.704
697.906
697.903
697.921
697.919
697.835
697.31
697.735
697.728
697.9
697.897
697.572
697.948
697.947
697.947
696.966
694.02
693.784
695.114
694.962
697.197
696.37
691.55
691.157
693.529
693.252
696.779
697.822
697.441
697.487
696.472
696.784
697.746
697.861
697.925
697.923
697.947
697.947
697.881
697.948
697.948
697.948
697.537
683.478
681.83
680.588
682.758
697.518
697.308
695.388
695.255
697.907
696.465
696.546
697.948
697.948
697.948
697.948
697.948
697.948
697.948
697.948
697.948
697.948
697.948
697.948
697.948
697.948
697.948
697.948
697.948
697.948
697.947
697.947
697.948
697.66
697.935
697.936
697.933
697.934
697.644
691.093
686.376
687.094
681.559
682.697
688.679
697.948
697.948
697.948
697.948
697.948
697.948
697.907
697.93
697.943
697.948
697.948
697.948
697.948
697.948
697.948
697.948
697.948
697.948
697.513
697.942
697.932
697.94
697.941
697.492
697.948
697.947
697.947
646.168
622.699
620.628
634.006
631.744
654.582
686.668
679.481
680.444
697.948
697.948
697.948
697.911
697.947
697.947
697.947
697.948
697.914
659.253
638.454
636.284
648.16
646.625
664.897
697.929
697.947
697.947
697.947
697.947
697.93
697.948
697.948
697.948
697.948
697.948
697.948
697.948
697.948
697.948
697.948
697.948
697.948
697.948
697.948
697.948
697.948
697.948
697.948
697.948
697.948
697.948
697.948
697.947
697.948
697.948
697.948
697.948
697.945
697.947
697.944
697.948
697.948
697.948
695.204
695.764
697.647
697.748
697.357
697.403
693.938
690.829
691.219
687.757
688.335
692.26
693.277
696.586
696.449
696.819
696.709
693.559
697.86
697.599
697.629
697.769
697.872
697.942
697.903
697.298
697.701
697.41
697.771
697.696
697.945
697.94
697.919
697.948
697.948
697.948
697.923
697.915
697.934
697.942
697.933
697.928
692.83
693.083
696.098
695.74
692.401
692.606
697.153
697.265
697.671
697.538
696.933
697.043
697.639
697.649
697.266
697.944
697.932
697.931
697.937
697.935
697.944
697.941
697.926
697.925
697.929
697.927
697.942
697.253
697.63
697.634
697.906
697.914
697.872
697.948
697.946
697.945
697.947
697.946
697.948
697.946
697.941
697.939
697.944
697.942
697.947
697.788
697.883
697.895
691.276
691.179
695.122
695.281
691.475
691.374
690.305
690.408
694.703
694.619
690.132
690.212
697.629
697.625
697.006
697.941
697.925
697.925
697.924
697.924
697.941
697.942
697.928
697.928
697.926
697.927
697.941
697.01
697.642
697.634
697.94
697.923
697.923
697.924
697.923
697.94
697.94
697.923
697.923
697.923
697.923
697.94
688.902
683.899
695.603
600.515
633.117
635.971
613.771
616.029
577.97
695.957
689.86
689.381
694.911
677.801
675.146
696.11
696.252
697.382
697.199
695.74
695.935
697.787
697.776
697.418
697.943
697.931
697.932
697.929
697.93
697.942
697.944
697.934
697.935
697.933
697.933
697.944
697.517
697.804
697.796
628.495
602.181
600.23
618.12
615.131
639.279
692.296
691.932
696.462
625.2
654.013
656.229
638.336
640.778
607.132
641.509
680.322
681.468
677.752
679.07
638.823
696.708
692.952
692.635
603.916
573.533
571.426
597.83
594.488
621.086
697.332
697.389
697.81
688.765
692.535
692.161
694.613
694.36
691.419
691.733
691.27
686.616
697.764
697.197
697.268
666.972
629.114
624.206
635.078
630.913
668.058
667.785
651.27
649.722
693.995
683.687
685.412
691.583
691.931
694.576
697.948
697.948
697.948
697.948
697.948
697.948
697.859
697.939
697.94
697.939
697.939
697.855
686.498
686.069
627.862
697.725
696.23
696.271
696.211
696.24
697.738
697.758
697.938
697.938
697.936
697.937
697.748
697.948
697.948
697.947
575.089
571.246
545.797
665.2
637.315
629.799
638.401
637.745
665.183
693.994
680.828
679.312
685.068
687.838
694.203
510.464
600.306
619.77
697.948
697.948
697.948
697.948
697.948
697.948
697.948
697.948
697.948
697.948
697.948
697.948
697.948
697.948
697.948
697.948
697.948
697.948
697.919
697.912
697.813
697.946
697.939
697.941
697.934
697.937
697.946
697.842
697.698
697.671
697.74
697.74
697.102
697.936
697.896
697.896
697.896
697.896
697.936
697.936
697.9
697.902
697.897
697.898
697.936
697.141
697.746
697.742
693.33
693.496
696.34
697.655
697.679
697.88
695.63
697.003
696.916
697.149
697.08
695.798
696.322
685.964
680.82
686.009
686.034
696.332
586.036
652.789
652.206
697.948
697.948
697.948
697.948
697.948
697.948
697.948
697.948
697.948
697.874
697.866
697.911
697.948
697.948
697.947
697.948
697.948
697.948
697.948
697.948
697.948
697.948
697.948
697.947
697.948
697.948
697.948
697.942
697.947
697.947
697.817
697.802
697.362
697.94
697.912
697.916
697.905
697.908
697.939
697.943
697.928
697.931
697.92
697.924
697.942
697.551
697.849
697.833
694.315
694.947
696.778
679.132
690.282
688.41
693.38
692.233
685.097
667.384
683.413
683.147
684.012
683.702
668.023
695.324
691.64
691.823
690.234
694.31
693.966
694.771
694.558
690.661
697.317
696.463
696.587
697.745
697.794
697.619
697.909
697.898
697.881
697.879
697.804
697.801
697.81
697.807
697.881
697.936
697.897
697.897
697.899
697.898
697.936
697.141
697.748
697.752
690.798
690.608
694.874
660.687
681.368
681.983
680.052
680.667
658.114
690.745
690.877
694.918
664.871
682.351
682.069
682.897
682.638
665.687
654.269
679.446
679.644
679.577
679.396
654.795
694.626
689.976
689.963
697.878
697.8
697.802
697.797
697.798
697.877
697.832
697.836
697.897
697.232
697.697
697.683
697.874
697.795
697.794
697.799
697.797
697.875
697.874
697.794
697.796
697.793
697.793
697.873
696.588
696.697
697.541
692.045
694.962
694.722
695.424
695.204
692.534
696.911
695.056
695.222
697.912
697.909
697.793
697.945
697.937
697.938
697.936
697.937
697.945
697.946
697.94
697.941
697.939
697.939
697.945
697.826
697.917
697.915
694.44
694.238
697.019
657.155
684.314
685.117
682.502
683.446
655.605
672.724
687.119
687.7
685.837
686.501
671.56
697.157
694.8
694.626
605.285
584.325
583.044
587.464
585.72
606.799
695.628
695.512
697.341
676.981
689.215
689.654
688.244
688.745
676.009
581.776
580.487
601.04
697.948
697.947
697.946
685.029
685.673
690.661
689.272
683.671
684.403
697.947
697.948
697.948
697.948
697.948
697.947
697.945
697.94
697.944
626.176
624.485
648.028
580.759
601.266
602.565
585.532
607.88
610.637
603.953
605.659
583.411
653.022
629.709
627.859
642.076
640.376
660.566
597.928
618.603
620.448
613.592
616.338
595.636
697.946
697.943
697.94
697.946
697.945
697.947
697.936
697.918
697.91
697.937
697.926
697.94
697.657
697.644
697.802
693.327
689.466
690.136
688.323
688.829
692.99
694.478
691.52
691.895
690.713
691.15
694.241
689.92
690.4
693.673
677.024
685.534
684.775
686.753
686.178
678.124
683.947
683.119
672.127
692.663
688.874
689.407
697.648
697.151
697.267
696.827
697.031
697.58
697.882
697.754
697.824
697.417
697.601
697.837
695.784
692.898
693.18
696.917
695.094
696.333
693.556
694.17
696.503
697.906
697.847
697.598
697.94
697.92
697.935
697.865
697.895
697.933
697.928
697.9
697.885
697.941
697.937
697.944
697.879
697.92
697.929
697.901
697.909
697.857
671.852
685.918
685.528
687.163
686.42
672.497
696.242
693.389
693.784
692.014
692.205
695.63
669.898
684.616
684.326
685.196
684.897
670.336
696.706
696.821
697.488
691.666
695.168
694.972
695.551
695.361
691.974
697.896
697.839
697.832
697.864
697.849
697.9
697.288
697.666
697.697
697.623
697.627
697.25
697.887
697.818
697.814
697.827
697.822
697.889
664.755
682.878
683.03
682.42
682.693
664.541
695.068
691.076
690.954
661.901
681.289
680.991
681.807
681.557
662.685
694.748
690.515
690.625
690
690.06
694.602
658.153
680.163
679.867
680.699
680.429
659.015
697.884
697.808
697.811
697.804
697.806
697.882
697.014
697.622
697.619
697.667
697.653
697.045
697.891
697.821
697.826
697.814
697.817
697.889
697.871
697.792
697.791
697.793
697.792
697.872
697.872
697.792
697.792
697.791
697.791
697.871
667.957
640.669
637.631
645.183
643.147
669.569
661.791
628.571
626.679
634.274
631.107
663.232
626.038
629.424
597.018
678.192
657.575