/*--------------------------------*- C++ -*----------------------------------*\
| =========                 |                                                 |
| \\      /  F ield         | OpenFOAM: The Open Source CFD Toolbox           |
|  \\    /   O peration     | Version:  5.x                                   |
|   \\  /    A nd           | Web:      www.OpenFOAM.org                      |
|    \\/     M anipulation  |                                                 |
\*---------------------------------------------------------------------------*/
FoamFile
{
    version     2.0;
    format      ascii;
    class       volScalarField;
    location    "600";
    object      T;
}
// * * * * * * * * * * * * * * * * * * * * * * * * * * * * * * * * * * * * * //

dimensions      [0 0 0 1 0 0 0];

internalField   nonuniform List<scalar> 
6584
(
275
275
275
275
275
275
275
275
275
275
275
275
275
275
275
275
275
275
275
275
275
275
275
275
275
275
275
275
275
275
275
275
275
275
275
275
275
275
275
275
275
275
275
275
275
275
275
275
275
275
275
275
275
275
275
275
275
275
275
275
275
275
275
275
275
275
275
275
275
275
275
275
275
275
275
275
275
275
275
275
275
275
275
275
275
275
275
275
275
275
275
275
275
275
275
275
275
275
275
275
275
275
275
275
275
275
275
275
275
275
275
275
275
275
275
275
275
275
275
275
275
275
275
275
275
275
275
275
275
275
275
275
275
275
275
275
275
275
275
275
275
275
275
275
275
275
275
275
275
275
275
275
275
275
275
275
275
275
275
275
275
275
275
275
275
275
275
275
275
275
275
275
275
275
275
275
275
275
275
275
275
275
275
275
275
275
275
275
275
275
275
275
275
275
275
275
275
275
275
275
275
275
275
275
275
275
275
275
275
275
275
275
275
275
275
275
275
275
275
275
275
275
275
275
275
275
275
275
275
275
275
275
275
275
275
275
275
275
275
275
275
275
275
275
275
275
275
275
275
275
275
275
275
275
275
275
275
275
275
275
275
275
275
275
275
275
275
275
275
275
275
275
275
275
275
275
275
275
275
275
275
275
275
275
275
275
275
275
275
275
275
275
275
275
275
275
275
275
275
275
275
275
275
275
275
275
275
275
275
275
275
275
275
275
275
275
275
275
272.335
275
275
275
275
275
275
275
275
275
275
275
275
275
275
275
275
275
275
275
275
275
275
275
274.331
275
275
275
275
275
275
275
275
275
275
275
275
275
275
275
275
275
275
275
275
275
275
275
274.389
275
275
275
275
275
275
275
275
275
275
275
275
275
275
275
275
275
275
275
275
275
275
274.988
274.71
275
275
275
275
275
275
275
275
275
275
275
275
275
275
275
275
275
275
275
275
275
275
274.981
274.717
275
275
275
275
275
275
275
275
275
275
275
275
275
275
275
275
275
275
275
275
275
274.998
274.625
274.864
275
275
275
275
275
275
275
275
275
275
275
275
275
275
275
275
275
275
275
275
275
274.996
274.627
274.865
275
275
275
275
275
275
275
275
275
275
275
275
275
275
275
275
275
275
275
275
275
274.995
274.628
274.866
275
275
275
275
275
275
275
275
275
275
275
275
275
275
275
275
275
275
275
275
275
274.993
274.63
274.866
275
275
275
275
275
275
275
275
275
275
275
275
275
275
275
275
275
275
275
275
275
274.992
274.631
274.867
275
275
275
275
275
275
275
275
275
275
275
275
275
275
275
275
275
275
275
275
275
274.99
274.632
274.868
275
275
275
275
275
275
275
275
275
275
275
275
275
275
275
275
275
275
275
275
275
274.989
274.633
274.868
275
275
275
275
275
275
275
275
275
275
275
275
275
275
275
275
275
275
275
275
275
274.988
274.635
274.869
275
275
275
275
275
275
275
275
275
275
275
275
275
275
275
275
275
275
275
275
275
274.986
274.636
274.869
275
275
275
275
275
275
275
275
275
275
275
275
275
275
275
275
275
275
275
275
275
274.985
274.637
274.87
275
275
275
275
275
275
275
275
275
275
275
275
275
275
275
275
275
275
275
275
275
274.984
274.638
274.87
275
275
275
275
275
275
275
275
275
275
275
275
275
275
275
275
275
275
275
275
275
274.983
274.639
274.871
275
275
275
275
275
275
275
275
275
275
275
275
275
275
275
275
275
275
275
275
274.999
274.981
274.64
274.871
275
275
275
275
275
275
275
275
275
275
275
275
275
275
275
275
275
275
275
275
274.999
274.98
274.641
274.871
275
275
275
275
275
275
275
275
275
275
275
275
275
275
275
275
275
275
275
275
274.999
274.979
274.642
274.872
275
275
275
275
275
275
275
275
275
275
275
275
275
275
275
275
275
275
275
275
274.999
274.978
274.643
274.872
275
275
275
275
275
275
275
275
275
275
275
275
275
275
275
275
275
275
275
275
274.999
274.976
274.644
274.873
275
275
275
275
275
275
275
275
275
275
275
275
275
275
275
275
275
275
275
275
274.999
274.975
274.646
274.873
275
275
275
275
275
275
275
275
275
275
275
275
275
275
275
275
275
275
275
275
275
275
275
275
275
275
275
271.935
272.204
275
275
275
275
275
275
275
275
275
275
275
275
275
275
275
275
275
275
274.996
274.999
274.991
274.999
275
275
275
275
275
275
275
274.983
274.985
274.898
274.947
275
275
275
275
275
275
275
274.989
274.986
274.973
274.926
275
275
275
274.995
274.994
275
275
275
274.999
274.998
275
272.769
271.957
273.786
275
275
274.999
275
275
275
274.998
275
275
274.999
275
275
275
275
274.986
274.995
275
274.982
274.944
274.997
274.984
274.95
274.991
275
274.995
274.986
275
274.996
275
274.986
274.983
275
274.935
274.954
274.942
274.934
274.925
274.895
275
274.983
274.987
274.985
274.983
275
274.948
274.964
274.955
274.945
274.993
274.975
275
274.994
274.998
274.987
274.994
275
274.979
274.986
274.966
274.978
274.998
274.996
274.998
274.999
275
274.991
274.985
274.986
274.99
274.999
274.999
275
275
275
275
275
275
275
275
275
274.995
274.993
274.87
274.8
275
275
275
275
275
275
275
275
274.992
274.99
275
271.694
272.199
273.879
274.141
272.228
272.865
274.786
274.656
275
274.999
274.999
274.173
274.343
275
275
275
275
275
275
275
275
275
275
275
275
275
275
275
274.994
274.996
274.926
274.929
274.957
274.951
274.993
274.657
274.996
274.924
274.878
274.885
274.927
274.998
274.947
275
274.842
274.982
274.811
275
274.986
275
275
274.999
274.962
275
275
274.96
274.958
274.994
274.993
274.967
274.969
274.986
275
275
275
275
274.986
274.998
275
275
275
275
274.997
274.944
274.945
274.934
274.933
274.861
274.866
274.981
275
275
275
275
274.981
274.984
275
275
275
275
274.984
271.742
274.955
272.304
271.75
272.97
272.339
274.958
274.933
271.808
274.936
274.988
274.986
274.99
275
275
275
275
274.991
273.495
273.824
274.972
273.542
273.016
273.982
273.602
274.974
272.931
273.442
274.997
274.803
274.877
274.673
274.788
274.997
274.624
274.342
274.406
272.299
274.364
274.317
272.829
274.925
274.928
275
275
275
275
275
274.998
274.998
273.59
274.996
274.998
275
274.997
274.995
275
272.099
272.147
271.703
274.338
274.334
272.249
272.422
274.906
274.924
270.688
275
275
275
275
275
275
274.998
275
275
274.991
274.988
274.998
274.983
275
275
275
275
274.983
274.911
274.94
274.966
274.931
274.345
274.221
274.999
274.931
274.96
274.967
274.968
272.617
275
275
275
274.999
274.993
274.989
275
275
275
275
275
275
274.989
275
275
275
275
274.991
274.973
274.538
274.804
274.363
274.402
274.949
274.831
274.86
274.989
274.957
274.976
274.99
274.999
274.999
274.999
274.999
274.986
275
275
274.984
274.94
274.279
274.133
274.938
274.305
274.352
274.107
274.132
274.933
274.9
274.877
274.982
274.999
274.999
274.998
274.999
274.984
274.985
274.998
274.999
274.999
274.998
274.983
274.991
274.872
274.899
274.834
274.817
274.981
274.997
275
275
275
275
274.997
274.982
274.255
274.023
274.509
274.436
274.983
272.989
273.096
274.988
274.593
274.532
272.857
272.957
274.496
274.377
275
275
275
274.218
274.844
274.303
274.36
274.346
274.835
275
275
275
274.999
275
271.752
271.92
272.186
272.125
274.003
272.469
272.408
272.64
272.487
274.036
272.392
272.515
274.738
274.716
274.257
272.89
272.726
272.439
272.532
274.999
275
275
275
275
274.999
274.992
274.997
274.914
274.937
274.964
274.934
274.685
274.914
274.894
274.935
274.92
274.679
274.848
274.829
274.888
274.859
274.908
274.544
274.616
274.412
274.508
274.901
274.153
274.19
274.911
274.995
274.991
274.999
274.997
274.929
274.96
274.949
274.987
274.965
274.997
275
274.999
274.996
274.992
274.998
274.994
274.999
274.995
274.999
275
274.996
274.998
275
274.999
274.998
274.456
274.499
274.969
274.073
273.898
274.573
274.11
273.65
273.496
273.844
273.719
274.951
274.417
274.446
274.806
274.753
274.944
274.848
274.689
274.631
274.743
274.704
274.99
274.867
274.885
274.96
274.975
274.999
274.999
274.988
274.986
274.999
274.999
274.318
274.304
274.941
273.345
273.349
272.685
273.265
273.289
273.492
273.335
273.294
274.238
274.29
274.937
273.252
273.096
273.46
273.299
272.803
272.65
273.036
272.876
274.933
274.157
274.218
274.883
274.874
274.999
274.999
274.981
274.983
274.999
274.999
274.998
274.998
274.985
274.984
274.998
274.998
271.811
271.994
274.355
274.45
274.231
274.321
271.8
272.72
274.576
274.425
274.476
274.552
272.587
273.818
273.872
273.61
273.798
271.977
274.109
274.205
273.902
274.057
271.976
274.847
274.865
274.99
274.775
274.809
274.82
274.774
274.809
274.982
274.807
274.833
273.629
272.088
272.109
272.357
272.105
273.676
272.192
273.126
272.116
273.211
274.733
274.951
274.939
274.966
274.955
274.743
274.574
274.593
273.142
273.255
272.604
272.816
274.577
274.523
275
275
275
275
275
275
275
275
275
275
275
275
275
275
275
275
275
274.998
274.991
274.977
274.975
274.901
274.945
275
275
274.987
274.869
274.86
274.928
274.906
274.92
274.995
275
275
275
274.978
274.985
274.999
275
274.999
275
274.996
274.942
274.975
274.953
274.973
274.971
274.99
274.993
274.993
274.986
274.999
274.999
274.996
274.984
275
275
274.385
274.325
274.95
274.921
274.88
274.877
274.892
274.982
274.993
274.993
274.985
274.993
274.993
274.993
274.993
274.983
274.928
274.478
274.416
274.988
274.999
274.999
274.999
275
275
272.112
272.126
274.659
274.611
274.989
272.09
272.1
274.963
274.969
274.999
275
275
271.658
271.716
271.753
272.157
272.259
271.642
271.677
272.173
272.081
272.775
274.553
274.531
274.676
273.03
272.919
274.28
275
275
275
274.999
274.999
275
275
274.998
274.999
275
275
275
274.986
274.985
274.993
274.997
274.993
274.992
274.92
274.931
274.892
274.898
274.96
274.945
274.863
274.878
274.707
274.71
274.789
274.778
274.657
274.716
274.724
274.995
274.926
274.941
274.934
274.875
274.956
274.947
274.993
274.989
274.973
274.701
274.661
274.922
274.853
274.754
275
275
274.999
274.998
274.994
274.996
274.973
274.996
274.998
274.891
274.923
274.996
274.608
274.559
274.965
274.971
275
275
274.999
274.996
275
275
274.949
274.319
274.316
274.862
274.868
274.993
274.993
274.985
274.984
274.993
274.993
271.789
272.259
273.114
273.168
272.542
272.585
271.695
274.522
274.49
274.93
271.979
271.909
272.336
272.344
271.869
272.501
272.52
271.854
271.868
274.999
274.999
274.988
274.992
274.999
274.999
273.285
274.528
274.56
274.459
274.493
273.195
274.837
274.959
274.968
274.967
274.963
274.849
274.698
274.818
274.803
274.59
274.561
274.628
272.348
272.392
272.428
272.078
274.419
273.256
273.087
273.411
273.299
274.29
274.092
274.103
274.635
274.695
274.939
275
275
275
272.079
272.087
273.149
273.143
271.576
272.347
272.149
272.149
272.093
272.126
272.396
270.731
274.548
274.575
275
275
275
274.98
274.979
274.991
274.984
274.99
274.995
274.989
274.99
274.907
274.942
274.827
274.837
274.839
274.827
274.929
274.854
274.851
274.318
274.112
274.11
274.149
274.141
274.282
274.992
274.996
274.997
274.996
274.996
274.991
274.955
274.986
274.968
274.962
274.986
274.993
274.993
274.879
274.882
274.914
274.884
274.993
274.993
274.982
274.993
274.993
274.985
274.983
274.993
274.993
274.834
274.869
274.854
274.881
274.877
274.831
272.142
272.169
272.086
272.084
272.892
272.416
272.384
274.149
274.149
274.46
274.215
274.266
274.125
274.163
274.418
275
275
275
275
275
275
275
275
275
275
274.284
274.594
274.576
274.643
274.617
274.303
274.423
274.51
274.473
274.561
274.543
274.392
275
275
275
274.998
274.997
275
275
271.659
272.078
271.776
271.764
272.171
272.15
272.856
272.898
272.436
271.642
271.619
272.308
271.861
271.864
271.834
272.654
271.918
271.751
274.571
274.604
274.757
274.483
274.492
274.457
274.464
274.695
274.522
274.536
272.457
272.022
272.057
272
271.996
272.485
275
275
274.999
274.998
274.999
274.999
274.978
274.992
274.984
274.982
274.986
274.987
274.982
274.984
274.917
274.934
274.85
274.852
274.841
274.846
274.962
274.902
274.905
274.849
274.854
274.939
274.852
274.737
274.715
274.667
274.769
274.757
274.84
274.733
274.73
274.767
274.748
274.835
274.88
274.785
274.797
274.743
274.765
274.87
274.726
274.444
274.683
274.665
274.13
274.148
274.902
274.964
274.96
274.893
274.944
274.979
274.97
274.766
274.732
274.885
274.893
274.953
274.836
274.802
274.984
274.989
274.997
274.992
274.978
274.957
274.977
274.997
274.999
274.999
274.997
274.998
274.994
274.99
274.994
274.999
274.998
274.997
274.999
274.998
274.999
274.996
274.996
274.994
274.997
274.027
273.958
274.441
273.847
273.91
273.712
274.144
273.591
273.54
273.799
273.76
274.779
274.541
274.599
274.424
274.481
274.764
274.933
274.846
274.872
274.634
274.786
274.907
274.511
274.417
274.673
274.07
274.123
273.981
274.024
274.656
274.733
274.327
274.372
274.183
274.251
274.719
274.963
274.973
273.369
272.764
272.847
272.595
272.675
273.362
272.841
272.887
272.879
273.067
273.318
272.161
272.239
272.308
272.171
273.385
273.322
272.454
272.521
272.324
272.394
273.309
273.213
273.167
273.422
273.356
272.739
272.681
272.984
272.942
274.869
274.871
274.985
274.993
274.993
274.993
274.993
274.984
271.821
272.922
273.036
272.172
271.693
272.665
272.786
272.128
272.051
273.834
272.827
272.835
273.706
272.72
272.524
272.834
272.805
273.765
272.298
272.209
272.376
272.462
271.931
271.982
272.188
274.855
274.923
274.917
274.931
274.927
274.86
274.787
274.803
274.803
274.773
274.773
274.785
274.806
274.892
274.886
274.91
274.9
274.817
272.093
272.427
272.465
272.37
272.399
272.101
272.261
272.71
272.795
272.526
272.612
272.165
272.175
271.877
271.926
271.862
271.863
272.115
272.265
272.331
272.027
272.146
272.095
274.84
274.83
274.72
274.571
274.614
272.223
272.308
272.686
272.174
272.062
272.345
272.284
272.761
272.095
272.092
274.107
274.115
275
275
275
275
275
275
275
275
275
275
275
275
275
275
275
275
275
275
275
275
275
275
275
275
275
275
275
275
275
275
275
275
275
275
275
275
275
275
275
275
275
275
275
275
275
275
275
275
275
275
275
275
275
275
275
275
275
275
275
275
275
275
275
275
275
275
275
275
275
275
275
275
275
275
275
275
275
275
275
275
275
275
275
275
275
275
275
275
275
275
275
275
275
275
275
275
275
275
275
275
275
275
275
275
275
275
275
275
275
275
275
275
275
275
275
275
275
275
275
275
275
275
275
275
275
275
275
275
275
275
275
275
275
275
275
275
274.997
274.997
272.706
274.866
274.877
275
275
275
275
275
275
275
275
275
275
275
275
275
273.511
273.456
274.376
275
275
275
275
275
275
275
275
275
275
275
274.992
274.22
273.527
274.706
275
275
275
275
275
275
275
275
275
275
275
275
275
275
275
275
275
275
275
275
275
275
275
275
275
275
275
275
275
275
275
275
275
275
275
275
275
275
275
275
275
275
275
275
275
275
275
274.997
274.998
275
271.564
272.959
272.974
274.028
274.031
270.774
275
275
275
275
275
275
275
275
275
275
275
275
275
275
275
275
275
275
275
275
275
275
275
275
275
275
275
275
275
275
275
275
275
275
275
275
275
275
275
275
275
275
275
275
275
275
275
275
275
275
275
275
275
275
275
275
274.997
274.999
274.999
275
275
274.999
274.997
274.996
274.998
275
275
275
275
275
275
275
275
275
275
275
275
275
275
275
275
275
275
275
275
275
274.983
274.996
274.996
274.996
274.996
274.984
275
275
275
275
275
275
275
275
275
275
275
275
275
275
275
275
275
275
275
275
275
274.988
275
275
274.996
274.997
274.986
274.97
274.916
274.923
275
275
275
275
275
275
275
275
275
274.995
274.96
274.968
274.981
274.982
274.994
275
275
275
275
275
275
275
275
275
274.999
274.995
274.995
274.992
274.992
274.998
274.998
274.997
275
272.655
274.968
274.966
274.34
274.35
272.049
274.996
274.996
273.644
275
275
275
275
275
275
275
275
275
275
275
275
275
275
275
275
274.999
275
275
275
275
275
275
275
274.999
274.998
274.998
275
275
275
275
275
275
275
275
275
275
275
275
274.987
274.997
274.997
274.999
274.998
274.993
275
275
275
274.98
274.951
274.959
274.866
274.869
274.945
274.964
274.967
274.986
275
275
275
274.995
274.997
274.998
274.999
275
275
274.998
274.998
274.996
275
275
275
274.985
274.996
274.996
274.996
274.996
274.984
275
275
275
274.937
274.848
274.844
274.886
274.882
274.952
274.941
274.86
274.863
274.842
274.84
274.933
275
275
275
274.995
274.995
274.986
275
275
275
274.95
274.702
274.664
274.855
274.846
274.962
274.957
274.893
274.889
274.651
274.609
274.942
274.992
274.977
274.979
274.931
274.937
274.977
275
275
275
274.995
274.999
274.999
274.999
274.999
274.998
274.987
274.996
274.996
274.999
274.999
274.992
275
275
275
274.98
274.921
274.916
274.943
274.94
274.985
274.968
274.871
274.863
274.911
274.906
274.977
274.997
274.99
274.991
274.97
274.977
274.996
274.998
275
274.999
275
275
274.999
275
275
275
274.992
274.707
274.673
274.648
274.692
274.991
274.987
274.949
274.946
274.999
274.97
274.972
275
275
275
275
275
275
275
275
275
275
275
275
275
275
275
275
275
275
275
275
275
274.994
275
275
275
275
274.994
274.862
274.766
274.781
274.668
274.691
274.813
275
275
275
275
275
275
274.999
275
275
275
275
275
275
275
275
275
275
275
274.991
275
275
275
275
274.991
275
275
275
273.926
273.413
273.367
273.662
273.613
274.105
274.772
274.625
274.645
275
275
275
274.999
275
275
275
275
274.999
274.204
273.759
273.712
273.968
273.935
274.323
275
275
275
275
275
275
275
275
275
275
275
275
275
275
275
275
275
275
275
275
275
275
275
275
275
275
275
275
275
275
275
275
275
275
275
275
275
275
275
274.945
274.956
274.994
274.996
274.988
274.989
274.919
274.857
274.864
274.794
274.806
274.885
274.906
274.973
274.97
274.977
274.975
274.912
274.998
274.993
274.994
274.996
274.998
275
274.999
274.987
274.995
274.989
274.996
274.995
275
275
274.999
275
275
275
274.999
274.999
275
275
275
275
274.897
274.902
274.963
274.956
274.888
274.892
274.984
274.986
274.994
274.992
274.98
274.982
274.994
274.994
274.986
275
275
275
275
275
275
275
275
275
275
275
275
274.986
274.994
274.994
274.999
274.999
274.998
275
275
275
275
275
275
275
275
275
275
275
275
274.997
274.999
274.999
274.866
274.864
274.943
274.946
274.87
274.868
274.846
274.848
274.935
274.933
274.842
274.844
274.994
274.994
274.981
275
275
275
275
275
275
275
275
275
275
275
275
274.981
274.994
274.994
275
274.999
274.999
275
274.999
275
275
274.999
274.999
274.999
274.999
275
274.817
274.716
274.953
272.913
273.643
273.705
273.214
273.264
272.387
274.96
274.837
274.827
274.939
274.591
274.536
274.963
274.966
274.989
274.985
274.956
274.96
274.997
274.997
274.989
275
275
275
275
275
275
275
275
275
275
275
275
274.991
274.997
274.997
273.541
272.951
272.906
273.311
273.244
273.777
274.886
274.879
274.97
273.469
274.093
274.14
273.756
273.809
273.064
273.825
274.642
274.666
274.59
274.617
273.767
274.975
274.899
274.893
272.991
272.282
272.231
272.851
272.774
273.377
274.988
274.989
274.997
274.815
274.891
274.883
274.933
274.928
274.868
274.875
274.865
274.771
274.996
274.985
274.986
274.366
273.555
273.447
273.686
273.594
274.389
274.383
274.035
274.002
274.92
274.711
274.746
274.872
274.879
274.932
275
275
275
275
275
275
274.998
275
275
275
275
274.998
274.769
274.76
273.527
274.996
274.965
274.966
274.965
274.966
274.996
274.996
275
275
275
275
274.996
275
275
275
272.319
272.227
271.605
274.329
273.734
273.57
273.758
273.744
274.329
274.92
274.653
274.622
274.739
274.796
274.925
270.697
272.908
273.348
275
275
275
275
275
275
275
275
275
275
275
275
275
275
275
275
275
275
274.999
274.999
274.997
275
275
275
275
275
275
274.998
274.995
274.994
274.996
274.996
274.983
275
274.999
274.999
274.999
274.999
275
275
274.999
274.999
274.999
274.999
275
274.984
274.996
274.996
274.907
274.91
274.968
274.994
274.995
274.999
274.953
274.981
274.979
274.984
274.983
274.957
274.967
274.758
274.653
274.759
274.759
274.968
272.577
274.067
274.055
275
275
275
275
275
275
275
275
275
274.998
274.998
274.999
275
275
275
275
275
275
275
275
275
275
275
275
275
275
275
275
275
275
274.997
274.997
274.988
275
274.999
274.999
274.999
274.999
275
275
275
275
274.999
275
275
274.992
274.998
274.998
274.927
274.94
274.976
274.618
274.845
274.808
274.908
274.885
274.74
274.375
274.706
274.7
274.718
274.712
274.388
274.947
274.873
274.877
274.844
274.927
274.92
274.936
274.932
274.853
274.987
274.97
274.973
274.996
274.997
274.993
274.999
274.999
274.999
274.999
274.997
274.997
274.997
274.997
274.999
275
274.999
274.999
274.999
274.999
275
274.984
274.996
274.996
274.856
274.852
274.938
274.234
274.664
274.676
274.637
274.649
274.18
274.855
274.858
274.939
274.322
274.684
274.678
274.695
274.69
274.339
274.099
274.624
274.628
274.627
274.623
274.11
274.933
274.839
274.839
274.999
274.997
274.997
274.997
274.997
274.999
274.998
274.998
274.999
274.986
274.995
274.995
274.999
274.997
274.997
274.997
274.997
274.999
274.999
274.997
274.997
274.997
274.997
274.998
274.973
274.975
274.992
274.881
274.94
274.935
274.949
274.945
274.891
274.979
274.942
274.945
274.999
274.999
274.997
275
275
275
275
275
275
275
275
275
275
275
275
274.998
274.999
274.999
274.929
274.925
274.981
274.16
274.724
274.741
274.687
274.706
274.127
274.486
274.781
274.793
274.755
274.769
274.462
274.984
274.937
274.933
273.022
272.537
272.507
272.611
272.57
273.056
274.953
274.951
274.988
274.574
274.824
274.833
274.804
274.814
274.554
272.477
272.447
272.925
275
275
275
274.739
274.752
274.853
274.825
274.711
274.726
275
275
275
275
275
275
275
275
275
273.49
273.453
273.965
272.453
272.93
272.96
272.566
273.081
273.143
272.991
273.03
272.516
274.072
273.568
273.527
273.837
273.801
274.232
272.853
273.322
273.363
273.21
273.271
272.801
275
275
275
275
275
275
275
274.999
274.999
275
275
275
274.994
274.994
274.997
274.907
274.829
274.843
274.806
274.816
274.9
274.93
274.871
274.878
274.854
274.863
274.925
274.838
274.848
274.914
274.575
274.749
274.734
274.774
274.762
274.597
274.717
274.7
274.473
274.894
274.817
274.828
274.994
274.984
274.986
274.977
274.982
274.993
274.999
274.996
274.998
274.989
274.993
274.998
274.957
274.898
274.904
274.979
274.943
274.968
274.912
274.924
274.971
274.999
274.998
274.993
275
274.999
275
274.998
274.999
275
275
274.999
274.999
275
275
275
274.999
274.999
275
274.999
274.999
274.998
274.468
274.757
274.749
274.782
274.767
274.481
274.966
274.908
274.916
274.881
274.884
274.953
274.427
274.73
274.724
274.742
274.736
274.436
274.975
274.977
274.991
274.873
274.944
274.94
274.952
274.948
274.88
274.999
274.998
274.998
274.998
274.998
274.999
274.987
274.994
274.995
274.993
274.994
274.986
274.999
274.997
274.997
274.998
274.997
274.999
274.32
274.695
274.698
274.685
274.691
274.315
274.942
274.862
274.859
274.26
274.662
274.656
274.673
274.668
274.276
274.936
274.85
274.852
274.84
274.841
274.933
274.181
274.639
274.633
274.65
274.645
274.199
274.999
274.997
274.997
274.997
274.997
274.999
274.981
274.993
274.993
274.994
274.994
274.982
274.999
274.997
274.998
274.997
274.997
274.999
274.998
274.997
274.997
274.997
274.997
274.998
274.998
274.997
274.997
274.997
274.997
274.998
274.387
273.807
273.741
273.904
273.86
274.42
274.258
273.543
273.501
273.668
273.599
274.288
273.487
273.562
272.833
274.599
274.169
274.123
274.502
273.984
273.944
274.075
274.028
274.527
272.468
273.328
273.406
272.833
272.823
273.851
274.149
273.388
273.316
273.467
273.433
274.179
273.945
272.951
272.872
273.206
273.072
274
274.99
274.968
274.971
274.948
274.952
274.984
273.042
272.994
273.585
273.727
273.171
273.101
272.427
272.341
273.053
273.298
272.666
272.541
274.948
274.902
274.908
274.886
274.894
274.944
274.962
274.925
274.93
274.914
274.919
274.959
274.755
274.856
274.848
273.196
272.739
272.667
272.829
272.812
273.248
274.566
274.347
274.348
274.296
274.323
274.546
275
275
275
275
275
275
275
275
275
275
275
275
275
275
275
275
275
275
275
275
275
275
275
275
275
275
275
275
275
275
275
275
275
275
275
275
274.999
275
275
274.987
274.997
274.997
274.91
274.956
274.953
274.962
274.959
274.915
274.995
274.983
274.985
275
275
275
274.98
274.992
274.991
274.994
274.993
274.982
275
275
275
275
275
275
275
275
275
274.993
274.995
274.997
274.96
274.984
274.978
274.989
274.987
274.97
274.996
274.998
274.998
274.996
274.996
274.985
275
274.999
274.999
274.999
274.999
275
274.357
274.729
274.738
274.715
274.721
274.337
274.951
274.879
274.876
274.463
274.766
274.774
274.747
274.756
274.443
274.996
274.996
274.987
275
275
274.998
275
275
275
274.644
274.856
274.863
274.841
274.849
274.628
274.989
274.958
274.956
274.965
274.986
274.985
274.988
274.987
274.967
272.984
273.472
273.513
273.399
273.434
272.949
274.302
273.903
273.871
275
275
275
275
275
275
275
275
275
275
275
275
275
275
275
275
275
275
274.986
274.987
274.996
274.931
274.967
274.965
274.972
274.97
274.936
275
275
275
274.999
275
275
274.899
274.96
274.956
274.971
274.965
274.908
274.995
274.989
274.991
274.999
274.999
274.999
274.998
274.998
274.996
274.874
274.872
274.947
274.315
274.707
274.711
274.701
274.704
274.314
274.511
274.793
274.8
274.78
274.787
274.5
274.989
274.996
274.996
274.997
274.997
274.992
273.977
274.039
273.381
273.12
273.858
273.919
274.908
274.9
274.826
274.935
274.94
274.971
274.859
274.922
274.915
274.097
274.067
274.402
273.206
273.651
273.693
273.559
273.606
273.148
273.375
273.828
273.866
273.744
273.788
273.338
274.656
274.796
274.785
274.817
274.807
274.677
274.936
274.885
274.891
273.104
272.681
272.734
272.711
272.691
273.118
271.586
272.211
272.214
272.681
272.76
270.712
274.588
274.108
273.879
274.308
274.244
274.578
275
275
275
275
275
275
275
275
275
275
275
275
275
275
275
275
275
275
275
275
275
275
275
275
275
275
275
275
275
275
275
275
275
275
275
275
275
275
275
275
275
275
275
275
275
275
275
275
275
275
275
275
275
275
275
275
275
275
275
275
275
275
275
275
275
275
275
275
275
275
275
275
275
275
275
275
275
275
275
275
275
275
275
275
275
275
275
275
275
275
275
275
275
275
275
275
275
275
275
275
275
275
275
275
275
275
275
275
275
275
275
275
275
275
275
275
275
272.461
274.041
274.025
275
275
275
275
275
275
275
275
275
275
274.997
274.998
274.348
274.983
274.983
275
275
275
275
275
275
275
275
275
275
275
275
275
275
275
274.984
274.232
274.226
274.714
275
275
275
275
275
275
275
275
275
275
275
275
275
275
275
275
275
275
275
275
275
275
275
275
275
275
275
275
275
275
275
275
275
275
275
275
275
275
275
275
275
275
275
275
274.989
274.997
274.997
275
275
275
272.978
272.974
271.984
275
275
275
275
275
275
275
275
275
274.999
275
275
274.994
274.998
274.998
274.998
274.998
274.993
275
275
274.999
274.991
274.964
274.963
274.961
274.96
274.99
274.996
274.996
274.999
275
275
275
275
275
275
275
275
275
274.995
274.999
274.999
274.998
274.998
274.993
275
275
275
275
275
275
275
275
275
275
275
275
274.992
274.998
274.998
274.997
274.997
274.99
274.999
275
275
275
275
274.999
275
275
275
275
275
275
275
275
275
275
275
275
275
275
275
274.893
274.942
274.938
274.96
274.958
274.922
273.936
274.38
274.406
274.18
274.217
273.657
275
275
275
275
275
275
275
275
275
274.935
274.964
274.962
275
275
275
275
275
275
274.224
274.545
274.56
274.43
274.452
274.06
275
275
275
275
275
275
275
275
275
275
275
275
275
275
275
275
275
275
275
274.999
274.999
274.999
274.999
275
275
275
275
275
275
275
275
275
275
274.999
274.996
274.997
275
275
275
275
275
275
275
275
275
275
275
275
275
275
275
275
275
275
275
275
275
275
275
275
275
275
275
275
275
275
275
275
275
275
275
275
275
275
275
275
275
275
275
275
275
275
275
275
275
275
275
275
275
275
275
275
275
275
275
275
275
275
275
275
275
275
275
275
275
274.997
275
275
275
275
274.997
274.1
274.071
272.581
274.862
274.617
274.63
274.614
274.613
274.862
275
275
275
275
275
275
275
275
275
275
275
275
274.995
274.996
275
273.494
274.824
274.816
274.844
274.834
273.476
274.984
274.984
274.363
275
275
275
275
275
275
275
275
275
275
275
275
275
275
275
275
275
275
275
275
275
275
275
275
275
275
275
275
275
275
275
275
275
275
275
275
275
275
275
274.998
275
275
275
275
274.998
275
275
275
272.216
272.218
271.572
271.044
272.745
272.676
275
275
275
275
275
275
275
275
275
275
275
275
275
275
275
275
275
275
275
275
275
275
275
275
275
275
275
275
275
275
275
275
275
275
275
275
275
275
275
275
275
275
275
275
275
275
275
275
275
275
275
275
275
275
275
275
275
275
275
275
275
275
275
275
275
275
274.997
274.997
274.988
275
274.999
274.999
274.999
274.999
275
275
275
275
274.963
274.984
274.983
274.986
274.985
274.965
274.041
274.03
272.691
274.967
274.751
274.756
274.345
273.776
273.768
273.778
273.779
274.348
272.013
272.969
272.969
274.967
274.968
274.996
273.691
274.783
274.776
275
275
275
275
275
275
275
275
275
275
275
275
274.999
275
275
275
275
275
275
275
275
275
275
275
275
275
274.999
275
275
275
275
275
275
275
275
275
275
275
275
275
275
275
275
275
275
274.689
274.871
274.876
274.86
274.866
274.676
274.639
274.849
274.855
274.837
274.843
274.625
275
275
275
274.998
274.998
274.995
274.993
274.998
274.997
275
275
275
275
275
275
274.973
274.989
274.988
274.99
274.989
274.975
275
275
275
275
275
275
274.999
275
275
274.967
274.966
274.992
274.698
274.88
274.883
274.869
274.875
274.686
274.644
274.844
274.846
274.881
274.854
274.655
274.997
274.997
274.999
274.97
274.989
274.989
274.989
274.989
274.971
275
275
275
275
275
275
274.999
274.999
274.995
274.994
274.998
274.998
275
275
275
275
275
275
275
275
275
275
275
275
274.998
274.998
274.992
274.99
274.998
274.998
275
275
274.999
274.999
275
275
275
275
275
275
275
275
275
275
275
275
275
275
275
275
275
275
275
275
275
275
275
275
275
275
275
275
275
275
275
275
275
275
275
275
275
275
275
275
275
275
275
275
275
275
275
275
275
275
274.949
274.977
274.975
274.981
274.979
274.952
274.949
274.946
274.9
274.917
274.955
274.952
274.997
274.999
274.999
275
274.999
274.998
274.99
274.997
274.995
274.998
274.997
274.993
274.881
274.886
274.728
274.571
274.821
274.829
274.806
274.814
274.552
274.319
274.351
273.883
273.711
274.251
274.286
273.517
273.963
273.995
273.899
273.933
273.482
273.675
274.077