/*--------------------------------*- C++ -*----------------------------------*\
| =========                 |                                                 |
| \\      /  F ield         | OpenFOAM: The Open Source CFD Toolbox           |
|  \\    /   O peration     | Version:  5.x                                   |
|   \\  /    A nd           | Web:      www.OpenFOAM.org                      |
|    \\/     M anipulation  |                                                 |
\*---------------------------------------------------------------------------*/
FoamFile
{
    version     2.0;
    format      ascii;
    class       volVectorField;
    location    "600";
    object      U;
}
// * * * * * * * * * * * * * * * * * * * * * * * * * * * * * * * * * * * * * //

dimensions      [0 1 -1 0 0 0 0];

internalField   nonuniform List<vector> 
6584
(
(1.00007 -0.000183324 4.33348e-27)
(1.00005 -0.000402046 2.10244e-25)
(1.00006 -0.000544347 1.87217e-30)
(1.00006 -0.000738179 -3.74491e-25)
(1.00007 -0.000938837 0)
(1.00007 -0.00115418 0)
(1.00006 -0.00135717 0)
(1.00001 -0.00146785 3.7112e-25)
(0.999936 -0.00141839 3.59514e-25)
(0.999825 -0.00106104 0)
(0.999709 -0.000211267 8.97431e-26)
(0.999636 0.00105999 -2.70257e-25)
(0.99967 0.00243363 -1.04463e-26)
(0.999804 0.00345868 2.48774e-26)
(0.999953 0.00387569 5.97209e-27)
(1.00011 0.00371311 9.25938e-25)
(1.00018 0.0032315 8.17839e-25)
(1.0002 0.00265101 6.66662e-26)
(1.00018 0.00207526 5.58721e-25)
(1.00015 0.0015717 3.98834e-25)
(1.00012 0.00116405 0)
(1.00011 0.000816231 0)
(1.00008 0.000575655 5.84325e-25)
(1.0001 0.000254545 3.56886e-25)
(1.00028 -0.000385515 -2.0544e-25)
(1.00024 -0.00081056 -8.03049e-25)
(1.00029 -0.00107582 -1.07413e-24)
(1.00031 -0.00146839 0)
(1.00035 -0.00187487 -1.37967e-25)
(1.00034 -0.00232482 -1.18381e-24)
(1.00028 -0.00277398 -7.15697e-25)
(1.00005 -0.00305101 1.19596e-24)
(0.999729 -0.00301151 -1.05704e-25)
(0.998948 -0.00233773 -2.11354e-25)
(0.998055 -0.000604408 -5.21364e-29)
(0.997527 0.00207728 0)
(0.997758 0.00501358 5.97145e-25)
(0.998683 0.0071696 2.81974e-25)
(0.999843 0.00802947 -2.09987e-24)
(1.00059 0.0076342 -5.55692e-25)
(1.00088 0.00654618 -1.25353e-24)
(1.00096 0.00530797 -1.63054e-24)
(1.00087 0.00411062 -4.1223e-24)
(1.00074 0.00308898 -3.37306e-24)
(1.0006 0.00228133 -2.38495e-25)
(1.0005 0.00158958 -9.88314e-26)
(1.00038 0.00114371 0)
(1.00041 0.000527296 3.12658e-25)
(1.00063 -0.000593054 -5.19813e-25)
(1.00059 -0.0012023 0)
(1.0007 -0.00157087 -2.08246e-25)
(1.00077 -0.00216505 -1.40796e-24)
(1.00087 -0.00279301 -2.12148e-24)
(1.00089 -0.00352889 0)
(1.00077 -0.00435098 0)
(1.00025 -0.00492794 -2.06124e-25)
(0.999331 -0.00549909 -2.0039e-25)
(0.998065 -0.00353671 1.12272e-25)
(0.996564 -0.00139057 -1.89598e-25)
(0.99549 0.00214245 -2.58551e-25)
(0.995787 0.00629268 0)
(0.997456 0.0094308 0)
(0.999492 0.0107534 2.61182e-26)
(1.00153 0.0122002 -2.26653e-24)
(1.0023 0.0100408 0)
(1.00245 0.00794268 -7.56402e-25)
(1.0022 0.00601742 0)
(1.00183 0.00444888 -5.50991e-25)
(1.00146 0.00325867 -1.4291e-24)
(1.00119 0.00224696 -8.41098e-25)
(1.00093 0.00164262 0)
(1.00088 0.000786101 2.42429e-25)
(1.00105 -0.000787774 -3.19812e-25)
(1.00106 -0.00154661 0)
(1.00126 -0.00199868 -2.81397e-25)
(1.00143 -0.00278606 0)
(1.00166 -0.00364404 0)
(1.00179 -0.00473104 0)
(1.00169 -0.00608622 -1.70177e-25)
(1.00098 -0.00734395 4.13786e-24)
(0.99919 -0.00891042 -3.93889e-25)
(0.996733 -0.00681262 3.31871e-25)
(0.99341 -0.00418132 -2.05151e-25)
(0.990283 0.00156828 2.62028e-26)
(0.990359 0.00953104 4.73845e-26)
(0.994315 0.0154821 0)
(0.999034 0.0169976 -3.4078e-24)
(1.00228 0.0152734 0)
(1.00498 0.0136476 0)
(1.0048 0.010502 5.1386e-24)
(1.00418 0.00766945 3.313e-24)
(1.00335 0.00553417 -1.09222e-24)
(1.00264 0.00400106 -7.49188e-25)
(1.00209 0.00272139 0)
(1.00163 0.00201042 3.56819e-25)
(1.00145 0.00099486 2.85019e-25)
(1.00152 -0.000951168 -1.24688e-25)
(1.00162 -0.00181115 -8.33297e-27)
(1.00194 -0.00231677 -3.98589e-26)
(1.00228 -0.00327059 -6.07997e-26)
(1.00272 -0.00433308 1.53353e-25)
(1.00316 -0.00580633 3.22996e-24)
(1.0033 -0.00782252 -4.60889e-24)
(1.0029 -0.0100598 4.64059e-24)
(0.999545 -0.0107192 1.62587e-25)
(0.996097 -0.0116971 1.39216e-24)
(0.989516 -0.00972213 -2.9278e-25)
(0.980847 -0.00105937 2.10409e-25)
(0.979818 0.014367 -9.37258e-26)
(0.989727 0.0252703 5.02831e-24)
(0.999894 0.0259924 0)
(1.00544 0.0215988 3.22988e-24)
(1.00706 0.0160816 -6.77397e-25)
(1.0081 0.0120998 -3.91217e-24)
(1.0068 0.00879838 -2.22643e-24)
(1.00526 0.00614171 9.64011e-25)
(1.00406 0.00439447 -4.90482e-26)
(1.00313 0.00293483 -2.64834e-26)
(1.00243 0.00218889 4.02918e-25)
(1.00203 0.00112025 -1.48651e-25)
(1.00201 -0.00106472 6.22028e-26)
(1.00223 -0.00196243 -1.64695e-25)
(1.0027 -0.00247417 -9.73247e-27)
(1.00328 -0.00353144 0)
(1.00403 -0.00469495 -6.59745e-25)
(1.00499 -0.00649533 -2.43791e-25)
(1.00567 -0.00873912 -1.93296e-24)
(1.00441 -0.0110973 -5.18927e-25)
(1.00226 -0.0146743 2.2968e-24)
(0.99823 -0.0192172 8.14696e-24)
(0.985804 -0.0188446 1.72783e-24)
(0.968921 -0.00978452 2.49613e-28)
(0.962395 0.0186298 -9.57054e-26)
(0.983644 0.0389978 6.0117e-25)
(1.00483 0.039195 -7.1716e-24)
(1.01209 0.0287252 0)
(1.01263 0.0200079 4.4086e-28)
(1.01236 0.0128193 6.57728e-25)
(1.00993 0.00913638 1.50592e-25)
(1.00744 0.00610357 1.12341e-24)
(1.00563 0.0043242 -3.94364e-25)
(1.00422 0.00281669 0)
(1.00324 0.00212757 -2.03682e-25)
(1.00258 0.0011321 -2.76094e-25)
(1.00248 -0.0011131 7.42372e-28)
(1.00285 -0.00197491 -7.70139e-26)
(1.00347 -0.0024311 9.75875e-26)
(1.00433 -0.00349853 7.23908e-27)
(1.00547 -0.00460453 1.28863e-26)
(1.00709 -0.00657607 -1.08367e-24)
(1.00864 -0.00882578 -1.51634e-24)
(1.00801 -0.0122588 -8.18338e-26)
(1.00806 -0.0180635 -3.39771e-25)
(1.00585 -0.0274013 1.1675e-24)
(0.990718 -0.0366607 0)
(0.952462 -0.0373105 1.214e-24)
(0.910916 0.0274372 4.31334e-26)
(0.982521 0.0776744 3.18788e-24)
(1.01508 0.0540423 2.26173e-26)
(1.02405 0.0341104 0)
(1.02068 0.0215121 2.21592e-24)
(1.01734 0.0117974 5.46801e-25)
(1.01329 0.00829113 4.41773e-25)
(1.00967 0.00524363 -1.10867e-25)
(1.00716 0.00369527 -8.51941e-25)
(1.00523 0.0023191 0)
(1.00396 0.00179351 -1.82644e-25)
(1.003 0.0010083 -1.61937e-25)
(1.00289 -0.0010883 -7.73868e-26)
(1.00341 -0.00184025 6.82564e-26)
(1.00417 -0.00217441 3.59869e-26)
(1.00532 -0.00313672 2.70773e-26)
(1.00684 -0.00398821 -3.95308e-26)
(1.00914 -0.00581692 5.11585e-25)
(1.01176 -0.00754066 1.24807e-28)
(1.01262 -0.0115071 -1.94892e-25)
(1.01618 -0.0180956 2.03598e-28)
(1.02028 -0.0300508 -2.95007e-24)
(1.01501 -0.0520355 -5.67181e-26)
(0.989195 -0.104675 1.98864e-26)
(1.02773 0.133733 5.52434e-25)
(1.0456 0.0644008 -5.81228e-25)
(1.04096 0.0329355 1.23544e-24)
(1.03041 0.0188814 -2.65036e-25)
(1.02216 0.00849512 8.43565e-25)
(1.01634 0.00602044 8.65476e-25)
(1.01161 0.00348132 5.79989e-25)
(1.00842 0.00247722 -2.42301e-25)
(1.006 0.00143918 0)
(1.00448 0.00118451 0)
(1.00324 0.000741197 -2.81385e-30)
(1.00319 -0.00099337 -1.45006e-26)
(1.00385 -0.0015746 -2.70514e-27)
(1.00471 -0.00173196 -1.14137e-26)
(1.00608 -0.00247793 5.78137e-26)
(1.00789 -0.0028966 6.93406e-26)
(1.01068 -0.0042336 3.71409e-25)
(1.01419 -0.00491237 1.04446e-24)
(1.01692 -0.00837788 0)
(1.02399 -0.013106 0)
(1.03551 -0.0215125 0)
(1.04896 -0.0415762 -1.07223e-25)
(1.07925 -0.0878304 1.36347e-26)
(1.13249 0.109234 0)
(1.08394 0.0463572 0)
(1.05671 0.020966 0)
(1.03895 0.0110795 2.39031e-25)
(1.02556 0.0031063 0)
(1.01834 0.00244074 -9.0599e-25)
(1.01285 0.000948687 -6.06158e-25)
(1.00918 0.000755609 -5.46919e-26)
(1.0064 0.000241882 0)
(1.00471 0.000339793 7.19072e-27)
(1.00322 0.00034226 -3.0716e-27)
(1.00338 -0.000843426 2.91532e-27)
(1.00412 -0.00122014 -4.32858e-27)
(1.00503 -0.00117704 4.86941e-27)
(1.00648 -0.00163845 2.54393e-26)
(1.00841 -0.001544 -6.44203e-26)
(1.01133 -0.00217033 -4.963e-27)
(1.01517 -0.00163008 -1.03991e-25)
(1.0193 -0.00360054 -6.60791e-27)
(1.02787 -0.00455778 0)
(1.04235 -0.00543254 -2.67351e-25)
(1.06553 -0.0109489 1.20434e-30)
(1.11335 -0.0192754 -3.54243e-26)
(1.17656 0.0195051 -9.24351e-26)
(1.1034 0.00642622 -3.43122e-25)
(1.06332 0.00124563 -2.6545e-24)
(1.04288 -0.00031139 0)
(1.02646 -0.00326135 -1.73167e-24)
(1.01874 -0.00186997 0)
(1.01308 -0.0019884 -7.46684e-27)
(1.00924 -0.00125875 0)
(1.00631 -0.00113779 1.1208e-26)
(1.00457 -0.000659647 -4.45592e-27)
(1.00291 -0.000156941 -4.84973e-26)
(1.00344 -0.000662837 0)
(1.00422 -0.00083602 -2.43094e-26)
(1.00509 -0.000609545 -2.54453e-26)
(1.00651 -0.000784336 3.63173e-27)
(1.00834 -0.000230498 9.89353e-27)
(1.01099 -0.000152998 8.77247e-26)
(1.01453 0.00136568 3.57955e-25)
(1.01902 0.00123147 1.62289e-25)
(1.0265 0.00393868 0)
(1.03824 0.00983039 1.32347e-24)
(1.05871 0.0187733 4.05822e-25)
(1.09412 0.0409888 -1.65949e-26)
(1.15206 -0.06454 -4.38043e-26)
(1.09509 -0.0332691 5.67532e-25)
(1.05834 -0.0184146 1.154e-25)
(1.04082 -0.0117919 1.53742e-24)
(1.0246 -0.00913974 7.70229e-24)
(1.01743 -0.00608176 4.2854e-24)
(1.01223 -0.00483918 -2.90432e-24)
(1.00855 -0.00328604 -2.06332e-24)
(1.00571 -0.00252654 1.51734e-25)
(1.00404 -0.00170638 6.66887e-26)
(1.00232 -0.000710777 -1.49623e-25)
(1.0034 -0.000479002 2.89306e-27)
(1.00416 -0.000482076 7.6877e-27)
(1.00494 -0.000124542 1.18709e-26)
(1.00621 -7.15127e-05 6.61155e-27)
(1.00779 0.000782373 -4.26343e-34)
(1.00992 0.00136177 1.77522e-25)
(1.01269 0.0033608 5.75317e-25)
(1.01655 0.00466995 1.81717e-25)
(1.02131 0.00940706 0)
(1.02721 0.0183434 -3.76362e-25)
(1.03797 0.0342718 -8.98991e-26)
(1.05027 0.0679226 -1.79032e-26)
(1.09113 -0.107004 -1.34677e-26)
(1.06815 -0.056449 0)
(1.04539 -0.0315179 -2.38496e-24)
(1.03403 -0.0202214 1.93437e-24)
(1.02065 -0.0134343 1.09759e-23)
(1.01478 -0.00945979 7.22998e-24)
(1.01047 -0.00718119 0)
(1.00724 -0.00506367 -1.81593e-24)
(1.00466 -0.00376417 -1.00002e-24)
(1.00317 -0.00269289 9.47759e-26)
(1.00149 -0.00126934 -1.14888e-25)
(1.00329 -0.000315512 0)
(1.00399 -0.000202754 4.37788e-27)
(1.00464 0.000216482 -5.3465e-27)
(1.00571 0.000405601 -1.49727e-26)
(1.00698 0.00136463 0)
(1.00853 0.00215944 -5.01337e-26)
(1.01042 0.00414072 9.50873e-26)
(1.0131 0.00610083 -2.58065e-26)
(1.01504 0.0109089 -3.60373e-26)
(1.01538 0.0189061 2.00588e-25)
(1.01605 0.033439 3.90542e-26)
(1.00684 0.0602434 0)
(1.02988 -0.104287 -6.77065e-27)
(1.03772 -0.0600119 1.27068e-25)
(1.03043 -0.0359452 1.14747e-24)
(1.02525 -0.0242605 1.37814e-25)
(1.01574 -0.015748 4.81084e-24)
(1.01145 -0.0116215 5.08816e-24)
(1.00814 -0.00878373 0)
(1.0055 -0.00641717 -2.75149e-26)
(1.00329 -0.00473803 4.2234e-25)
(1.00203 -0.00353822 2.30202e-25)
(1.00047 -0.00178857 8.26091e-27)
(1.00314 -0.000187918 0)
(1.00376 -1.97152e-05 0)
(1.0043 0.000394982 0)
(1.00516 0.000627818 0)
(1.00614 0.00152417 -9.66906e-27)
(1.00719 0.00229303 -7.93166e-27)
(1.00837 0.00384798 -2.0587e-25)
(1.00921 0.00613509 2.7375e-24)
(1.01002 0.00935285 0)
(1.00716 0.0142209 0)
(1.00255 0.0220332 6.18016e-25)
(0.982241 0.0303941 2.17805e-24)
(0.58173 -0.0413643 -7.33096e-26)
(0.992207 -0.06569 -3.9429e-24)
(1.01557 -0.0499864 -7.3995e-25)
(1.01817 -0.0336525 -5.53361e-27)
(1.01695 -0.0244643 -3.10351e-26)
(1.01092 -0.0163202 -1.30363e-24)
(1.00804 -0.0125764 2.08963e-25)
(1.00562 -0.00962658 3.55054e-27)
(1.00356 -0.00728783 -1.84518e-24)
(1.00175 -0.00540698 0)
(1.00073 -0.00419594 8.47418e-26)
(0.999346 -0.0022378 -2.29234e-25)
(1.003 -0.000102612 0)
(1.00353 6.69258e-05 -2.62676e-26)
(1.00397 0.000428254 8.79894e-28)
(1.00466 0.000634014 0)
(1.00542 0.00136867 0)
(1.00616 0.00195424 -9.61639e-25)
(1.00689 0.00307247 1.99262e-25)
(1.00737 0.00435875 3.6553e-24)
(1.00705 0.00649621 4.04741e-24)
(1.00405 0.00837492 2.42866e-24)
(0.999193 0.0102419 0)
(0.987033 0.00538375 -2.36401e-25)
(0.870546 -0.0315337 1.53141e-25)
(0.988891 -0.0389698 -4.95312e-25)
(1.00452 -0.0340043 4.17071e-25)
(1.01039 -0.0281683 -4.16711e-25)
(1.0084 -0.0200155 7.36091e-25)
(1.00685 -0.0156359 -1.57074e-25)
(1.00496 -0.0125488 -2.23034e-28)
(1.00319 -0.00982927 -3.63612e-27)
(1.00164 -0.00771975 0)
(1.00017 -0.00578338 -7.9391e-25)
(0.999381 -0.00465624 -9.59566e-25)
(0.998179 -0.00260078 -2.96711e-25)
(1.00289 -5.86486e-05 6.4778e-28)
(1.00334 7.14486e-05 -2.41876e-26)
(1.0037 0.000352074 4.88154e-26)
(1.00428 0.000488002 5.62912e-30)
(1.0049 0.00102227 -1.75908e-25)
(1.00548 0.00137103 -6.88015e-25)
(1.00605 0.00202168 -2.15194e-24)
(1.00637 0.0026551 -3.20426e-24)
(1.0059 0.00362655 -9.28335e-25)
(1.00399 0.00355728 -1.38903e-25)
(1.00139 0.00171141 0)
(0.995867 -0.00233951 -1.0002e-25)
(0.90013 -0.0246416 -7.14738e-25)
(0.994356 -0.024357 -1.30724e-25)
(1.00189 -0.0253179 -1.22023e-25)
(1.00615 -0.022732 -2.1942e-25)
(1.00496 -0.0175219 -3.43762e-24)
(1.00378 -0.0144648 0)
(1.00241 -0.011968 -5.46833e-25)
(1.00104 -0.00960412 -1.97674e-25)
(0.999844 -0.00779743 -2.51435e-26)
(0.998659 -0.00591306 1.55776e-25)
(0.998045 -0.00492528 0)
(0.997033 -0.00287314 0)
(1.00282 -5.05423e-05 -1.47452e-28)
(1.0032 1.46158e-05 1.98224e-27)
(1.00353 0.000205614 2.16937e-26)
(1.00403 0.000254786 0)
(1.0046 0.000587099 -7.57137e-26)
(1.00513 0.00072203 0)
(1.00574 0.000935923 -1.22066e-24)
(1.00618 0.00113589 3.64195e-25)
(1.00638 0.000610327 -2.18631e-26)
(1.00511 0.000431817 -8.10603e-26)
(1.00483 -0.00207238 3.44227e-25)
(1.00074 -0.0081561 -1.91774e-25)
(0.944265 -0.0187186 -1.09857e-24)
(0.997038 -0.0192511 7.54695e-26)
(1.00154 -0.0196363 3.28256e-25)
(1.00397 -0.0183379 1.14243e-25)
(1.00243 -0.0151701 -1.66416e-24)
(1.00152 -0.0129476 1.87591e-24)
(1.00036 -0.0110825 0)
(0.999221 -0.00910211 6.76153e-25)
(0.998254 -0.00762981 -7.44084e-26)
(0.997273 -0.00586054 1.76241e-25)
(0.996785 -0.0050413 0)
(0.995941 -0.00306269 0)
(1.0028 -7.08942e-05 2.1324e-27)
(1.00313 -8.2206e-05 3.26091e-27)
(1.00344 2.32267e-05 -2.39907e-26)
(1.00391 -1.14631e-05 -6.25837e-27)
(1.00449 0.000142052 0)
(1.00505 0.000119765 0)
(1.00579 2.88313e-05 4.99034e-25)
(1.0065 -7.09894e-05 -1.62519e-25)
(1.00725 -0.000904699 1.65193e-25)
(1.00688 -0.00191295 -6.60855e-25)
(1.0072 -0.00383623 0)
(0.999729 -0.0069654 -3.67203e-25)
(0.952488 -0.0170629 -1.86698e-24)
(0.99986 -0.0149185 5.18794e-25)
(1.00205 -0.0145082 1.03624e-24)
(1.00252 -0.0134203 2.70387e-24)
(1.00094 -0.013005 1.5107e-24)
(0.999968 -0.0113307 1.57055e-24)
(0.998777 -0.0100903 -2.42893e-25)
(0.99774 -0.00844621 -1.60513e-25)
(0.996887 -0.00730498 -3.46497e-25)
(0.996044 -0.00568119 -1.25103e-24)
(0.995636 -0.00503588 4.19951e-27)
(0.994933 -0.0031784 -6.68546e-26)
(1.00283 -0.000112281 -8.99547e-27)
(1.00313 -0.000200772 3.95649e-27)
(1.00345 -0.000169654 -2.53298e-26)
(1.0039 -0.000274131 -3.37526e-26)
(1.00452 -0.000266355 0)
(1.00514 -0.000382224 0)
(1.00605 -0.000681513 1.4431e-24)
(1.00696 -0.000829643 1.58969e-25)
(1.00829 -0.00197489 -2.70512e-25)
(1.00811 -0.00188394 -9.38001e-25)
(1.00973 -0.00609849 0)
(0.965662 -0.00175569 -1.69634e-24)
(0.975564 -0.0130559 1.42666e-25)
(1.00345 -0.00919016 2.82654e-25)
(1.00221 -0.0125668 2.3917e-25)
(1.00228 -0.0111211 -6.29245e-25)
(1.00013 -0.0113002 -4.7179e-25)
(0.998914 -0.00990993 2.64911e-25)
(0.997583 -0.00914078 -6.81662e-26)
(0.996559 -0.00774242 -1.19609e-24)
(0.995737 -0.00690019 -3.89345e-25)
(0.994981 -0.00542506 -1.62578e-24)
(0.994611 -0.00494244 0)
(0.994025 -0.00323353 -2.32185e-25)
(1.00291 -0.00016839 -1.31245e-26)
(1.00318 -0.000327633 -1.21009e-26)
(1.00352 -0.000357516 0)
(1.00398 -0.00051384 -2.07067e-26)
(1.00465 -0.000623119 0)
(1.00533 -0.000776526 -8.03192e-25)
(1.00641 -0.00124382 -1.45854e-25)
(1.00744 -0.00130016 1.22276e-25)
(1.00914 -0.00275269 -2.15388e-25)
(1.00919 -0.00207628 -2.73109e-25)
(1.01019 -0.00637035 -1.70128e-25)
(0.967687 -0.00243141 -1.90642e-24)
(0.977864 -0.0110098 1.10078e-24)
(1.00398 -0.00719861 -2.51804e-25)
(1.00251 -0.0109371 -1.27117e-25)
(1.00213 -0.00923123 -3.4706e-26)
(0.999568 -0.00991989 -2.69911e-25)
(0.998157 -0.00866503 -3.09168e-25)
(0.996671 -0.0082743 -6.74661e-25)
(0.99562 -0.0070483 -1.71333e-25)
(0.99478 -0.00646685 -1.05066e-25)
(0.994075 -0.00512881 -5.35942e-25)
(0.993714 -0.0047908 -2.29849e-25)
(0.993219 -0.00324055 -1.03308e-25)
(1.00303 -0.00023439 0)
(1.00328 -0.000453863 -2.82627e-26)
(1.00364 -0.000532253 -2.30059e-26)
(1.00411 -0.000721967 -8.84882e-27)
(1.00485 -0.000926436 1.58594e-25)
(1.00558 -0.00107358 -9.66499e-25)
(1.0068 -0.00168447 0)
(1.00793 -0.00159784 -2.53286e-25)
(1.00985 -0.00325951 0)
(1.01019 -0.00221652 0)
(1.01087 -0.00626398 -1.11961e-27)
(0.969438 -0.00257564 1.96297e-27)
(0.979525 -0.00959472 3.98963e-25)
(1.00455 -0.00593329 -1.60123e-25)
(1.00291 -0.00963547 -6.10204e-26)
(1.00207 -0.00774208 -2.62909e-26)
(0.999194 -0.00879836 4.72152e-26)
(0.997608 -0.00758008 -1.34923e-25)
(0.995968 -0.00750289 -1.78605e-25)
(0.994873 -0.00639184 3.00008e-25)
(0.993985 -0.00603491 -1.05022e-25)
(0.993309 -0.00481714 0)
(0.992937 -0.00460362 4.84861e-30)
(0.992513 -0.00321027 0)
(1.00318 -0.000306833 0)
(1.00342 -0.000574036 -3.81349e-26)
(1.00381 -0.000690358 -2.24942e-26)
(1.00429 -0.000896165 4.72469e-26)
(1.00509 -0.0011789 0)
(1.00586 -0.00128875 5.70417e-26)
(1.0072 -0.00201755 -7.35155e-25)
(1.00843 -0.00177484 -5.27262e-25)
(1.01046 -0.00355491 -4.48114e-26)
(1.01105 -0.00225938 -7.46999e-28)
(1.01146 -0.00603046 3.87608e-25)
(0.970645 -0.00258108 -2.75706e-25)
(0.980581 -0.00852452 5.04636e-25)
(1.00503 -0.00501934 -1.20044e-25)
(1.00328 -0.00859819 1.26614e-25)
(1.00206 -0.00657611 -1.12297e-27)
(0.99896 -0.00788626 -1.12033e-25)
(0.99721 -0.00665084 9.03848e-26)
(0.995426 -0.00683073 2.34304e-25)
(0.994278 -0.00578851 -4.43099e-30)
(0.993328 -0.00562278 -5.0155e-26)
(0.992665 -0.00450625 -3.32761e-25)
(0.992268 -0.00439751 1.72701e-25)
(0.991897 -0.00315169 1.59195e-25)
(1.00336 -0.00038344 -2.36818e-26)
(1.00359 -0.000685403 -4.55048e-26)
(1.00401 -0.000831349 -8.3803e-34)
(1.00449 -0.00103824 1.08824e-25)
(1.00535 -0.00138583 2.74848e-25)
(1.00616 -0.00143936 4.05158e-26)
(1.00758 -0.00226272 -7.29607e-25)
(1.00889 -0.00187145 -4.7565e-25)
(1.01098 -0.00371449 2.68753e-25)
(1.01174 -0.00225618 0)
(1.0119 -0.00576196 7.68096e-26)
(0.971546 -0.00251871 -9.80734e-26)
(0.981346 -0.00767628 1.58192e-25)
(1.0054 -0.00432596 -9.35452e-26)
(1.00359 -0.0077537 -5.5011e-31)
(1.00207 -0.00565175 -1.748e-25)
(0.998811 -0.00713789 -9.15805e-26)
(0.996913 -0.00586214 -1.89848e-26)
(0.995004 -0.00625169 1.25295e-25)
(0.9938 -0.00524473 -1.79047e-25)
(0.992783 -0.0052405 -2.81965e-25)
(0.992123 -0.00420637 -1.4066e-25)
(0.991695 -0.00418456 -1.48844e-25)
(0.991363 -0.00307208 1.38861e-25)
(1.00355 -0.000462756 -3.16204e-34)
(1.00378 -0.000787162 -2.53252e-26)
(1.00422 -0.000956427 2.84881e-26)
(1.00471 -0.00115232 5.86615e-26)
(1.00562 -0.00155405 2.93076e-29)
(1.00645 -0.00154158 0)
(1.00794 -0.00243991 -2.40001e-26)
(1.00932 -0.00191737 -4.45098e-25)
(1.01143 -0.00378553 2.30394e-25)
(1.01231 -0.00222665 0)
(1.01223 -0.0054847 -1.7219e-30)
(0.972264 -0.00241819 7.48524e-26)
(0.98193 -0.00699419 -1.61851e-25)
(1.00571 -0.00379268 0)
(1.00385 -0.00706002 1.03402e-26)
(1.00208 -0.00491357 4.25735e-26)
(0.998714 -0.00651912 0)
(0.996685 -0.00519544 4.14658e-26)
(0.994671 -0.00575554 4.11143e-26)
(0.993414 -0.00476082 -4.62358e-25)
(0.992329 -0.00489227 -1.18226e-25)
(0.991666 -0.00392333 1.19394e-25)
(0.991204 -0.00397271 -1.53807e-25)
(0.990901 -0.0029772 0)
(1.00375 -0.000543982 2.74086e-26)
(1.00397 -0.000879662 -2.69595e-26)
(1.00444 -0.00106767 0)
(1.00494 -0.00124335 2.49267e-26)
(1.00589 -0.0016905 7.34843e-26)
(1.00674 -0.00160891 1.91468e-26)
(1.00828 -0.00256558 0)
(1.00971 -0.00193181 2.77512e-27)
(1.01181 -0.00379906 2.03377e-25)
(1.01278 -0.00218325 0)
(1.01249 -0.00521684 5.2543e-26)
(0.972846 -0.00230363 3.08816e-26)
(0.982378 -0.0064387 -1.09567e-25)
(1.00595 -0.00337531 1.51463e-26)
(1.00407 -0.00648667 -3.89443e-26)
(1.0021 -0.00432128 -1.67411e-27)
(0.99865 -0.00600466 3.11665e-26)
(0.996505 -0.00463365 -1.18115e-26)
(0.994404 -0.00533156 6.21288e-28)
(0.993097 -0.00433416 -1.66787e-25)
(0.991949 -0.00457909 6.21083e-26)
(0.991279 -0.00366011 6.97682e-26)
(0.990782 -0.00376739 -2.46644e-26)
(0.990498 -0.00287156 -1.2596e-26)
(1.00396 -0.00062666 -2.74346e-27)
(1.00418 -0.000963921 -3.63768e-26)
(1.00466 -0.00116734 -6.68462e-27)
(1.00517 -0.00131619 0)
(1.00615 -0.00180159 5.53208e-25)
(1.00702 -0.00165213 0)
(1.00858 -0.00265314 -3.19485e-25)
(1.01006 -0.00192808 0)
(1.01215 -0.00377707 1.72966e-25)
(1.01318 -0.00213584 1.0006e-25)
(1.01268 -0.00496771 0)
(0.973325 -0.00219401 2.45395e-26)
(0.982727 -0.00598346 0)
(1.00615 -0.00304535 1.21066e-26)
(1.00424 -0.00600931 -1.0513e-26)
(1.00211 -0.00384456 0)
(0.998606 -0.00557493 0)
(0.996358 -0.00416211 -9.76975e-27)
(0.994186 -0.00496996 1.45256e-26)
(0.992832 -0.00396108 0)
(0.991627 -0.00429986 0)
(0.990948 -0.00341788 5.89702e-26)
(0.990416 -0.00357183 1.17419e-26)
(0.990146 -0.0027587 -4.69358e-26)
(1.00416 -0.000710502 2.77607e-27)
(1.00439 -0.00104117 2.62257e-27)
(1.00488 -0.00125759 0)
(1.0054 -0.00137528 -8.32959e-27)
(1.00639 -0.0018929 2.79282e-25)
(1.00729 -0.00167957 8.79064e-27)
(1.00886 -0.00271347 -2.84636e-25)
(1.01037 -0.00191573 -6.95573e-28)
(1.01243 -0.00373567 0)
(1.01351 -0.00208895 1.00456e-25)
(1.0128 -0.00474403 0)
(0.973724 -0.00210012 0)
(0.983015 -0.00560612 0)
(1.00632 -0.00278249 6.56434e-26)
(1.00439 -0.00560938 9.81727e-26)
(1.00212 -0.00346108 0)
(0.998571 -0.00521499 -2.76355e-27)
(0.996233 -0.00376837 0)
(0.994004 -0.0046621 0)
(0.992607 -0.00363724 0)
(0.991351 -0.00405252 0)
(0.99066 -0.00319729 -5.40687e-26)
(0.990097 -0.00338797 -4.39792e-26)
(0.989834 -0.00264186 7.57842e-31)
(1.00437 -0.000795224 0)
(1.00459 -0.00111258 1.39147e-26)
(1.0051 -0.00134026 -2.59027e-26)
(1.00561 -0.00142421 2.97001e-26)
(1.00663 -0.00196904 2.65569e-25)
(1.00754 -0.00169746 5.32605e-25)
(1.00912 -0.0027552 0)
(1.01066 -0.00190159 0)
(1.01269 -0.0036866 1.68623e-26)
(1.01379 -0.00204813 6.4033e-28)
(1.01288 -0.0045501 -3.16974e-33)
(0.974061 -0.00202167 3.84171e-26)
(0.983248 -0.0052906 1.43254e-25)
(1.00646 -0.00257368 5.18304e-26)
(1.00451 -0.00527734 3.32071e-27)
(1.00212 -0.0031524 0)
(0.998541 -0.0049139 -7.35139e-26)
(0.996122 -0.00344018 -9.62902e-26)
(0.993848 -0.00440057 0)
(0.99241 -0.0033573 -9.571e-26)
(0.991109 -0.00383493 -8.48321e-41)
(0.990406 -0.0029973 1.32336e-25)
(0.989814 -0.00321709 8.15284e-26)
(0.989554 -0.00252306 6.66439e-26)
(1.00457 -0.000880431 -3.00633e-26)
(1.00479 -0.00117899 1.13484e-26)
(1.00531 -0.00141665 -1.42776e-26)
(1.00583 -0.00146578 5.76429e-26)
(1.00686 -0.00203364 2.42541e-25)
(1.00777 -0.00171039 1.01017e-24)
(1.00935 -0.00278484 0)
(1.01091 -0.00188962 0)
(1.01291 -0.00363729 1.51016e-26)
(1.01402 -0.00201716 0)
(1.01293 -0.00438598 0)
(0.974352 -0.00196135 0)
(0.983437 -0.00502939 0)
(1.00657 -0.00241118 -4.00293e-26)
(1.00461 -0.00500288 -6.28811e-26)
(1.00212 -0.00290567 -6.05927e-26)
(0.998512 -0.00466315 -1.16775e-25)
(0.996022 -0.00316847 -8.10044e-26)
(0.99371 -0.00417945 0)
(0.992234 -0.00311705 -2.42967e-26)
(0.990894 -0.00364494 0)
(0.990176 -0.00281728 0)
(0.989559 -0.00305993 3.73665e-26)
(0.989298 -0.00240425 2.85889e-26)
(1.00475 -0.000965501 -2.4764e-26)
(1.00498 -0.00124091 -1.63473e-26)
(1.00551 -0.0014875 -4.80582e-27)
(1.00603 -0.00150193 5.2936e-27)
(1.00707 -0.00208933 -6.7909e-34)
(1.008 -0.00172161 4.77209e-25)
(1.00957 -0.00280721 0)
(1.01115 -0.00188238 -3.09038e-26)
(1.01311 -0.00359285 7.41223e-27)
(1.01423 -0.00199867 -4.29433e-28)
(1.01296 -0.00425172 5.80867e-26)
(0.974604 -0.00192128 1.84275e-26)
(0.983592 -0.00481694 4.63863e-26)
(1.00666 -0.00228941 0)
(1.00469 -0.00477832 0)
(1.00211 -0.00271131 6.18037e-28)
(0.998482 -0.00445613 4.74793e-26)
(0.995928 -0.0029459 3.1433e-31)
(0.993584 -0.00399417 -4.30456e-26)
(0.992073 -0.00291291 0)
(0.990698 -0.00348062 0)
(0.989965 -0.00265675 1.46819e-26)
(0.989323 -0.00291703 0)
(0.989057 -0.00228727 0)
(1.00493 -0.00104948 0)
(1.00516 -0.00129818 -2.52842e-26)
(1.0057 -0.00155293 -1.75152e-26)
(1.00622 -0.00153365 -2.91877e-26)
(1.00727 -0.0021379 0)
(1.00821 -0.00173298 0)
(1.00977 -0.00282542 0)
(1.01137 -0.00188184 -2.94128e-26)
(1.0133 -0.00355724 0)
(1.01441 -0.0019949 -3.35519e-27)
(1.01297 -0.00414806 2.16236e-26)
(0.974825 -0.00190363 3.5039e-27)
(0.983719 -0.00464946 3.53674e-26)
(1.00674 -0.00220476 4.05315e-26)
(1.00475 -0.00459811 3.88874e-26)
(1.00209 -0.00256216 0)
(0.998449 -0.00428763 -3.78729e-26)
(0.995835 -0.0027665 -4.37747e-26)
(0.993467 -0.00384106 0)
(0.99192 -0.00274186 0)
(0.990516 -0.00334062 0)
(0.989764 -0.00251549 1.40131e-26)
(0.989102 -0.00278905 0)
(0.988826 -0.00217401 0)
(1.00509 -0.00113083 1.33475e-27)
(1.00533 -0.0013501 -1.96947e-26)
(1.00587 -0.0016123 4.04954e-27)
(1.00641 -0.0015612 0)
(1.00746 -0.00218002 2.51891e-26)
(1.00841 -0.00174427 8.11177e-27)
(1.00996 -0.00284124 0)
(1.01158 -0.00188849 -1.4062e-26)
(1.01347 -0.00353264 2.76094e-27)
(1.01458 -0.00200751 -4.48342e-27)
(1.01297 -0.00407687 -2.4718e-27)
(0.97502 -0.00191107 -2.82452e-27)
(0.983824 -0.0045247 4.97926e-26)
(1.0068 -0.00215497 6.50307e-28)
(1.00479 -0.00445795 -4.16576e-28)
(1.00207 -0.00245262 2.63412e-26)
(0.998412 -0.00415358 8.36719e-28)
(0.995742 -0.00262538 -3.41153e-27)
(0.993354 -0.00371706 0)
(0.991771 -0.00260147 -2.85667e-26)
(0.990344 -0.00322383 -2.66427e-26)
(0.989569 -0.00239358 0)
(0.988888 -0.00267696 3.35781e-26)
(0.988597 -0.00206663 9.74999e-27)
(1.00524 -0.00120714 0)
(1.00549 -0.0013952 -1.29851e-26)
(1.00604 -0.00166434 -5.3579e-27)
(1.00659 -0.00158455 -1.7344e-27)
(1.00763 -0.00221549 0)
(1.00861 -0.00175534 2.15552e-25)
(1.01015 -0.00285557 -5.55881e-26)
(1.01178 -0.00190169 -2.49763e-26)
(1.01364 -0.00352027 1.56581e-28)
(1.01474 -0.00203769 8.82153e-27)
(1.01297 -0.00404267 2.24238e-27)
(0.975191 -0.00194814 -2.05062e-26)
(0.98391 -0.0044424 1.44676e-26)
(1.00683 -0.00213905 3.47e-28)
(1.00482 -0.00435431 -2.04685e-26)
(1.00203 -0.00237792 -1.75685e-26)
(0.99837 -0.00405041 1.8323e-27)
(0.995645 -0.00251852 -3.54367e-27)
(0.993246 -0.00361996 0)
(0.991624 -0.00249006 -1.86635e-26)
(0.990178 -0.00312993 -2.09221e-26)
(0.989377 -0.00229182 0)
(0.98868 -0.0025823 1.09818e-26)
(0.988368 -0.00196798 -1.60488e-26)
(1.00537 -0.00127518 -9.51767e-27)
(1.00565 -0.00143159 1.11714e-26)
(1.00619 -0.00170735 -2.49781e-26)
(1.00678 -0.00160229 -1.3465e-27)
(1.00781 -0.00224354 1.77712e-26)
(1.00881 -0.00176526 2.29288e-25)
(1.01032 -0.0028681 -2.44279e-26)
(1.01199 -0.00191955 -7.16153e-27)
(1.01381 -0.00351991 3.02857e-27)
(1.01491 -0.00208452 2.25336e-26)
(1.01297 -0.00405197 6.1758e-27)
(0.975336 -0.0020211 1.92216e-26)
(0.983981 -0.00440283 -3.96064e-27)
(1.00685 -0.00215619 0)
(1.00484 -0.00428347 -1.26445e-26)
(1.00198 -0.00233328 -1.00163e-26)
(0.998324 -0.00397462 1.00029e-27)
(0.995537 -0.00244207 0)
(0.993138 -0.00354744 2.00053e-27)
(0.991468 -0.00240597 2.78768e-27)
(0.990014 -0.00305816 -1.53541e-26)
(0.989174 -0.00221102 -1.88909e-26)
(0.988469 -0.00250651 7.46409e-27)
(0.988123 -0.00188147 0)
(1.00547 -0.00132715 -6.80852e-27)
(1.00578 -0.00145502 1.02446e-26)
(1.00632 -0.00173675 -9.25195e-27)
(1.00694 -0.00161211 0)
(1.00795 -0.00226139 0)
(1.009 -0.00177169 -5.08749e-26)
(1.01048 -0.002876 2.53068e-26)
(1.01218 -0.00193696 1.05666e-26)
(1.01396 -0.00352818 1.0078e-26)
(1.01507 -0.00214544 -3.13772e-27)
(1.01297 -0.00413005 -2.34139e-26)
(0.975447 -0.00214813 0)
(0.984034 -0.00441132 0)
(1.00684 -0.00220789 0)
(1.00484 -0.00424108 0)
(1.00192 -0.00231314 -1.2155e-27)
(0.998284 -0.00392398 0)
(0.995433 -0.00239442 0)
(0.993047 -0.00349911 1.74314e-27)
(0.991324 -0.00235054 0)
(0.989874 -0.00301011 0)
(0.98899 -0.00215534 0)
(0.988282 -0.00245404 6.6766e-27)
(0.987896 -0.00181513 0)
(1.00558 -0.0013635 0)
(1.00599 -0.00146822 -1.03987e-27)
(1.00647 -0.00175501 -2.77697e-27)
(1.00721 -0.00161628 -4.86135e-28)
(1.00813 -0.00227164 4.07711e-27)
(1.00931 -0.00177537 -8.21662e-26)
(1.01068 -0.00287969 3.04752e-27)
(1.01252 -0.00195098 4.2414e-30)
(1.01419 -0.00354013 3.21482e-33)
(1.01544 -0.00220056 -5.88006e-31)
(1.0131 -0.00427268 -3.97313e-26)
(0.975491 -0.00233448 0)
(0.984075 -0.00445553 -1.65793e-26)
(1.00673 -0.00228697 -2.08178e-26)
(1.00482 -0.00421805 -8.84855e-28)
(1.00178 -0.00230851 -2.54265e-27)
(0.998241 -0.00389011 0)
(0.995237 -0.00236651 0)
(0.992937 -0.00346745 0)
(0.991074 -0.00231606 0)
(0.989683 -0.00297894 0)
(0.988681 -0.00211897 0)
(0.988008 -0.00241951 4.73035e-27)
(0.987515 -0.00176758 0)
(1.07077 -0.0946486 1.83181e-26)
(1.12822 0.12936 7.08377e-26)
(1.0192 0.149638 2.86084e-25)
(1.11232 -0.028356 -3.50144e-26)
(1.18473 0.0331414 -1.14812e-26)
(1.13972 0.119281 -5.7942e-26)
(1.0985 0.0351864 -1.51338e-26)
(1.16441 -0.0681865 -1.60099e-25)
(1.18629 0.0193785 -4.70734e-26)
(1.05629 0.0663904 -8.07134e-26)
(1.10116 -0.113806 2.29797e-25)
(1.15787 -0.0769907 0)
(1.01134 0.0625755 6.91675e-30)
(1.03337 -0.114434 -1.59044e-25)
(1.09223 -0.116423 1.51949e-25)
(0.983732 0.0348016 0)
(0.501521 0.0125972 -7.42605e-26)
(0.556508 -0.0454564 1.51834e-25)
(0.989274 -0.0777572 8.35093e-25)
(1.02588 -0.111557 -2.34815e-25)
(0.978121 -0.0981502 1.99494e-25)
(0.909206 0.00726621 4.3724e-26)
(1.0039 0.142162 4.24638e-25)
(0.962965 0.0702553 1.02295e-24)
(1.04134 -0.0468966 -1.27202e-25)
(1.06654 -0.0845366 5.26217e-27)
(0.998216 -0.0940958 -2.52633e-25)
(1.08522 0.243617 0)
(0.955491 0.231662 -2.32705e-25)
(1.12209 0.117997 0)
(1.08179 0.065893 1.27889e-26)
(1.04487 0.0765219 -1.42343e-24)
(1.06371 -0.0193375 1.27293e-25)
(1.10505 -0.0260114 -3.31504e-26)
(1.07423 -0.0785035 6.21854e-27)
(1.09907 -0.0640642 -6.05486e-27)
(1.13082 -0.0798905 5.82423e-27)
(1.10317 -0.121349 -8.08632e-27)
(1.2025 0.101036 8.03585e-26)
(1.1719 0.172658 3.06959e-26)
(1.17476 0.0315807 5.14814e-27)
(1.11244 0.0223968 -4.10538e-25)
(1.09232 0.0572726 1.50459e-25)
(1.06222 0.0123557 2.66052e-25)
(1.09399 0.0315638 1.31796e-26)
(1.10615 -0.0176514 -2.2869e-28)
(1.11119 0.00662414 2.16684e-30)
(1.13802 0.0191469 -3.33743e-26)
(1.14417 -0.0238045 -4.41796e-28)
(1.21663 -0.0247713 2.16335e-27)
(1.22387 0.0462378 -4.16477e-26)