/*--------------------------------*- C++ -*----------------------------------*\
| =========                 |                                                 |
| \\      /  F ield         | OpenFOAM: The Open Source CFD Toolbox           |
|  \\    /   O peration     | Version:  5.x                                   |
|   \\  /    A nd           | Web:      www.OpenFOAM.org                      |
|    \\/     M anipulation  |                                                 |
\*---------------------------------------------------------------------------*/
FoamFile
{
    version     2.0;
    format      ascii;
    class       volScalarField;
    location    "600";
    object      xf;
}
// * * * * * * * * * * * * * * * * * * * * * * * * * * * * * * * * * * * * * //

dimensions      [0 0 0 0 0 0 0];

internalField   nonuniform List<scalar> 
6584
(
0.317357
0.317357
0.317357
0.317357
0.317357
0.317357
0.317357
0.317357
0.317358
0.317358
0.317358
0.317358
0.317358
0.317358
0.317358
0.317358
0.317357
0.317357
0.317357
0.317357
0.317356
0.317356
0.317356
0.317356
0.31701
0.317011
0.31701
0.317011
0.317011
0.317011
0.317012
0.317013
0.317013
0.317014
0.317014
0.317014
0.317014
0.317014
0.317014
0.317013
0.317013
0.317012
0.317012
0.317011
0.317011
0.31701
0.31701
0.31701
0.316664
0.316664
0.316664
0.316664
0.316665
0.316665
0.316666
0.316668
0.316669
0.316841
0.316841
0.316841
0.316841
0.316841
0.316841
0.316669
0.316668
0.316667
0.316666
0.316665
0.316665
0.316665
0.316664
0.316664
0.316318
0.316318
0.316318
0.316319
0.316319
0.31632
0.316321
0.316323
0.316324
0.316496
0.316495
0.316495
0.316495
0.316496
0.316496
0.316497
0.316322
0.316322
0.316321
0.31632
0.316319
0.316319
0.316318
0.316318
0.315972
0.315972
0.315973
0.315973
0.315974
0.315974
0.315975
0.315975
0.316149
0.31615
0.316148
0.316146
0.316146
0.316147
0.31615
0.31615
0.31615
0.315978
0.315976
0.315975
0.315974
0.315973
0.315973
0.315972
0.315626
0.315626
0.315627
0.315628
0.315629
0.315629
0.31563
0.315802
0.315801
0.3158
0.315885
0.315881
0.31588
0.315884
0.315802
0.315806
0.315806
0.315635
0.315632
0.315631
0.315629
0.315628
0.315627
0.315627
0.315281
0.315281
0.315282
0.315283
0.315284
0.315285
0.315287
0.315458
0.315456
0.315453
0.31553
0.315565
0.31556
0.315527
0.315543
0.315463
0.315464
0.315294
0.315289
0.315287
0.315285
0.315283
0.315282
0.315281
0.314935
0.314936
0.314937
0.314938
0.314939
0.314941
0.314945
0.315114
0.315113
0.315113
0.315182
0.315197
0.315211
0.315201
0.315126
0.315125
0.314955
0.314948
0.314944
0.314941
0.314939
0.314937
0.314936
0.31459
0.314591
0.314592
0.314594
0.314596
0.314598
0.314604
0.314773
0.314774
0.314778
0.314846
0.31486
0.314879
0.314871
0.314794
0.314789
0.314617
0.314606
0.314601
0.314598
0.314595
0.314593
0.314591
0.314245
0.314246
0.314248
0.314249
0.314252
0.314256
0.314263
0.314433
0.314436
0.314445
0.314518
0.314545
0.314575
0.314552
0.314466
0.314455
0.314279
0.314266
0.314259
0.314254
0.314251
0.314248
0.314246
0.3139
0.313901
0.313903
0.313905
0.313909
0.313913
0.313921
0.314093
0.314099
0.314113
0.314193
0.314231
0.314274
0.314234
0.314138
0.314122
0.313941
0.313926
0.313917
0.31391
0.313906
0.313903
0.313901
0.313555
0.313557
0.313558
0.313561
0.313565
0.313571
0.31358
0.313752
0.313761
0.313778
0.313863
0.313907
0.313961
0.313911
0.313808
0.313787
0.313602
0.313585
0.313575
0.313567
0.313562
0.313559
0.313556
0.31321
0.313212
0.313214
0.313218
0.313222
0.313228
0.313238
0.313411
0.313422
0.31344
0.313526
0.313568
0.313628
0.313579
0.313474
0.313451
0.313263
0.313244
0.313232
0.313223
0.313217
0.313213
0.31321
0.312865
0.312867
0.31287
0.312873
0.312878
0.312885
0.312896
0.312901
0.313079
0.313095
0.313176
0.313204
0.211444
0.313229
0.313239
0.313135
0.313111
0.312922
0.312901
0.312889
0.312879
0.312872
0.312867
0.312864
0.31252
0.312522
0.312525
0.312529
0.312534
0.312541
0.312551
0.312554
0.31273
0.312746
0.312827
0.312807
0.28435
0.312877
0.312799
0.312792
0.312589
0.312576
0.312556
0.312543
0.312535
0.312527
0.312522
0.312518
0.312175
0.312177
0.31218
0.312185
0.31219
0.312197
0.312205
0.312209
0.312385
0.312402
0.312397
0.312455
0.285549
0.312442
0.312454
0.312448
0.312245
0.312232
0.31221
0.312197
0.312187
0.312179
0.312175
0.312171
0.31183
0.311832
0.311835
0.31184
0.311846
0.311852
0.31186
0.311865
0.311875
0.312058
0.312052
0.311681
0.298332
0.312092
0.312107
0.312102
0.311899
0.311886
0.311864
0.311851
0.31184
0.311832
0.311828
0.311823
0.311485
0.311487
0.31149
0.311495
0.311501
0.311506
0.311515
0.311521
0.311531
0.311538
0.311707
0.311125
0.298181
0.311743
0.311591
0.311572
0.311553
0.31154
0.311518
0.311504
0.311493
0.311485
0.31148
0.311475
0.311139
0.311142
0.311146
0.31115
0.311156
0.311161
0.311171
0.311178
0.311188
0.311194
0.311131
0.295757
0.304544
0.31123
0.311245
0.311226
0.311207
0.311194
0.311171
0.311157
0.311146
0.311137
0.311132
0.311126
0.310794
0.310797
0.310801
0.310806
0.310812
0.310817
0.310827
0.310835
0.310845
0.31085
0.310741
0.295451
0.304215
0.310881
0.310899
0.310881
0.310861
0.310847
0.310824
0.310809
0.310798
0.310789
0.310784
0.310778
0.310449
0.310452
0.310456
0.310461
0.310467
0.310473
0.310484
0.310491
0.310502
0.310506
0.310353
0.29514
0.303882
0.310532
0.310553
0.310535
0.310514
0.3105
0.310477
0.310462
0.31045
0.310441
0.310436
0.310429
0.310104
0.310107
0.310111
0.310116
0.310123
0.310129
0.31014
0.310148
0.310159
0.310163
0.309967
0.294825
0.303546
0.310183
0.310207
0.310189
0.310168
0.310154
0.31013
0.310114
0.310102
0.310093
0.310087
0.310081
0.309759
0.309762
0.309766
0.309771
0.309778
0.309785
0.309797
0.309805
0.309817
0.309819
0.309584
0.294507
0.303206
0.309834
0.309862
0.309844
0.309822
0.309807
0.309783
0.309767
0.309754
0.309745
0.309739
0.309732
0.309413
0.309417
0.309421
0.309427
0.309434
0.309441
0.309454
0.309462
0.309475
0.309476
0.309203
0.294188
0.302865
0.309485
0.309516
0.309498
0.309476
0.30946
0.309436
0.309419
0.309406
0.309396
0.30939
0.309383
0.309068
0.309072
0.309076
0.309082
0.30909
0.309097
0.309111
0.30912
0.309132
0.309132
0.308824
0.293866
0.302522
0.309136
0.309171
0.309153
0.309129
0.309114
0.309088
0.309071
0.309058
0.309048
0.309041
0.309034
0.308723
0.308727
0.308731
0.308738
0.308746
0.308753
0.308768
0.308777
0.30879
0.308789
0.308442
0.293544
0.302179
0.308788
0.308826
0.308808
0.308783
0.308767
0.308741
0.308723
0.30871
0.308699
0.308693
0.308685
0.308378
0.308382
0.308387
0.308393
0.308401
0.30841
0.308425
0.308434
0.308448
0.308446
0.308058
0.293225
0.301839
0.308441
0.308482
0.308463
0.308438
0.308421
0.308394
0.308376
0.308362
0.308351
0.308345
0.308337
0.308033
0.308037
0.308042
0.308049
0.308057
0.308066
0.308082
0.308092
0.308107
0.308103
0.307676
0.292904
0.301498
0.308094
0.308137
0.308119
0.308092
0.308075
0.308048
0.308029
0.308015
0.308004
0.307996
0.307989
0.307688
0.307692
0.307697
0.307704
0.307713
0.307723
0.307739
0.307749
0.307765
0.30776
0.307294
0.292583
0.301157
0.307747
0.307793
0.307774
0.307747
0.307729
0.307701
0.307682
0.307667
0.307656
0.307648
0.307641
0.307344
0.307348
0.307353
0.30736
0.307369
0.307379
0.307396
0.307407
0.307424
0.307417
0.306914
0.29226
0.300814
0.307399
0.307448
0.307429
0.307401
0.307383
0.307354
0.307334
0.307319
0.307308
0.3073
0.307293
0.306999
0.307003
0.307008
0.307016
0.307025
0.307036
0.307054
0.307066
0.307082
0.307073
0.306535
0.291938
0.300471
0.307052
0.307104
0.307085
0.307056
0.307037
0.307007
0.306987
0.306971
0.306959
0.306952
0.306944
0.306654
0.306658
0.306664
0.306671
0.306681
0.306693
0.306711
0.306724
0.306741
0.30673
0.306156
0.291614
0.300128
0.306705
0.30676
0.30674
0.30671
0.306691
0.30666
0.30664
0.306624
0.306611
0.306603
0.306596
0.306309
0.306314
0.306319
0.306327
0.306338
0.30635
0.306369
0.306382
0.306399
0.306387
0.305778
0.291291
0.299784
0.306358
0.306415
0.306396
0.306365
0.306344
0.306313
0.306292
0.306276
0.306263
0.306255
0.306247
0.305965
0.305969
0.305975
0.305983
0.305994
0.306007
0.306027
0.30604
0.306058
0.306043
0.3054
0.290967
0.299441
0.306011
0.306071
0.306051
0.306019
0.305998
0.305967
0.305945
0.305928
0.305915
0.305906
0.305899
0.30562
0.305624
0.305631
0.305638
0.30565
0.305664
0.305685
0.305698
0.305716
0.3057
0.305021
0.290643
0.299097
0.305664
0.305727
0.305706
0.305673
0.305652
0.30562
0.305597
0.30558
0.305567
0.305558
0.305551
0.305275
0.30528
0.305286
0.305295
0.305307
0.305321
0.305342
0.305356
0.305375
0.305356
0.304641
0.29032
0.298754
0.305317
0.305382
0.305361
0.305328
0.305306
0.305273
0.30525
0.305232
0.305218
0.305209
0.305202
0.314901
0.314915
0.315202
0.314584
0.314612
0.314876
0.314271
0.314313
0.314575
0.313948
0.314002
0.314275
0.313612
0.313672
0.313962
0.31325
0.19125
0.207936
0.313322
0.313629
0.315242
0.315559
0.315246
0.315567
0.314929
0.314906
0.315206
0.315031
0.315191
0.314919
0.314947
0.315194
0.3146
0.314586
0.314865
0.314741
0.314625
0.314834
0.314473
0.314819
0.314613
0.314629
0.314866
0.314274
0.314271
0.314547
0.314428
0.314032
0.31422
0.31156
0.313105
0.314312
0.314315
0.31455
0.313946
0.313948
0.314231
0.314111
0.313842
0.313913
0.313007
0.311994
0.314001
0.313996
0.314236
0.313169
0.31345
0.313671
0.313668
0.313915
0.312892
0.313045
0.312895
0.222276
0.19181
0.262165
0.312953
0.313274
0.31486
0.315016
0.315024
0.31501
0.314819
0.315192
0.315031
0.314835
0.31502
0.315033
0.315017
0.314862
0.314259
0.314584
0.314701
0.314325
0.31334
0.314776
0.314376
0.313201
0.314454
0.314724
0.314577
0.31416
0.314848
0.314592
0.314762
0.313923
0.314015
0.314388
0.312924
0.313173
0.313292
0.312918
0.311972
0.311461
0.314425
0.313891
0.313836
0.314146
0.313907
0.314463
0.312844
0.313091
0.313194
0.312799
0.313445
0.313079
0.314121
0.313834
0.313839
0.313826
0.313829
0.31416
0.31324
0.313241
0.313117
0.313233
0.313064
0.313162
0.313824
0.313699
0.31384
0.313154
0.312769
0.313236
0.313168
0.312581
0.312867
0.315066
0.315038
0.3152
0.315072
0.315174
0.313611
0.313611
0.313906
0.313782
0.313646
0.313744
0.308138
0.306264
0.313321
0.31333
0.313585
0.31518
0.315079
0.3152
0.315037
0.315074
0.313756
0.313832
0.314071
0.216936
0.23249
0.281053
0.288843
0.233307
0.251851
0.305905
0.302615
0.313798
0.313679
0.313525
0.289775
0.294483
0.313502
0.313327
0.313499
0.315385
0.315367
0.315216
0.315216
0.315368
0.315386
0.31506
0.315097
0.315066
0.315182
0.315078
0.315119
0.314614
0.314675
0.312418
0.312502
0.312698
0.312552
0.31318
0.302769
0.313451
0.309582
0.30835
0.30864
0.309769
0.312983
0.313811
0.314943
0.311498
0.314581
0.310834
0.314917
0.314678
0.315072
0.315098
0.315046
0.314138
0.314927
0.314939
0.31379
0.313728
0.314647
0.314619
0.313739
0.31381
0.31426
0.314658
0.314716
0.314583
0.314639
0.314249
0.314738
0.314813
0.314872
0.314735
0.314793
0.31471
0.313041
0.313053
0.313023
0.312995
0.310335
0.310491
0.313755
0.314363
0.314417
0.314289
0.314344
0.313739
0.314044
0.314509
0.314564
0.314436
0.31449
0.314028
0.218676
0.312965
0.23732
0.220202
0.257071
0.23835
0.312999
0.312608
0.222144
0.312654
0.31336
0.313332
0.313822
0.314215
0.314271
0.31414
0.314196
0.313835
0.26952
0.279367
0.313181
0.273015
0.258377
0.2849
0.27462
0.313197
0.253653
0.267991
0.313113
0.306444
0.308421
0.303161
0.306053
0.313127
0.301815
0.293669
0.295292
0.211026
0.295022
0.293008
0.239387
0.309489
0.309693
0.315152
0.313268
0.313255
0.313567
0.313438
0.313376
0.313501
0.256982
0.311876
0.312225
0.315153
0.313511
0.313631
0.31374
0.219547
0.222314
0.175686
0.292623
0.292067
0.225446
0.230773
0.308571
0.309424
0.159274
0.315273
0.31528
0.315195
0.31519
0.31528
0.315274
0.314725
0.314787
0.314726
0.314509
0.314548
0.314757
0.314095
0.314469
0.314411
0.314547
0.314488
0.314121
0.311959
0.312861
0.312859
0.312023
0.294294
0.291229
0.312961
0.309886
0.310679
0.312175
0.312035
0.219047
0.315121
0.315089
0.315188
0.314874
0.31471
0.314593
0.314954
0.314974
0.315037
0.314892
0.314953
0.314932
0.314392
0.314626
0.314567
0.314706
0.314646
0.314438
0.314091
0.305209
0.31073
0.30085
0.301893
0.313497
0.311278
0.311885
0.314492
0.313431
0.314045
0.314405
0.314665
0.314686
0.314535
0.314566
0.314199
0.314391
0.314333
0.313972
0.312987
0.297721
0.294435
0.313161
0.299329
0.300549
0.293876
0.294666
0.312922
0.31132
0.310939
0.313829
0.314348
0.314374
0.314228
0.314274
0.313803
0.314104
0.314494
0.314524
0.314383
0.314409
0.313961
0.313413
0.309045
0.309814
0.308303
0.307704
0.313209
0.313895
0.314063
0.314121
0.313983
0.314044
0.313882
0.313251
0.292568
0.286019
0.299866
0.297874
0.313251
0.247162
0.249907
0.313214
0.302025
0.300475
0.243829
0.246374
0.298031
0.295082
0.315113
0.315152
0.315128
0.291431
0.307445
0.293549
0.294987
0.294608
0.307204
0.315136
0.315118
0.315163
0.315099
0.315122
0.218746
0.223943
0.221873
0.220097
0.284813
0.232319
0.230017
0.238313
0.232989
0.285808
0.238065
0.241703
0.304667
0.304107
0.292129
0.246733
0.241237
0.231232
0.233927
0.31502
0.315051
0.315089
0.314999
0.315038
0.315004
0.314523
0.314741
0.31205
0.312776
0.312842
0.312075
0.303523
0.309895
0.309356
0.310457
0.310067
0.303377
0.308125
0.307668
0.309195
0.308413
0.309153
0.299482
0.301264
0.296247
0.298592
0.308971
0.289536
0.29067
0.313001
0.314851
0.314717
0.314986
0.314891
0.313393
0.314001
0.313747
0.314624
0.314108
0.314971
0.31505
0.315005
0.314938
0.314851
0.314861
0.314739
0.314887
0.31479
0.314931
0.314985
0.31482
0.314912
0.314975
0.314937
0.314876
0.303306
0.304357
0.314003
0.295297
0.290883
0.306163
0.296191
0.284306
0.279969
0.289506
0.286177
0.313554
0.302259
0.303035
0.310831
0.309787
0.31362
0.311685
0.30853
0.307358
0.309594
0.308831
0.314525
0.312026
0.312417
0.313509
0.314002
0.314619
0.314653
0.314336
0.314212
0.314576
0.314609
0.298488
0.298272
0.313004
0.272619
0.272596
0.254627
0.270477
0.270929
0.276242
0.272182
0.271058
0.297534
0.298924
0.313122
0.272795
0.26803
0.278931
0.274225
0.258725
0.253821
0.266147
0.261084
0.312939
0.295355
0.296984
0.310844
0.310811
0.314314
0.314339
0.31381
0.31377
0.314282
0.314305
0.314456
0.314484
0.314089
0.313978
0.314418
0.314446
0.221799
0.227845
0.298151
0.30048
0.295087
0.297317
0.221868
0.249709
0.30353
0.299353
0.301106
0.302954
0.245744
0.284731
0.286048
0.279364
0.284229
0.228087
0.292061
0.294475
0.286799
0.290757
0.228284
0.308471
0.308873
0.313403
0.306271
0.307261
0.307448
0.306217
0.307307
0.313231
0.307403
0.308067
0.273447
0.217637
0.219094
0.228122
0.218496
0.274871
0.222145
0.258904
0.219698
0.261308
0.304662
0.310906
0.310579
0.311293
0.311014
0.304903
0.300561
0.30105
0.251236
0.254273
0.236151
0.24268
0.299994
0.298705
0.315255
0.315278
0.315537
0.313456
0.313339
0.313143
0.315222
0.315228
0.315174
0.315165
0.315225
0.315222
0.315383
0.315375
0.315225
0.314868
0.314807
0.314754
0.314486
0.314111
0.31405
0.311666
0.313022
0.314236
0.314178
0.313881
0.310179
0.309903
0.312
0.309971
0.310318
0.313452
0.31493
0.314951
0.314889
0.314362
0.314537
0.314854
0.314997
0.314953
0.314987
0.314746
0.313589
0.314286
0.313278
0.313986
0.313918
0.314411
0.314375
0.314386
0.314174
0.314709
0.31473
0.314631
0.313958
0.314314
0.314256
0.299793
0.298458
0.313111
0.311905
0.310596
0.310442
0.311362
0.313874
0.314197
0.314205
0.314133
0.314353
0.314364
0.314214
0.314223
0.313924
0.312522
0.301907
0.300494
0.31379
0.314195
0.314212
0.313775
0.313902
0.313962
0.21612
0.215936
0.303636
0.302482
0.313203
0.216638
0.216351
0.310739
0.310856
0.312783
0.315083
0.315082
0.215734
0.21594
0.217483
0.231278
0.234196
0.212926
0.214361
0.229051
0.226475
0.249343
0.299944
0.299375
0.303112
0.251078
0.247658
0.292767
0.315292
0.315285
0.315198
0.31504
0.315047
0.315058
0.315072
0.314962
0.314979
0.315103
0.315143
0.315121
0.314414
0.314381
0.314569
0.314707
0.31462
0.314565
0.312252
0.312586
0.310572
0.310733
0.312784
0.312367
0.309749
0.310186
0.304142
0.304215
0.306219
0.305946
0.302771
0.304416
0.304642
0.313453
0.310473
0.310898
0.313513
0.312227
0.313957
0.313744
0.314834
0.31474
0.314382
0.308588
0.307779
0.313215
0.311733
0.309641
0.315086
0.315063
0.31501
0.315014
0.314925
0.314978
0.314396
0.314898
0.314939
0.312545
0.313193
0.314725
0.306704
0.305716
0.313668
0.313879
0.314796
0.314817
0.314788
0.314645
0.314752
0.314774
0.313096
0.298343
0.298403
0.31031
0.310598
0.314291
0.314301
0.314059
0.31401
0.314271
0.314281
0.220447
0.235992
0.26272
0.26424
0.245954
0.247201
0.218464
0.302857
0.302158
0.312565
0.228396
0.226084
0.240964
0.241032
0.224251
0.244666
0.245264
0.224473
0.225108
0.314163
0.314179
0.313787
0.313835
0.314131
0.314147
0.265906
0.301839
0.302621
0.300186
0.301009
0.263392
0.307346
0.311018
0.311366
0.311199
0.311115
0.307654
0.30378
0.306969
0.306582
0.300952
0.300159
0.30195
0.219618
0.222562
0.223096
0.218169
0.296464
0.258104
0.252868
0.26247
0.259356
0.292292
0.286752
0.287274
0.301739
0.303244
0.309962
0.315142
0.315155
0.315129
0.219328
0.220078
0.24943
0.247951
0.173923
0.228518
0.22252
0.22268
0.220505
0.221655
0.230036
0.159746
0.298145
0.299846
0.315237
0.31523
0.315172
0.314229
0.314171
0.314497
0.31445
0.314597
0.31471
0.314532
0.314569
0.311829
0.312941
0.308286
0.308596
0.308549
0.308248
0.312005
0.309683
0.30952
0.293626
0.288309
0.28814
0.289335
0.289087
0.292766
0.314675
0.314785
0.314799
0.314751
0.314771
0.314638
0.313354
0.314307
0.313844
0.313672
0.314187
0.314397
0.314408
0.310684
0.310708
0.311729
0.311115
0.314179
0.314188
0.31385
0.314333
0.314343
0.314118
0.313944
0.314233
0.314242
0.308264
0.309426
0.309013
0.309705
0.309611
0.308105
0.215878
0.216207
0.217574
0.216993
0.244744
0.228558
0.227923
0.288857
0.288926
0.297133
0.29069
0.291963
0.288425
0.289365
0.296084
0.315106
0.315096
0.315099
0.315106
0.315141
0.315145
0.31516
0.315118
0.315129
0.315129
0.293102
0.300773
0.300335
0.302021
0.301371
0.293598
0.296565
0.298709
0.297812
0.299988
0.299535
0.295744
0.315129
0.315137
0.315122
0.315052
0.315011
0.315103
0.315088
0.215759
0.228866
0.218639
0.218625
0.221331
0.220717
0.246801
0.248254
0.231054
0.212889
0.212047
0.235604
0.21813
0.217512
0.217789
0.245801
0.221544
0.216404
0.300344
0.301167
0.305159
0.298028
0.298281
0.297399
0.297562
0.303569
0.299136
0.299481
0.231709
0.2181
0.219275
0.217324
0.217249
0.232491
0.315033
0.315045
0.315035
0.314974
0.314993
0.315019
0.314208
0.314541
0.314337
0.314285
0.31444
0.314488
0.314335
0.31439
0.312143
0.312674
0.309147
0.309301
0.308776
0.308964
0.312823
0.310797
0.310828
0.309423
0.309489
0.312194
0.309341
0.304911
0.30435
0.303055
0.305722
0.305431
0.307926
0.304966
0.304891
0.305873
0.30535
0.307796
0.309001
0.306326
0.306613
0.305225
0.305801
0.30873
0.304718
0.297021
0.303049
0.302595
0.289021
0.28957
0.312834
0.314149
0.314054
0.312616
0.313732
0.314507
0.314294
0.309894
0.309203
0.31239
0.312551
0.313837
0.311373
0.310642
0.314671
0.314792
0.314978
0.314881
0.314511
0.31406
0.314495
0.314835
0.314875
0.314893
0.314817
0.314843
0.314762
0.314672
0.314757
0.314947
0.314916
0.314894
0.314968
0.314932
0.314965
0.314845
0.314868
0.314816
0.314866
0.294177
0.292436
0.303386
0.290727
0.292288
0.287621
0.297006
0.28266
0.281214
0.288307
0.287288
0.310307
0.305578
0.306712
0.303318
0.30441
0.310004
0.313389
0.311612
0.31213
0.307367
0.310389
0.312849
0.304796
0.303045
0.308222
0.295986
0.297148
0.293994
0.294979
0.307878
0.309398
0.301481
0.302346
0.298452
0.299899
0.309126
0.313596
0.313946
0.273207
0.255412
0.258063
0.249872
0.25251
0.272988
0.258848
0.259406
0.259399
0.265079
0.271652
0.235689
0.238134
0.240313
0.236049
0.273416
0.271792
0.245276
0.247462
0.240991
0.24331
0.27143
0.271614
0.270202
0.277833
0.275899
0.256641
0.254801
0.264535
0.263189
0.31048
0.310702
0.314074
0.314312
0.314322
0.314252
0.314261
0.313994
0.221792
0.257127
0.260472
0.233361
0.21842
0.249552
0.253136
0.233505
0.230866
0.285124
0.255899
0.256063
0.281879
0.25269
0.246836
0.256009
0.255175
0.283404
0.239391
0.236341
0.24091
0.243521
0.226406
0.228742
0.235129
0.308662
0.310814
0.310675
0.310993
0.310906
0.308767
0.306597
0.307048
0.307003
0.306128
0.306076
0.306515
0.30735
0.309955
0.309797
0.310458
0.310194
0.307622
0.21788
0.23217
0.233414
0.230462
0.231297
0.218448
0.224566
0.241768
0.244708
0.235456
0.238421
0.221026
0.221676
0.215475
0.216412
0.216589
0.215836
0.22034
0.227242
0.229306
0.219286
0.223294
0.220175
0.307549
0.307301
0.304348
0.300475
0.301607
0.217537
0.219996
0.238729
0.222242
0.219066
0.227027
0.225388
0.241034
0.218507
0.218199
0.287595
0.287912
0.315973
0.315972
0.316147
0.31597
0.315969
0.316146
0.315969
0.315969
0.316146
0.315972
0.315975
0.316148
0.315625
0.315622
0.315798
0.315618
0.315615
0.315884
0.315611
0.315606
0.31588
0.315607
0.315613
0.315881
0.315617
0.315624
0.315887
0.315629
0.315632
0.315803
0.315283
0.315275
0.315534
0.315268
0.31525
0.315524
0.315425
0.315421
0.315564
0.315411
0.315417
0.315559
0.315436
0.315442
0.315529
0.315285
0.315294
0.315462
0.314945
0.314935
0.315189
0.315097
0.315095
0.31518
0.315152
0.315149
0.315193
0.315082
0.315101
0.315227
0.314952
0.314963
0.315128
0.314612
0.314604
0.314851
0.314763
0.314763
0.314845
0.31482
0.31482
0.31486
0.314764
0.314778
0.314897
0.314631
0.314638
0.3148
0.314279
0.314276
0.314522
0.314437
0.31444
0.314521
0.314506
0.314506
0.314545
0.314463
0.314469
0.314584
0.314314
0.314314
0.314476
0.313946
0.313946
0.314194
0.314111
0.314116
0.314198
0.314191
0.314193
0.314232
0.314159
0.314157
0.314274
0.313993
0.313988
0.314152
0.31361
0.313611
0.313863
0.313866
0.313867
0.313908
0.313839
0.313832
0.313954
0.313663
0.313658
0.313824
0.313269
0.313268
0.313526
0.313498
0.313501
0.313586
0.313324
0.313321
0.31349
0.312919
0.312911
0.313085
0.312915
0.312902
0.313164
0.313071
0.312969
0.313106
0.221972
0.306885
0.307469
0.312966
0.312984
0.313244
0.312974
0.312981
0.313151
0.312574
0.312566
0.312739
0.31257
0.312553
0.312815
0.312543
0.252946
0.251994
0.285309
0.312594
0.312864
0.312611
0.312634
0.312893
0.312626
0.312634
0.312807
0.312224
0.312214
0.312388
0.311975
0.280646
0.253193
0.298391
0.312116
0.312504
0.312267
0.312286
0.31246
0.3149
0.314941
0.314941
0.314953
0.314968
0.314904
0.315199
0.315156
0.315159
0.314584
0.314623
0.314623
0.314649
0.314649
0.314592
0.314883
0.314823
0.314838
0.314272
0.314311
0.31431
0.31435
0.314352
0.314297
0.314574
0.314518
0.314537
0.31395
0.313991
0.313989
0.314042
0.314048
0.313991
0.314278
0.314222
0.314237
0.313714
0.313708
0.313666
0.313952
0.313912
0.313922
0.313152
0.313333
0.313392
0.173757
0.23951
0.239584
0.278957
0.279176
0.160324
0.313623
0.313581
0.313586
0.315225
0.315373
0.315379
0.31518
0.315179
0.315166
0.31556
0.315416
0.315411
0.315177
0.31518
0.315292
0.315289
0.315243
0.315565
0.315424
0.315428
0.314927
0.31501
0.315012
0.315031
0.315008
0.314925
0.315176
0.315091
0.315074
0.315053
0.315048
0.31501
0.315187
0.315161
0.315167
0.314937
0.315059
0.31504
0.315028
0.315028
0.314948
0.315192
0.315109
0.31511
0.314601
0.314682
0.314681
0.314705
0.314683
0.314603
0.314844
0.314763
0.314745
0.314741
0.31478
0.31478
0.314661
0.314717
0.314693
0.314852
0.314831
0.314809
0.314781
0.314735
0.314797
0.314623
0.314739
0.314726
0.314708
0.314712
0.314634
0.314869
0.31479
0.314787
0.314279
0.31436
0.314356
0.31439
0.314363
0.314283
0.314523
0.314443
0.314429
0.314428
0.314467
0.314467
0.314051
0.314335
0.314316
0.314462
0.314438
0.314183
0.314314
0.31443
0.314425
0.314393
0.314402
0.314324
0.314557
0.314479
0.314472
0.313952
0.314034
0.314029
0.314071
0.31404
0.313957
0.314202
0.314121
0.314111
0.314113
0.314153
0.314151
0.313871
0.314157
0.314099
0.314154
0.314137
0.313902
0.312938
0.311046
0.311256
0.313996
0.314116
0.31412
0.314077
0.314087
0.314007
0.314246
0.314167
0.314157
0.313175
0.311396
0.311614
0.312738
0.312768
0.313452
0.313669
0.313752
0.313798
0.313751
0.313761
0.313678
0.313926
0.313844
0.313834
0.312915
0.312243
0.312231
0.312274
0.312274
0.313025
0.31283
0.312923
0.312983
0.219863
0.311982
0.31179
0.29217
0.292167
0.19406
0.311719
0.311834
0.258447
0.313042
0.312723
0.312731
0.31307
0.312773
0.313139
0.314884
0.314895
0.314874
0.315036
0.314972
0.314952
0.314983
0.314982
0.315023
0.314989
0.314955
0.315011
0.315168
0.315164
0.315188
0.315025
0.315048
0.315053
0.314849
0.314821
0.314805
0.315018
0.315005
0.315009
0.31503
0.314989
0.314992
0.314996
0.315001
0.315023
0.314878
0.314898
0.314888
0.314302
0.314512
0.314486
0.314668
0.314642
0.314536
0.314662
0.314662
0.314701
0.314261
0.313668
0.313837
0.311706
0.311792
0.31339
0.313949
0.314031
0.314419
0.314725
0.314668
0.314687
0.314553
0.314626
0.314643
0.314802
0.314838
0.314858
0.314657
0.31467
0.314606
0.3148
0.314803
0.314744
0.313934
0.314189
0.314172
0.314297
0.314279
0.314001
0.314349
0.31435
0.314389
0.312946
0.310968
0.310904
0.311596
0.31153
0.31315
0.313246
0.311544
0.311624
0.310866
0.31085
0.312909
0.314426
0.314371
0.314388
0.314123
0.314127
0.313839
0.3145
0.3145
0.314444
0.312887
0.306957
0.306079
0.310469
0.31029
0.313063
0.313215
0.311731
0.311665
0.305806
0.304838
0.312753
0.313436
0.31265
0.312699
0.311488
0.311676
0.31314
0.314126
0.314068
0.314081
0.313835
0.314063
0.31408
0.313955
0.313974
0.313853
0.313813
0.314111
0.314117
0.314097
0.314114
0.313828
0.314198
0.314203
0.314146
0.313246
0.311777
0.311687
0.312166
0.312116
0.313246
0.313141
0.310798
0.310636
0.311588
0.31148
0.313223
0.313081
0.312263
0.31227
0.311678
0.311838
0.313152
0.313807
0.313917
0.313937
0.31382
0.31388
0.313756
0.313881
0.313872
0.313832
0.313103
0.304701
0.303956
0.30237
0.304104
0.313058
0.31323
0.312249
0.31221
0.312743
0.310854
0.310805
0.315064
0.315106
0.315109
0.315105
0.315123
0.315058
0.315189
0.315145
0.315129
0.315168
0.315152
0.315159
0.313739
0.313707
0.313622
0.313874
0.313791
0.313781
0.313783
0.313825
0.313824
0.313691
0.31381
0.313769
0.313892
0.313851
0.313705
0.30791
0.305283
0.305665
0.302763
0.303359
0.306617
0.313329
0.313416
0.313454
0.315166
0.315161
0.315177
0.315061
0.315083
0.315094
0.315127
0.315147
0.315215
0.315059
0.315125
0.315104
0.315116
0.315114
0.315072
0.31379
0.313998
0.313932
0.314078
0.314018
0.313801
0.31403
0.314032
0.314072
0.282479
0.266038
0.264544
0.273844
0.272328
0.287819
0.30555
0.301693
0.302184
0.313791
0.313749
0.313757
0.313615
0.313737
0.313798
0.313651
0.313715
0.313593
0.29066
0.276784
0.275358
0.282868
0.281932
0.293928
0.313428
0.313566
0.313609
0.31348
0.313523
0.313403
0.313543
0.313537
0.313494
0.315388
0.315308
0.315303
0.315317
0.315313
0.315391
0.315203
0.315286
0.315292
0.315241
0.315238
0.315212
0.315391
0.315312
0.315318
0.315303
0.315308
0.315387
0.3151
0.315061
0.315075
0.315136
0.315155
0.315181
0.315085
0.315099
0.315091
0.315143
0.315138
0.315114
0.310999
0.311304
0.313178
0.313453
0.312894
0.312913
0.309458
0.307666
0.307874
0.306019
0.306327
0.308541
0.309208
0.311335
0.311272
0.311434
0.311389
0.309361
0.313005
0.312272
0.312268
0.314853
0.314933
0.314967
0.314887
0.314601
0.314811
0.314763
0.314932
0.314886
0.315083
0.315069
0.315052
0.315076
0.315071
0.315093
0.314914
0.314899
0.314914
0.314951
0.31494
0.314927
0.312483
0.312604
0.313855
0.313669
0.312272
0.312374
0.314444
0.314501
0.314675
0.314589
0.314333
0.314389
0.314468
0.314483
0.314275
0.314677
0.314666
0.314647
0.314706
0.314686
0.314697
0.314602
0.314589
0.314569
0.314627
0.314608
0.31462
0.314237
0.314443
0.314455
0.31477
0.314785
0.314758
0.314833
0.314825
0.314806
0.314865
0.314845
0.314852
0.314754
0.314746
0.314726
0.314785
0.314766
0.314774
0.314683
0.314737
0.314754
0.311257
0.311229
0.313029
0.313067
0.311315
0.311285
0.31112
0.311184
0.313053
0.312974
0.311006
0.31106
0.314146
0.314154
0.313773
0.314381
0.314366
0.314348
0.314403
0.314384
0.314399
0.314308
0.314294
0.314276
0.31433
0.314312
0.314326
0.313732
0.314133
0.314138
0.314527
0.314513
0.314494
0.31455
0.314532
0.314546
0.314454
0.314439
0.314421
0.314476
0.314457
0.314472
0.30967
0.307258
0.312929
0.255439
0.277513
0.279204
0.265527
0.266945
0.239767
0.313032
0.310087
0.309878
0.312704
0.304414
0.303157
0.312322
0.312393
0.313382
0.313296
0.312111
0.312224
0.314081
0.314083
0.313807
0.314234
0.314222
0.314203
0.314258
0.31424
0.314252
0.314159
0.314148
0.314129
0.314185
0.314167
0.314178
0.313841
0.314073
0.314077
0.270856
0.251317
0.249991
0.262728
0.260565
0.277929
0.311102
0.310954
0.313162
0.271028
0.289468
0.290683
0.280579
0.281985
0.259718
0.280561
0.304559
0.305119
0.303311
0.303949
0.27898
0.313211
0.311362
0.311237
0.255212
0.231742
0.230529
0.248364
0.246064
0.266113
0.312238
0.312251
0.313097
0.306753
0.308913
0.308709
0.310074
0.309934
0.308191
0.308475
0.308222
0.305611
0.313139
0.312194
0.312218
0.294291
0.266392
0.263423
0.269936
0.26752
0.294875
0.295536
0.284739
0.283814
0.309401
0.303646
0.304508
0.308068
0.308253
0.309793
0.313349
0.313363
0.313273
0.313536
0.31345
0.313437
0.313418
0.313471
0.313427
0.313557
0.313514
0.31346
0.303328
0.30315
0.255243
0.311927
0.310401
0.310375
0.310512
0.310456
0.312015
0.313564
0.313643
0.3136
0.313727
0.313685
0.313581
0.313697
0.313698
0.313741
0.213672
0.207955
0.174388
0.292119
0.270465
0.265124
0.27089
0.270593
0.292008
0.309165
0.300485
0.299171
0.304271
0.30569
0.309416
0.159261
0.240571
0.25795
0.315276
0.315244
0.315241
0.315252
0.31525
0.315279
0.315182
0.315234
0.315224
0.315206
0.315203
0.315186
0.315279
0.315247
0.315251
0.315241
0.315242
0.315274
0.314764
0.314741
0.314694
0.314767
0.314758
0.314779
0.314716
0.314737
0.314746
0.314775
0.3147
0.314676
0.314374
0.314354
0.314071
0.314449
0.314428
0.314447
0.314389
0.314408
0.31443
0.314527
0.314507
0.314527
0.314466
0.314486
0.314508
0.31415
0.314416
0.314394
0.310858
0.310916
0.312886
0.312261
0.312253
0.312938
0.31053
0.311503
0.311472
0.311548
0.311528
0.310609
0.312132
0.305591
0.302446
0.305454
0.305548
0.312085
0.218191
0.281154
0.280547
0.315116
0.31514
0.315144
0.31513
0.315134
0.31511
0.315183
0.315159
0.315144
0.314847
0.314834
0.314861
0.31496
0.314981
0.314975
0.314995
0.314988
0.314967
0.315031
0.315009
0.315016
0.314912
0.314905
0.314885
0.314946
0.314926
0.314933
0.31491
0.314918
0.314939
0.314563
0.314537
0.314346
0.314606
0.314589
0.314611
0.314548
0.314568
0.314586
0.314686
0.314674
0.314695
0.314632
0.314653
0.314666
0.314486
0.314616
0.31459
0.313153
0.313423
0.31418
0.306905
0.311516
0.310727
0.312799
0.312325
0.309431