/*--------------------------------*- C++ -*----------------------------------*\
| =========                 |                                                 |
| \\      /  F ield         | OpenFOAM: The Open Source CFD Toolbox           |
|  \\    /   O peration     | Version:  5.x                                   |
|   \\  /    A nd           | Web:      www.OpenFOAM.org                      |
|    \\/     M anipulation  |                                                 |
\*---------------------------------------------------------------------------*/
FoamFile
{
    version     2.0;
    format      ascii;
    class       volScalarField;
    location    "600";
    object      Y;
}
// * * * * * * * * * * * * * * * * * * * * * * * * * * * * * * * * * * * * * //

dimensions      [0 0 0 0 0 0 0];

internalField   nonuniform List<scalar> 
6584
(
0.00632781
0.00632781
0.00632781
0.00632781
0.00632781
0.00632781
0.00632781
0.00632782
0.00632782
0.00632782
0.00632782
0.00632782
0.00632782
0.00632782
0.00632782
0.00632782
0.00632782
0.00632781
0.00632781
0.00632781
0.00632781
0.00632781
0.00632781
0.00632781
0.00632561
0.00632561
0.00632561
0.00632562
0.00632562
0.00632562
0.00632562
0.00632563
0.00632563
0.00632563
0.00632563
0.00632563
0.00632564
0.00632564
0.00632563
0.00632563
0.00632563
0.00632563
0.00632562
0.00632562
0.00632562
0.00632561
0.00632561
0.00632561
0.00632341
0.00632342
0.00632342
0.00632342
0.00632342
0.00632342
0.00632343
0.00632344
0.00632345
0.00632454
0.00632454
0.00632454
0.00632454
0.00632454
0.00632454
0.00632345
0.00632344
0.00632344
0.00632343
0.00632343
0.00632342
0.00632342
0.00632342
0.00632341
0.00632122
0.00632122
0.00632122
0.00632122
0.00632123
0.00632123
0.00632124
0.00632125
0.00632126
0.00632235
0.00632235
0.00632234
0.00632234
0.00632235
0.00632235
0.00632235
0.00632125
0.00632124
0.00632124
0.00632123
0.00632123
0.00632123
0.00632122
0.00632122
0.00631902
0.00631902
0.00631903
0.00631903
0.00631903
0.00631904
0.00631904
0.00631904
0.00632015
0.00632015
0.00632014
0.00632013
0.00632013
0.00632014
0.00632016
0.00632016
0.00632016
0.00631906
0.00631905
0.00631904
0.00631904
0.00631903
0.00631903
0.00631903
0.00631683
0.00631683
0.00631683
0.00631684
0.00631684
0.00631685
0.00631685
0.00631794
0.00631793
0.00631793
0.00631847
0.00631845
0.00631845
0.00631847
0.00631796
0.00631797
0.00631798
0.00631689
0.00631687
0.00631686
0.00631685
0.00631684
0.00631684
0.00631683
0.00631464
0.00631464
0.00631464
0.00631465
0.00631465
0.00631466
0.00631467
0.00631576
0.00631574
0.00631573
0.00631621
0.00631644
0.00631641
0.00631621
0.00631631
0.00631581
0.00631581
0.00631473
0.0063147
0.00631468
0.00631466
0.00631465
0.00631465
0.00631464
0.00631244
0.00631245
0.00631245
0.00631246
0.00631247
0.00631248
0.0063125
0.00631357
0.00631356
0.00631356
0.006314
0.0063141
0.00631422
0.00631415
0.00631367
0.00631366
0.00631258
0.00631253
0.0063125
0.00631248
0.00631247
0.00631246
0.00631245
0.00631025
0.00631026
0.00631026
0.00631027
0.00631028
0.0063103
0.00631033
0.00631141
0.0063114
0.00631143
0.00631186
0.00631195
0.00631214
0.00631207
0.00631157
0.00631153
0.00631043
0.00631036
0.00631033
0.0063103
0.00631028
0.00631027
0.00631026
0.00630806
0.00630807
0.00630808
0.00630809
0.0063081
0.00630812
0.00630816
0.00630924
0.00630926
0.00630931
0.00630978
0.00630995
0.00631023
0.00631006
0.00630949
0.00630941
0.00630828
0.0063082
0.00630815
0.00630812
0.0063081
0.00630808
0.00630807
0.00630587
0.00630588
0.00630589
0.0063059
0.00630592
0.00630594
0.00630599
0.00630708
0.00630711
0.0063072
0.00630771
0.00630796
0.00630834
0.00630805
0.00630742
0.0063073
0.00630614
0.00630604
0.00630598
0.00630594
0.00630591
0.00630589
0.00630588
0.00630368
0.00630369
0.0063037
0.00630372
0.00630374
0.00630377
0.00630382
0.00630491
0.00630497
0.00630507
0.00630561
0.0063059
0.00630637
0.00630601
0.00630532
0.00630518
0.00630399
0.00630388
0.00630381
0.00630376
0.00630372
0.0063037
0.00630368
0.00630149
0.0063015
0.00630151
0.00630153
0.00630156
0.00630159
0.00630165
0.00630274
0.00630281
0.00630292
0.00630347
0.00630376
0.00630428
0.0063039
0.0063032
0.00630304
0.00630183
0.00630171
0.00630163
0.00630157
0.00630153
0.00630151
0.00630149
0.0062993
0.00629931
0.00629932
0.00629935
0.00629937
0.00629941
0.00629947
0.00629951
0.00630063
0.00630072
0.00630125
0.00630147
0.00510068
0.00630176
0.00630174
0.00630106
0.00630089
0.00629966
0.00629953
0.00629945
0.00629938
0.00629934
0.00629931
0.00629929
0.00629711
0.00629712
0.00629714
0.00629716
0.00629719
0.00629723
0.00629728
0.0062973
0.00629841
0.0062985
0.00629904
0.00629896
0.00599934
0.00629955
0.00629895
0.00629887
0.00629756
0.00629747
0.00629733
0.00629725
0.0062972
0.00629715
0.00629711
0.00629708
0.00629492
0.00629493
0.00629495
0.00629497
0.006295
0.00629504
0.00629508
0.0062951
0.00629622
0.00629632
0.0062963
0.00629672
0.00602325
0.00629679
0.00629676
0.00629669
0.00629538
0.00629527
0.00629514
0.00629505
0.00629499
0.00629494
0.00629491
0.00629488
0.00629273
0.00629274
0.00629276
0.00629278
0.00629281
0.00629284
0.00629288
0.00629292
0.00629298
0.00629413
0.00629412
0.00628857
0.00616451
0.00629458
0.00629456
0.00629449
0.00629318
0.00629308
0.00629294
0.00629285
0.00629278
0.00629273
0.0062927
0.00629267
0.00629053
0.00629055
0.00629057
0.00629059
0.00629062
0.00629065
0.00629069
0.00629074
0.00629079
0.00629084
0.00629193
0.0062833
0.00616574
0.00629238
0.00629127
0.00629112
0.00629098
0.00629088
0.00629073
0.00629064
0.00629057
0.00629052
0.00629049
0.00629045
0.00628834
0.00628836
0.00628838
0.0062884
0.00628843
0.00628846
0.00628851
0.00628856
0.00628861
0.00628866
0.00628775
0.00612041
0.00622807
0.0062891
0.00628907
0.00628892
0.00628878
0.00628867
0.00628853
0.00628843
0.00628836
0.00628831
0.00628827
0.00628823
0.00628615
0.00628617
0.00628619
0.00628621
0.00628625
0.00628627
0.00628633
0.00628638
0.00628644
0.00628647
0.00628481
0.00611899
0.00622634
0.0062869
0.00628688
0.00628672
0.00628658
0.00628647
0.00628632
0.00628622
0.00628615
0.00628609
0.00628606
0.00628602
0.00628396
0.00628398
0.006284
0.00628403
0.00628406
0.00628409
0.00628415
0.0062842
0.00628426
0.00628429
0.00628192
0.0061175
0.00622455
0.0062847
0.00628468
0.00628452
0.00628437
0.00628426
0.00628411
0.00628401
0.00628394
0.00628388
0.00628384
0.0062838
0.00628177
0.00628179
0.00628181
0.00628184
0.00628187
0.0062819
0.00628197
0.00628202
0.00628209
0.0062821
0.00627906
0.00611595
0.00622271
0.0062825
0.00628249
0.00628233
0.00628217
0.00628205
0.0062819
0.0062818
0.00628172
0.00628166
0.00628163
0.00628158
0.00627958
0.0062796
0.00627962
0.00627965
0.00627969
0.00627972
0.00627979
0.00627984
0.00627991
0.00627991
0.00627624
0.00611435
0.00622082
0.00628031
0.0062803
0.00628013
0.00627997
0.00627985
0.00627969
0.00627959
0.00627951
0.00627945
0.00627941
0.00627936
0.00627739
0.00627741
0.00627743
0.00627746
0.0062775
0.00627754
0.00627761
0.00627767
0.00627774
0.00627773
0.00627346
0.00611272
0.00621891
0.00627811
0.00627811
0.00627794
0.00627777
0.00627764
0.00627748
0.00627737
0.00627729
0.00627723
0.00627719
0.00627714
0.0062752
0.00627522
0.00627524
0.00627527
0.00627532
0.00627535
0.00627543
0.00627549
0.00627557
0.00627554
0.00627072
0.00611105
0.00621697
0.00627592
0.00627592
0.00627574
0.00627556
0.00627543
0.00627527
0.00627516
0.00627508
0.00627501
0.00627497
0.00627492
0.00627301
0.00627303
0.00627305
0.00627309
0.00627313
0.00627317
0.00627325
0.00627332
0.0062734
0.00627335
0.00626794
0.00610939
0.00621503
0.00627373
0.00627373
0.00627355
0.00627336
0.00627323
0.00627306
0.00627295
0.00627286
0.00627279
0.00627275
0.0062727
0.00627082
0.00627084
0.00627087
0.0062709
0.00627095
0.00627099
0.00627107
0.00627115
0.00627123
0.00627116
0.00626513
0.00610777
0.00621311
0.00627154
0.00627154
0.00627136
0.00627117
0.00627103
0.00627085
0.00627074
0.00627065
0.00627058
0.00627053
0.00627049
0.00626863
0.00626865
0.00626868
0.00626872
0.00626876
0.00626881
0.0062689
0.00626897
0.00626906
0.00626897
0.00626234
0.00610612
0.00621118
0.00626936
0.00626936
0.00626917
0.00626897
0.00626882
0.00626865
0.00626853
0.00626843
0.00626836
0.00626832
0.00626827
0.00626644
0.00626646
0.00626649
0.00626653
0.00626658
0.00626663
0.00626672
0.0062668
0.0062669
0.00626678
0.00625958
0.00610446
0.00620923
0.00626717
0.00626717
0.00626698
0.00626677
0.00626662
0.00626644
0.00626631
0.00626622
0.00626615
0.0062661
0.00626605
0.00626426
0.00626428
0.00626431
0.00626435
0.0062644
0.00626445
0.00626455
0.00626463
0.00626473
0.00626459
0.00625684
0.00610278
0.00620727
0.00626498
0.00626499
0.00626479
0.00626457
0.00626442
0.00626423
0.0062641
0.006264
0.00626393
0.00626388
0.00626383
0.00626207
0.00626209
0.00626212
0.00626216
0.00626222
0.00626227
0.00626238
0.00626246
0.00626257
0.0062624
0.00625411
0.00610109
0.00620531
0.0062628
0.00626281
0.0062626
0.00626238
0.00626221
0.00626202
0.00626189
0.00626179
0.00626171
0.00626166
0.00626162
0.00625988
0.0062599
0.00625994
0.00625998
0.00626003
0.0062601
0.0062602
0.0062603
0.0062604
0.0062602
0.00625139
0.0060994
0.00620334
0.00626061
0.00626062
0.00626041
0.00626018
0.00626001
0.00625981
0.00625968
0.00625957
0.0062595
0.00625945
0.0062594
0.0062577
0.00625772
0.00625775
0.00625779
0.00625785
0.00625792
0.00625803
0.00625813
0.00625824
0.00625801
0.00624867
0.0060977
0.00620137
0.00625843
0.00625844
0.00625822
0.00625798
0.00625781
0.0062576
0.00625747
0.00625736
0.00625728
0.00625723
0.00625718
0.00625551
0.00625553
0.00625557
0.00625561
0.00625567
0.00625575
0.00625586
0.00625596
0.00625607
0.00625581
0.00624595
0.006096
0.0061994
0.00625624
0.00625625
0.00625603
0.00625578
0.0062556
0.0062554
0.00625525
0.00625514
0.00625506
0.00625501
0.00625496
0.00625332
0.00625335
0.00625338
0.00625343
0.00625349
0.00625357
0.00625369
0.00625379
0.00625391
0.00625361
0.00624322
0.0060943
0.00619742
0.00625406
0.00625407
0.00625384
0.00625359
0.0062534
0.00625319
0.00625304
0.00625293
0.00625284
0.00625279
0.00625274
0.00625114
0.00625116
0.0062512
0.00625125
0.00625132
0.0062514
0.00625152
0.00625163
0.00625174
0.00625141
0.00624047
0.00609262
0.00619545
0.00625187
0.00625189
0.00625165
0.00625139
0.0062512
0.00625098
0.00625083
0.00625071
0.00625063
0.00625057
0.00625052
0.00631221
0.00631236
0.00631417
0.0063102
0.00631046
0.00631212
0.00630821
0.00630859
0.00631023
0.00630617
0.00630664
0.00630835
0.00630404
0.00630457
0.00630639
0.00630175
0.00493167
0.00504171
0.00630237
0.0063043
0.00631438
0.00631641
0.00631444
0.00631647
0.00631239
0.00631225
0.00631415
0.00631308
0.00631409
0.00631238
0.00631255
0.00631411
0.0063103
0.00631021
0.00631199
0.00631119
0.00630916
0.00631155
0.00630705
0.0063114
0.00631046
0.00631055
0.00631204
0.00630822
0.00630821
0.00630996
0.0063092
0.0063014
0.00630316
0.00626309
0.00628619
0.00630858
0.00630857
0.00631005
0.00630614
0.00630616
0.00630796
0.0063072
0.00630217
0.00630163
0.00629498
0.006275
0.00630663
0.00630655
0.00630807
0.00630324
0.00630352
0.00630455
0.00630448
0.00630604
0.00630282
0.00630336
0.00629951
0.00530209
0.00494068
0.0057547
0.0063001
0.00630207
0.0063118
0.00631295
0.006313
0.0063129
0.00631103
0.00631407
0.00631304
0.00631157
0.00631302
0.0063131
0.006313
0.00631193
0.00630369
0.00630856
0.00631094
0.00630295
0.0062843
0.00631044
0.00630391
0.00628766
0.00630683
0.00631117
0.00630892
0.00630363
0.0063118
0.00630908
0.0063114
0.00630155
0.00630137
0.00630896
0.00627952
0.00628721
0.00628349
0.00627918
0.0062742
0.00626176
0.0063093
0.0063013
0.00630236
0.00630352
0.00630145
0.00630953
0.00628329
0.00629004
0.00628779
0.00628216
0.00630334
0.00629609
0.00630738
0.0063047
0.00630557
0.00630242
0.00630457
0.00630763
0.00629555
0.00629755
0.00629084
0.00629512
0.00630341
0.00630332
0.00630553
0.00630505
0.00630562
0.00629857
0.00629485
0.00629774
0.00629854
0.0063018
0.00630271
0.00631327
0.00631309
0.00631412
0.00631325
0.00631398
0.00630401
0.00630403
0.0063059
0.00630511
0.00630284
0.00630275
0.00624552
0.00621398
0.00630235
0.00630233
0.00630395
0.006314
0.00631327
0.00631415
0.00631313
0.00631336
0.00630271
0.00630226
0.00630694
0.00483451
0.00506362
0.00581285
0.00592743
0.00507696
0.00536279
0.00620784
0.00614958
0.00630536
0.00630496
0.00630423
0.00594159
0.00601551
0.00630411
0.00630323
0.00630348
0.00631531
0.00631518
0.00631423
0.00631425
0.0063152
0.00631531
0.00631312
0.0063135
0.00631324
0.00631403
0.00631334
0.00631364
0.0063087
0.00630966
0.00627626
0.00627745
0.00628819
0.00628588
0.00630283
0.00615057
0.00630429
0.00626915
0.00624903
0.0062525
0.0062709
0.00630317
0.00628874
0.00631241
0.00624063
0.00630461
0.00622667
0.00631217
0.00630646
0.00631322
0.00631347
0.00631283
0.00629542
0.00631237
0.00631246
0.00629238
0.00629121
0.00630859
0.00630812
0.00629563
0.0062967
0.00630435
0.00631073
0.0063111
0.00631025
0.00631061
0.00630427
0.0063107
0.00631172
0.00631209
0.00631123
0.0063116
0.00631034
0.00628323
0.00628367
0.00627943
0.00627908
0.00624585
0.00624806
0.00630019
0.00630889
0.00630923
0.00630844
0.00630878
0.00630013
0.00630266
0.00630979
0.00631014
0.00630934
0.00630968
0.00630253
0.00485592
0.00628647
0.00510836
0.00485682
0.00540807
0.00512464
0.00628741
0.00627734
0.00488252
0.00627853
0.00630127
0.00630078
0.00630344
0.00630799
0.00630833
0.00630752
0.00630787
0.00630369
0.00564342
0.00578874
0.00629295
0.00566307
0.0054289
0.00585799
0.00568991
0.00629356
0.0053927
0.00561992
0.00630346
0.00621584
0.00624891
0.00615777
0.00620916
0.00630345
0.0061352
0.00601366
0.00604085
0.00510233
0.00602426
0.00600277
0.00532281
0.00626889
0.00627101
0.00631383
0.00630183
0.00630177
0.00630375
0.00630294
0.00630211
0.00630281
0.0056668
0.00629897
0.00630101
0.00631382
0.00630248
0.00630282
0.00630485
0.00502602
0.00504765
0.00482969
0.00601061
0.00600775
0.00509327
0.00517033
0.00626017
0.00626835
0.0043571
0.00631459
0.00631464
0.00631409
0.00631408
0.00631465
0.0063146
0.00631041
0.00631148
0.00631108
0.00630733
0.00630649
0.00631065
0.00630177
0.0063094
0.00630903
0.0063099
0.00630952
0.00630201
0.00626927
0.00628266
0.00629213
0.00627695
0.00600865
0.00595256
0.0063031
0.00627283
0.00628521
0.00628662
0.00628605
0.0052369
0.00631362
0.00631339
0.00631405
0.00631192
0.00630898
0.00630719
0.00631259
0.00631273
0.00631313
0.00631222
0.0063126
0.00631245
0.0063056
0.00631042
0.00631003
0.00631095
0.00631055
0.0063063
0.00629828
0.00610028
0.00622157
0.00601985
0.00603796
0.00628702
0.00623399
0.00624751
0.00630596
0.00629102
0.00630017
0.00630633
0.00631057
0.00631072
0.00630961
0.00630983
0.00630393
0.00630891
0.00630855
0.00630137
0.00628138
0.00598268
0.00591685
0.0062814
0.00599388
0.00601481
0.00590485
0.00591575
0.00627858
0.00626307
0.00625353
0.00630073
0.0063085
0.00630864
0.00630773
0.00630813
0.00630152
0.00630317
0.00630935
0.00630954
0.00630868
0.00630883
0.00630194
0.00630262
0.00624859
0.0062609
0.00623194
0.00622424
0.00629843
0.00630569
0.00630705
0.00630741
0.00630656
0.00630693
0.00630567
0.0062966
0.00597763
0.00587582
0.00608876
0.00605706
0.00629687
0.00541854
0.0054641
0.00629821
0.00612472
0.00609867
0.00536173
0.00540483
0.00607643
0.00602318
0.00631358
0.00631383
0.00631368
0.00595141
0.00623396
0.0059898
0.00601557
0.00600932
0.0062299
0.00631372
0.00631355
0.00631389
0.00631331
0.00631362
0.00486138
0.00493721
0.00506365
0.00503736
0.00586727
0.00519029
0.00516256
0.00526703
0.00519864
0.00588194
0.00515158
0.00520656
0.00618631
0.0061765
0.00597793
0.0053776
0.00530487
0.00517805
0.00521937
0.00631275
0.00631319
0.00631345
0.00631278
0.0063131
0.00631255
0.00630745
0.00631048
0.00627054
0.00628143
0.00629143
0.0062782
0.006163
0.00626672
0.00625786
0.00627594
0.00626948
0.0061606
0.00623744
0.00622888
0.00625507
0.00624222
0.00626211
0.00609845
0.00613089
0.00603879
0.00608226
0.00625914
0.00592186
0.0059385
0.00627218
0.00631043
0.00630816
0.00631251
0.00631108
0.00628036
0.00629394
0.00628895
0.00630642
0.00629605
0.00631188
0.00631314
0.00631272
0.00631115
0.00630955
0.00631131
0.00630941
0.00631203
0.00630999
0.00631204
0.00631265
0.00631042
0.0063118
0.00631272
0.00631224
0.00631149
0.00606273
0.00608258
0.00629652
0.00588878
0.00580898
0.00611647
0.00590573
0.00569695
0.00562707
0.00578489
0.00572792
0.00628804
0.0060445
0.00605792
0.00622332
0.00619927
0.00628632
0.00624279
0.00616939
0.00614279
0.00619469
0.00617646
0.00630654
0.00625064
0.00625928
0.00629217
0.00629957
0.00631022
0.00631048
0.00630527
0.00630402
0.00630991
0.00631014
0.00600095
0.00599415
0.00628193
0.00556262
0.00556523
0.00526395
0.00552611
0.00554002
0.00563189
0.0055594
0.00554187
0.00596361
0.00598703
0.00628081
0.00551713
0.00544731
0.00561082
0.00553856
0.00531617
0.00524802
0.00542018
0.00534896
0.0062787
0.00592722
0.00595433
0.00625539
0.00625182
0.00630832
0.00630845
0.00630058
0.00630094
0.00630817
0.00630828
0.0063091
0.00630928
0.00630304
0.00630208
0.00630889
0.00630905
0.00488573
0.00496786
0.00602031
0.00606253
0.00596478
0.00600526
0.00488044
0.00529595
0.00611868
0.00605177
0.00607407
0.00610807
0.00523659
0.00577895
0.00580382
0.00568514
0.00576961
0.00495734
0.00591006
0.00595349
0.00581743
0.0058871
0.00495611
0.00623771
0.00624555
0.00630234
0.00620476
0.0062205
0.00622487
0.00620403
0.00622038
0.006299
0.00621957
0.00623113
0.00570265
0.00501835
0.00502691
0.0051396
0.00502592
0.00572359
0.00506604
0.00547966
0.00502951
0.00551727
0.00618461
0.00628318
0.00627792
0.00628935
0.00628492
0.0061891
0.00611254
0.00612113
0.00548429
0.00553285
0.00525091
0.00534383
0.00611296
0.00608868
0.0063145
0.00631464
0.00631628
0.00630321
0.00630301
0.00630214
0.00631427
0.0063143
0.00631396
0.00631391
0.0063143
0.00631428
0.0063153
0.00631525
0.0063143
0.006312
0.00631161
0.00631075
0.00630715
0.00630061
0.00629968
0.00626454
0.00628498
0.00630794
0.00630758
0.00630184
0.00624872
0.00624479
0.00627557
0.00626363
0.00626992
0.00630394
0.00631237
0.00631253
0.00631213
0.00630185
0.00630507
0.00631147
0.00631281
0.00631241
0.0063128
0.0063101
0.00628535
0.00630038
0.00628877
0.00629871
0.00629768
0.00630621
0.00630715
0.00630722
0.00630373
0.0063109
0.00631106
0.00630942
0.00630139
0.00630842
0.00630806
0.00603166
0.00600441
0.00628552
0.00627275
0.00625404
0.00625241
0.00626044
0.00630116
0.00630612
0.00630616
0.00630341
0.006307
0.00630707
0.0063062
0.00630625
0.0063016
0.0062751
0.00607355
0.00604541
0.00630256
0.00630756
0.00630765
0.00630536
0.00630604
0.00630642
0.00502448
0.00502957
0.00615323
0.00613262
0.00629831
0.0050164
0.00502001
0.00628632
0.0062888
0.00630237
0.00631334
0.00631327
0.00481871
0.0048465
0.00486266
0.00504468
0.00509155
0.00481347
0.00482937
0.00505368
0.00501234
0.00532293
0.00610295
0.00609318
0.00615866
0.00543899
0.00539056
0.005988
0.00631473
0.00631468
0.00631413
0.00631286
0.00631303
0.00631319
0.00631331
0.00631214
0.00631234
0.00631353
0.00631378
0.00631364
0.00630517
0.00630469
0.00630802
0.0063101
0.00630856
0.00630771
0.00627349
0.00627865
0.00625876
0.00626172
0.0062897
0.006283
0.00624608
0.00625276
0.00617342
0.00617464
0.00621004
0.00620517
0.00615034
0.00617757
0.00618102
0.00630404
0.00627241
0.00627919
0.00628265
0.00625582
0.00629249
0.00628814
0.00630967
0.00630794
0.00630066
0.00617642
0.00615802
0.00627708
0.00624563
0.00620099
0.00631339
0.00631323
0.00631248
0.00631236
0.00631067
0.00631158
0.00630064
0.00631113
0.00631179
0.00626208
0.0062765
0.0063098
0.00613412
0.00611156
0.00629457
0.00629774
0.00631155
0.0063117
0.00631123
0.00630955
0.00631122
0.00631138
0.00628505
0.00600138
0.00599985
0.00624607
0.00624928
0.00630661
0.00630667
0.00630278
0.00630237
0.0063065
0.00630655
0.00487659
0.00508778
0.00547015
0.00549437
0.00521287
0.00523245
0.00483272
0.00609356
0.00607881
0.00627621
0.00495521
0.00492412
0.00511313
0.00511736
0.00490937
0.00519322
0.00520227
0.00489981
0.00490655
0.00630741
0.00630748
0.00630268
0.00630411
0.00630724
0.00630733
0.00554903
0.00609706
0.00611141
0.00606694
0.00608196
0.00550919
0.00623118
0.00628634
0.00629053
0.00628938
0.00628795
0.00623627
0.0061688
0.00622285
0.00621628
0.00611956
0.00610657
0.00613695
0.00512521
0.00514614
0.00516141
0.00501451
0.00604797
0.00553767
0.00546389
0.00560471
0.00555624
0.00599112
0.00589441
0.00589949
0.00613952
0.00616637
0.00627556
0.00631374
0.00631382
0.00631361
0.00501704
0.00502081
0.00548491
0.00548067
0.00476962
0.00513681
0.00504858
0.00504842
0.00502345
0.00503816
0.00515888
0.00437633
0.00610004
0.00611194
0.00631437
0.00631433
0.00631396
0.0063024
0.00630152
0.00630723
0.00630481
0.00630756
0.00630947
0.00630661
0.00630716
0.00626724
0.00628381
0.00622918
0.00623384
0.00623425
0.00622903
0.00627616
0.006242
0.00624042
0.00599619
0.00590312
0.00590235
0.00592005
0.00591625
0.00598033
0.00630847
0.0063105
0.00631063
0.00631011
0.00631037
0.00630791
0.00628988
0.00630454
0.00629653
0.00629371
0.00630383
0.00630729
0.00630737
0.0062538
0.00625497
0.00626969
0.00625632
0.00630605
0.00630608
0.00630092
0.00630687
0.00630693
0.00630329
0.00630179
0.00630629
0.00630634
0.00623221
0.0062479
0.00624142
0.00625333
0.00625128
0.00623062
0.00503604
0.00504728
0.00501617
0.00501451
0.00537679
0.0051648
0.00515112
0.00592007
0.00592018
0.00606024
0.00595006
0.00597276
0.00590917
0.00592637
0.00604135
0.00631351
0.00631343
0.00631348
0.00631347
0.00631376
0.00631379
0.00631389
0.0063136
0.00631367
0.00631366
0.00598118
0.00612099
0.00611298
0.00614313
0.00613166
0.00598981
0.00604412
0.0060831
0.00606667
0.0061065
0.0060981
0.00602985
0.00631364
0.00631371
0.00631361
0.00631272
0.00631209
0.00631342
0.00631327
0.00481937
0.00500868
0.0048731
0.00486727
0.00505712
0.005048
0.00536139
0.00538009
0.00517503
0.0048142
0.00480339
0.00511384
0.00491323
0.00491485
0.00490107
0.00526857
0.00493889
0.0048632
0.00611096
0.00612579
0.00619487
0.00607095
0.00607527
0.00605958
0.00606269
0.00616694
0.00608911
0.00609532
0.00518609
0.0049917
0.00500745
0.00498138
0.00497989
0.00519832
0.00631298
0.00631308
0.0063129
0.00631209
0.0063125
0.00631286
0.00630145
0.00630765
0.00630403
0.00630324
0.00630522
0.00630594
0.00630358
0.00630446
0.00627186
0.0062799
0.00623964
0.00624095
0.00623574
0.00623776
0.00629068
0.0062633
0.0062644
0.00623984
0.00624181
0.00628024
0.00624076
0.00618666
0.00617682
0.00615512
0.00620105
0.00619577
0.00623392
0.00618546
0.00618415
0.00620105
0.00619208
0.0062314
0.00625176
0.00620883
0.00621401
0.00618988
0.00619978
0.00624734
0.00618193
0.00605322
0.00616127
0.00615324
0.0059113
0.00591979
0.00626847
0.0062962
0.00629437
0.00626404
0.00628731
0.00630329
0.00629906
0.006206
0.00619057
0.00625975
0.00626331
0.00629075
0.00623785
0.00622226
0.00630586
0.00630814
0.00631179
0.00630969
0.00630287
0.00629367
0.00630242
0.00631096
0.00631167
0.00631188
0.00631085
0.0063112
0.00630971
0.00630796
0.00630949
0.00631222
0.00631163
0.00631132
0.00631238
0.00631182
0.00631242
0.00631077
0.00631095
0.00631007
0.00631106
0.00586792
0.00583658
0.00605637
0.00578606
0.00581508
0.00572478
0.00592117
0.00567003
0.00564681
0.00576414
0.00574672
0.00621137
0.00610325
0.00612961
0.00604956
0.00607564
0.00620437
0.00628134
0.00624212
0.00625386
0.00614532
0.00621451
0.00626933
0.00609004
0.00604715
0.00616227
0.00588787
0.00591217
0.00584728
0.00586709
0.00615444
0.00618997
0.00600518
0.00602606
0.0059398
0.0059709
0.00618347
0.00629351
0.00629873
0.00557366
0.00530124
0.00533823
0.00522567
0.00526161
0.00557078
0.00533442
0.00535606
0.00535234
0.00543665
0.00555325
0.00503279
0.00506739
0.00509981
0.00503758
0.00558371
0.0055537
0.00516321
0.00519296
0.00510547
0.00513652
0.00554809
0.00549963
0.00547896
0.00559379
0.00556403
0.00528735
0.00526159
0.00539726
0.00537838
0.00624938
0.0062505
0.00630291
0.00630674
0.0063068
0.00630639
0.00630644
0.00630222
0.00489067
0.00538388
0.00543518
0.00504839
0.00483175
0.00526848
0.00532304
0.00502114
0.00498725
0.00578644
0.005336
0.00533872
0.0057283
0.00528602
0.00519763
0.00533794
0.00532454
0.0057548
0.00509683
0.00505742
0.00513633
0.00517548
0.00493702
0.00495824
0.00505162
0.0062412
0.00627179
0.00626935
0.00627535
0.00627363
0.00624338
0.00621013
0.00621765
0.00621741
0.00620383
0.00620377
0.00620927
0.0062191
0.00625812
0.00625532
0.00626594
0.00626191
0.006224
0.00502005
0.00516979
0.005187
0.00514379
0.00515689
0.00502336
0.0050965
0.00529637
0.00533442
0.00521406
0.00525283
0.00505311
0.00505786
0.00492125
0.00494363
0.00491405
0.00491486
0.00502913
0.00509619
0.00512603
0.00498888
0.00504249
0.00501992
0.00623276
0.00622849
0.00617886
0.00611109
0.00613097
0.00507089
0.00510848
0.00528711
0.00505839
0.00500875
0.00513411
0.00510696
0.0053197
0.0050216
0.00501972
0.00590092
0.00590492
0.00631903
0.00631902
0.00632014
0.00631901
0.00631901
0.00632013
0.00631901
0.00631901
0.00632013
0.00631903
0.00631905
0.00632015
0.00631682
0.0063168
0.00631792
0.00631678
0.00631676
0.00631846
0.00631673
0.00631671
0.00631844
0.00631671
0.00631676
0.00631845
0.00631679
0.00631683
0.00631849
0.00631686
0.00631688
0.00631796
0.00631464
0.00631459
0.00631624
0.00631455
0.00631444
0.00631618
0.00631555
0.00631553
0.00631643
0.00631548
0.00631551
0.00631641
0.00631564
0.00631568
0.00631623
0.00631469
0.00631474
0.0063158
0.00631249
0.00631243
0.00631404
0.00631346
0.00631344
0.00631399
0.00631382
0.00631379
0.00631408
0.00631341
0.00631353
0.00631432
0.00631258
0.00631265
0.00631369
0.00631037
0.00631032
0.0063119
0.00631134
0.00631134
0.00631186
0.0063117
0.0063117
0.00631195
0.00631141
0.0063115
0.00631224
0.00631056
0.00631059
0.00631161
0.00630826
0.00630824
0.0063098
0.00630926
0.00630928
0.00630979
0.0063097
0.0063097
0.00630994
0.00630952
0.00630955
0.00631028
0.00630855
0.00630854
0.00630956
0.00630613
0.00630614
0.00630772
0.00630718
0.00630722
0.00630774
0.0063077
0.00630771
0.00630796
0.00630762
0.00630759
0.00630833
0.00630653
0.00630647
0.00630751
0.00630399
0.00630401
0.00630561
0.00630564
0.00630565
0.00630591
0.00630561
0.00630553
0.0063063
0.00630444
0.00630438
0.00630543
0.00630183
0.00630183
0.00630347
0.00630346
0.00630345
0.00630398
0.00630229
0.00630224
0.00630331
0.0062996
0.00629957
0.00630067
0.00629959
0.00629953
0.0063012
0.00630063
0.00629937
0.0063002
0.00526832
0.00624156
0.00624684
0.00630011
0.00630014
0.00630179
0.00630006
0.00630008
0.00630116
0.00629741
0.00629738
0.00629847
0.0062974
0.00629733
0.00629898
0.00629728
0.00563188
0.00560994
0.00601801
0.00629786
0.00629954
0.00629787
0.00629793
0.00629956
0.00629785
0.00629788
0.00629897
0.00629521
0.00629516
0.00629627
0.00629156
0.00594637
0.00563826
0.00616365
0.0062955
0.00629729
0.00629569
0.00629573
0.00629683
0.00631221
0.00631247
0.00631247
0.0063126
0.00631269
0.0063123
0.00631415
0.00631388
0.00631389
0.00631019
0.00631044
0.00631045
0.0063107
0.00631069
0.00631034
0.00631217
0.00631179
0.00631188
0.00630821
0.00630846
0.00630846
0.00630883
0.00630885
0.00630851
0.00631022
0.00630988
0.00631
0.00630617
0.00630643
0.00630643
0.00630689
0.00630696
0.00630659
0.00630839
0.00630804
0.00630811
0.00630483
0.00630481
0.00630455
0.00630634
0.00630609
0.00630613
0.00630048
0.00630186
0.00630265
0.00476357
0.00539784
0.00540405
0.0058651
0.00586646
0.00439604
0.00630428
0.00630401
0.00630403
0.00631428
0.00631522
0.00631526
0.006314
0.00631399
0.0063139
0.00631641
0.0063155
0.00631547
0.00631399
0.00631401
0.00631473
0.00631471
0.00631442
0.00631646
0.00631556
0.00631559
0.00631238
0.00631291
0.00631292
0.00631304
0.00631289
0.00631237
0.00631396
0.00631342
0.00631332
0.00631323
0.00631318
0.00631291
0.00631406
0.0063139
0.00631394
0.00631249
0.00631326
0.00631315
0.00631306
0.00631307
0.00631256
0.0063141
0.00631358
0.00631358
0.00631031
0.00631082
0.00631081
0.00631097
0.00631082
0.00631031
0.00631185
0.00631133
0.00631122
0.00631119
0.00631144
0.00631145
0.00630963
0.00631076
0.00631054
0.00631185
0.00631169
0.00631131
0.00631076
0.00631006
0.00631114
0.00631052
0.00631125
0.00631117
0.00631104
0.00631108
0.00631059
0.00631206
0.00631157
0.00631154
0.00630825
0.00630877
0.00630874
0.00630896
0.00630879
0.00630828
0.00630981
0.0063093
0.00630921
0.0063092
0.00630945
0.00630945
0.00630148
0.00630732
0.00630721
0.00630826
0.00630805
0.00630269
0.00630858
0.00630931
0.00630929
0.00630906
0.00630912
0.00630863
0.0063101
0.00630961
0.00630956
0.00630617
0.0063067
0.00630666
0.00630694
0.00630673
0.00630621
0.00630777
0.00630725
0.0063072
0.0063072
0.00630746
0.00630745
0.00630192
0.00630745
0.00630708
0.00630642
0.00630634
0.0063017
0.00629387
0.00626928
0.00627253
0.00630657
0.00630733
0.00630737
0.00630706
0.00630713
0.00630662
0.00630813
0.00630763
0.00630757
0.00630313
0.00628731
0.00629092
0.0062976
0.00629821
0.00630368
0.00630451
0.00630504
0.00630535
0.006305
0.00630507
0.00630454
0.00630611
0.00630559
0.00630552
0.00630292
0.00630122
0.00630125
0.00630047
0.00630067
0.00630331
0.00629878
0.00629909
0.00630007
0.00525321
0.00628575
0.00628404
0.00601026
0.00601374
0.00497985
0.00629809
0.00629875
0.00569081
0.00630066
0.00630065
0.00629992
0.00630186
0.00630093
0.00630122
0.00631201
0.00631216
0.00631201
0.00631307
0.00631267
0.00631252
0.00631273
0.00631273
0.00631299
0.00631275
0.00631224
0.00631285
0.00631392
0.00631389
0.00631405
0.00631298
0.00631315
0.00631318
0.0063117
0.00631124
0.00631108
0.006313
0.00631291
0.00631295
0.00631309
0.00631283
0.00631285
0.00631286
0.0063129
0.00631304
0.00631211
0.00631224
0.00631214
0.00630428
0.00630872
0.00630848
0.00631031
0.00631005
0.00630781
0.00631069
0.00631069
0.00631094
0.0063017
0.0062886
0.0062922
0.00624897
0.00625049
0.00628514
0.00629453
0.00629618
0.00630468
0.00631117
0.00631081
0.00631093
0.00630863
0.00630983
0.00631001
0.00631136
0.00631184
0.00631198
0.00631014
0.00631025
0.0063092
0.00631164
0.00631166
0.00631129
0.00630148
0.00630657
0.00630649
0.00630711
0.00630701
0.00630136
0.00630871
0.00630871
0.00630896
0.00628017
0.00623975
0.0062381
0.00625638
0.00625485
0.00628661
0.00628275
0.00624617
0.00624755
0.00623695
0.00623623
0.00627878
0.00630931
0.00630896
0.00630906
0.00630632
0.00630629
0.00630224
0.00630976
0.00630976
0.00630942
0.00628439
0.00617412
0.00615688
0.00624143
0.0062377
0.00628921