/*--------------------------------*- C++ -*----------------------------------*\
| =========                 |                                                 |
| \\      /  F ield         | OpenFOAM: The Open Source CFD Toolbox           |
|  \\    /   O peration     | Version:  5.x                                   |
|   \\  /    A nd           | Web:      www.OpenFOAM.org                      |
|    \\/     M anipulation  |                                                 |
\*---------------------------------------------------------------------------*/
FoamFile
{
    version     2.0;
    format      ascii;
    class       volScalarField;
    location    "600";
    object      YSat;
}
// * * * * * * * * * * * * * * * * * * * * * * * * * * * * * * * * * * * * * //

dimensions      [0 0 0 0 0 0 0];

internalField   nonuniform List<scalar> 
6584
(
0.00431405
0.00431405
0.00431405
0.00431405
0.00431405
0.00431405
0.00431405
0.00431405
0.00431405
0.00431405
0.00431405
0.00431405
0.00431405
0.00431405
0.00431405
0.00431405
0.00431405
0.00431405
0.00431405
0.00431405
0.00431405
0.00431405
0.00431405
0.00431405
0.00431405
0.00431405
0.00431405
0.00431405
0.00431405
0.00431405
0.00431405
0.00431405
0.00431405
0.00431405
0.00431405
0.00431405
0.00431405
0.00431405
0.00431405
0.00431405
0.00431405
0.00431405
0.00431405
0.00431405
0.00431405
0.00431405
0.00431405
0.00431405
0.00431405
0.00431405
0.00431405
0.00431405
0.00431405
0.00431405
0.00431405
0.00431405
0.00431405
0.00431405
0.00431405
0.00431405
0.00431405
0.00431405
0.00431405
0.00431405
0.00431405
0.00431405
0.00431405
0.00431405
0.00431405
0.00431405
0.00431405
0.00431405
0.00431405
0.00431405
0.00431405
0.00431405
0.00431405
0.00431405
0.00431405
0.00431405
0.00431405
0.00431405
0.00431405
0.00431405
0.00431405
0.00431405
0.00431405
0.00431405
0.00431405
0.00431405
0.00431405
0.00431405
0.00431405
0.00431405
0.00431405
0.00431405
0.00431405
0.00431405
0.00431405
0.00431405
0.00431405
0.00431405
0.00431405
0.00431405
0.00431405
0.00431405
0.00431405
0.00431405
0.00431405
0.00431405
0.00431405
0.00431405
0.00431405
0.00431405
0.00431405
0.00431405
0.00431405
0.00431405
0.00431405
0.00431405
0.00431405
0.00431405
0.00431405
0.00431405
0.00431405
0.00431405
0.00431405
0.00431405
0.00431405
0.00431405
0.00431405
0.00431405
0.00431405
0.00431405
0.00431405
0.00431405
0.00431405
0.00431405
0.00431405
0.00431405
0.00431405
0.00431405
0.00431405
0.00431405
0.00431405
0.00431405
0.00431405
0.00431405
0.00431405
0.00431405
0.00431405
0.00431405
0.00431405
0.00431405
0.00431405
0.00431405
0.00431405
0.00431405
0.00431405
0.00431405
0.00431405
0.00431405
0.00431405
0.00431405
0.00431405
0.00431405
0.00431405
0.00431405
0.00431405
0.00431405
0.00431405
0.00431405
0.00431405
0.00431405
0.00431405
0.00431405
0.00431405
0.00431405
0.00431405
0.00431405
0.00431405
0.00431405
0.00431405
0.00431405
0.00431405
0.00431405
0.00431405
0.00431405
0.00431405
0.00431405
0.00431405
0.00431405
0.00431405
0.00431405
0.00431405
0.00431405
0.00431405
0.00431405
0.00431405
0.00431405
0.00431405
0.00431405
0.00431405
0.00431405
0.00431405
0.00431405
0.00431405
0.00431405
0.00431405
0.00431405
0.00431405
0.00431405
0.00431405
0.00431405
0.00431405
0.00431405
0.00431405
0.00431405
0.00431405
0.00431405
0.00431405
0.00431405
0.00431405
0.00431405
0.00431405
0.00431405
0.00431405
0.00431405
0.00431405
0.00431405
0.00431405
0.00431405
0.00431405
0.00431405
0.00431405
0.00431405
0.00431405
0.00431405
0.00431405
0.00431405
0.00431405
0.00431405
0.00431405
0.00431405
0.00431405
0.00431405
0.00431405
0.00431405
0.00431405
0.00431405
0.00431405
0.00431405
0.00431405
0.00431405
0.00431405
0.00431405
0.00431405
0.00431405
0.00431405
0.00431405
0.00431405
0.00431405
0.00431405
0.00431405
0.00431405
0.00431405
0.00431405
0.00431405
0.00431405
0.00431405
0.00431405
0.00431405
0.00431405
0.00431405
0.00431405
0.00431405
0.00431405
0.00431405
0.00431405
0.00431405
0.00431405
0.00431405
0.00431405
0.00431405
0.00431405
0.00431405
0.00431405
0.00431405
0.00431405
0.00431405
0.00431405
0.00431405
0.00431405
0.00431405
0.00431405
0.00431405
0.00431405
0.00431405
0.00431405
0.00431405
0.00431405
0.00431405
0.00431405
0.00431405
0.00431405
0.00431405
0.00431405
0.00431405
0.00431405
0.00431405
0.00431405
0.00431405
0.00431405
0.00431405
0.00431405
0.00431405
0.00431405
0.00431405
0.00355439
0.00431405
0.00431405
0.00431405
0.00431405
0.00431405
0.00431405
0.00431405
0.00431405
0.00431405
0.00431405
0.00431405
0.00431405
0.00431405
0.00431405
0.00431405
0.00431405
0.00431405
0.00431405
0.00431405
0.00431405
0.00431405
0.00431405
0.00431404
0.00411099
0.00431405
0.00431405
0.00431405
0.00431405
0.00431405
0.00431405
0.00431405
0.00431405
0.00431405
0.00431405
0.00431405
0.00431405
0.00431405
0.00431405
0.00431405
0.00431405
0.00431405
0.00431405
0.00431405
0.00431405
0.00431405
0.00431405
0.00431402
0.00412807
0.00431405
0.00431405
0.00431405
0.00431405
0.00431405
0.00431405
0.00431405
0.00431405
0.00431405
0.00431405
0.00431405
0.00431405
0.00431405
0.00431405
0.00431405
0.00431405
0.00431405
0.00431405
0.00431405
0.00431405
0.00431405
0.00431405
0.00431033
0.00422489
0.00431405
0.00431405
0.00431405
0.00431405
0.00431405
0.00431405
0.00431405
0.00431405
0.00431405
0.00431405
0.00431405
0.00431405
0.00431405
0.00431405
0.00431405
0.00431405
0.00431405
0.00431405
0.00431405
0.00431405
0.00431405
0.00431405
0.00430822
0.00422715
0.00431405
0.00431405
0.00431405
0.00431405
0.00431405
0.00431405
0.00431405
0.00431405
0.00431405
0.00431405
0.00431405
0.00431405
0.00431405
0.00431405
0.00431405
0.00431405
0.00431405
0.00431405
0.00431405
0.00431405
0.00431405
0.00431344
0.00419903
0.004272
0.00431404
0.00431405
0.00431405
0.00431405
0.00431405
0.00431405
0.00431405
0.00431405
0.00431405
0.00431405
0.00431405
0.00431405
0.00431405
0.00431405
0.00431405
0.00431405
0.00431405
0.00431405
0.00431405
0.00431405
0.00431404
0.00431291
0.00419957
0.00427231
0.00431404
0.00431405
0.00431405
0.00431405
0.00431405
0.00431405
0.00431405
0.00431405
0.00431405
0.00431405
0.00431405
0.00431405
0.00431405
0.00431405
0.00431405
0.00431405
0.00431405
0.00431405
0.00431405
0.00431405
0.00431404
0.00431242
0.00420005
0.00427257
0.00431403
0.00431405
0.00431405
0.00431405
0.00431405
0.00431405
0.00431405
0.00431405
0.00431405
0.00431405
0.00431405
0.00431405
0.00431405
0.00431405
0.00431405
0.00431405
0.00431405
0.00431405
0.00431405
0.00431405
0.00431403
0.00431195
0.00420049
0.00427279
0.00431403
0.00431405
0.00431405
0.00431405
0.00431405
0.00431405
0.00431405
0.00431405
0.00431405
0.00431405
0.00431405
0.00431405
0.00431405
0.00431405
0.00431405
0.00431405
0.00431405
0.00431405
0.00431405
0.00431405
0.00431402
0.0043115
0.0042009
0.00427299
0.00431402
0.00431405
0.00431405
0.00431405
0.00431405
0.00431405
0.00431405
0.00431405
0.00431405
0.00431405
0.00431405
0.00431405
0.00431405
0.00431405
0.00431405
0.00431405
0.00431405
0.00431405
0.00431405
0.00431405
0.00431401
0.00431109
0.00420127
0.00427316
0.00431402
0.00431405
0.00431405
0.00431405
0.00431405
0.00431405
0.00431405
0.00431405
0.00431405
0.00431405
0.00431405
0.00431405
0.00431405
0.00431405
0.00431405
0.00431405
0.00431405
0.00431405
0.00431405
0.00431405
0.004314
0.0043107
0.00420163
0.00427331
0.00431401
0.00431405
0.00431405
0.00431405
0.00431405
0.00431405
0.00431405
0.00431405
0.00431405
0.00431405
0.00431405
0.00431405
0.00431405
0.00431405
0.00431405
0.00431405
0.00431405
0.00431405
0.00431405
0.00431405
0.00431398
0.00431028
0.00420199
0.00427347
0.00431401
0.00431405
0.00431405
0.00431405
0.00431405
0.00431405
0.00431405
0.00431405
0.00431405
0.00431405
0.00431405
0.00431405
0.00431405
0.00431405
0.00431405
0.00431405
0.00431405
0.00431405
0.00431405
0.00431405
0.00431397
0.00430984
0.00420236
0.00427363
0.004314
0.00431405
0.00431405
0.00431405
0.00431405
0.00431405
0.00431405
0.00431405
0.00431405
0.00431405
0.00431405
0.00431405
0.00431405
0.00431405
0.00431405
0.00431405
0.00431405
0.00431405
0.00431405
0.00431405
0.00431395
0.00430942
0.00420272
0.00427378
0.004314
0.00431405
0.00431405
0.00431405
0.00431405
0.00431405
0.00431405
0.00431405
0.00431405
0.00431405
0.00431405
0.00431405
0.00431405
0.00431405
0.00431405
0.00431405
0.00431405
0.00431405
0.00431405
0.00431405
0.00431393
0.00430902
0.00420307
0.00427392
0.00431399
0.00431405
0.00431405
0.00431405
0.00431405
0.00431405
0.00431405
0.00431405
0.00431405
0.00431405
0.00431405
0.00431405
0.00431405
0.00431405
0.00431405
0.00431405
0.00431405
0.00431405
0.00431405
0.00431405
0.00431391
0.00430862
0.0042034
0.00427406
0.00431399
0.00431405
0.00431405
0.00431405
0.00431405
0.00431405
0.00431405
0.00431405
0.00431405
0.00431405
0.00431405
0.00431405
0.00431405
0.00431405
0.00431405
0.00431405
0.00431405
0.00431405
0.00431405
0.00431405
0.00431389
0.00430824
0.00420373
0.00427419
0.00431398
0.00431405
0.00431405
0.00431405
0.00431405
0.00431405
0.00431405
0.00431405
0.00431405
0.00431405
0.00431405
0.00431405
0.00431405
0.00431405
0.00431405
0.00431405
0.00431405
0.00431405
0.00431405
0.00431405
0.00431387
0.00430786
0.00420405
0.00427431
0.00431398
0.00431405
0.00431405
0.00431405
0.00431405
0.00431405
0.00431405
0.00431405
0.00431405
0.00431405
0.00431405
0.00431405
0.00431405
0.00431405
0.00431405
0.00431405
0.00431405
0.00431405
0.00431405
0.00431404
0.00431385
0.00430749
0.00420436
0.00427443
0.00431397
0.00431405
0.00431405
0.00431405
0.00431405
0.00431405
0.00431405
0.00431405
0.00431405
0.00431405
0.00431405
0.00431405
0.00431405
0.00431405
0.00431405
0.00431405
0.00431405
0.00431405
0.00431405
0.00431404
0.00431382
0.00430712
0.00420468
0.00427456
0.00431397
0.00431405
0.00431405
0.00431405
0.00431405
0.00431405
0.00431405
0.00431405
0.00431405
0.00431405
0.00431405
0.00431405
0.00431405
0.00431405
0.00431405
0.00431405
0.00431405
0.00431405
0.00431405
0.00431404
0.0043138
0.00430673
0.00420499
0.00427468
0.00431396
0.00431405
0.00431405
0.00431405
0.00431405
0.00431405
0.00431405
0.00431405
0.00431405
0.00431405
0.00431405
0.00431405
0.00431405
0.00431405
0.00431405
0.00431405
0.00431405
0.00431405
0.00431405
0.00431404
0.00431377
0.00430634
0.00420532
0.0042748
0.00431396
0.00431405
0.00431405
0.00431405
0.00431405
0.00431405
0.00431405
0.00431405
0.00431405
0.00431405
0.00431405
0.00431405
0.00431405
0.00431405
0.00431405
0.00431405
0.00431405
0.00431405
0.00431405
0.00431405
0.00431405
0.00431405
0.00431405
0.00431405
0.00431405
0.00431405
0.00431405
0.00345148
0.00352045
0.00431405
0.00431405
0.00431405
0.00431405
0.00431405
0.00431405
0.00431405
0.00431405
0.00431405
0.00431404
0.00431405
0.00431405
0.00431405
0.00431405
0.00431405
0.00431405
0.00431405
0.00431405
0.00431277
0.00431381
0.00431129
0.00431367
0.00431405
0.00431405
0.00431405
0.00431405
0.00431405
0.00431405
0.00431405
0.00430881
0.00430944
0.00428252
0.00429769
0.00431405
0.00431405
0.00431405
0.00431405
0.00431405
0.00431405
0.00431405
0.00431066
0.0043097
0.00430553
0.00429129
0.00431405
0.00431405
0.00431405
0.00431251
0.00431207
0.00431405
0.00431405
0.00431405
0.00431368
0.0043134
0.00431404
0.00366933
0.00345707
0.00395179
0.00431405
0.00431405
0.00431389
0.00431405
0.00431405
0.00431404
0.00431338
0.00431405
0.00431404
0.00431374
0.00431404
0.00431405
0.00431405
0.00431394
0.00430972
0.00431245
0.00431405
0.00430862
0.0042966
0.00431307
0.00430922
0.00429865
0.00431118
0.00431405
0.0043126
0.00430957
0.0043139
0.00431267
0.00431405
0.00430956
0.00430887
0.00431405
0.00429401
0.00429978
0.00429609
0.00429374
0.00429071
0.00428166
0.00431405
0.00430863
0.00430993
0.00430953
0.00430869
0.00431405
0.00429779
0.004303
0.00430021
0.00429694
0.0043119
0.00430633
0.00431405
0.00431221
0.0043134
0.00431001
0.00431207
0.00431405
0.00430758
0.0043096
0.00430363
0.00430719
0.00431333
0.00431265
0.00431345
0.00431372
0.00431405
0.0043112
0.00430936
0.00430984
0.00431108
0.00431381
0.00431371
0.00431405
0.00431405
0.00431405
0.00431395
0.00431405
0.00431405
0.00431405
0.00431405
0.00431405
0.00431252
0.00431183
0.004274
0.00425226
0.00431405
0.00431405
0.00431405
0.00431405
0.00431397
0.00431405
0.00431405
0.00431405
0.00431171
0.0043108
0.00431405
0.00339064
0.00351909
0.00397845
0.00405462
0.00352658
0.00369514
0.00424805
0.00420852
0.00431405
0.00431375
0.00431388
0.00406417
0.00411456
0.00431389
0.00431396
0.00431405
0.00431405
0.00431405
0.00431405
0.00431405
0.00431405
0.00431405
0.0043139
0.00431405
0.00431398
0.00431405
0.004314
0.00431405
0.00431215
0.00431277
0.00429122
0.00429199
0.00430061
0.00429899
0.00431198
0.00420893
0.00431289
0.00429054
0.00427644
0.00427852
0.00429141
0.00431355
0.00429761
0.00431397
0.00426519
0.00430845
0.00425577
0.0043139
0.00430967
0.00431396
0.00431405
0.00431372
0.00430213
0.00431398
0.004314
0.00430175
0.004301
0.00431207
0.00431179
0.00430382
0.00430451
0.00430975
0.00431401
0.00431403
0.004314
0.00431401
0.00430974
0.00431346
0.00431404
0.00431405
0.00431403
0.00431404
0.00431325
0.00429678
0.00429711
0.00429362
0.00429342
0.00427116
0.00427262
0.00430814
0.004314
0.004314
0.00431401
0.004314
0.00430814
0.00430921
0.004314
0.004314
0.004314
0.004314
0.00430916
0.00340277
0.00430021
0.0035464
0.00340471
0.0037236
0.00355561
0.00430094
0.00429333
0.00341934
0.00429422
0.0043102
0.00430982
0.00431098
0.00431401
0.00431401
0.00431402
0.00431402
0.0043112
0.00386911
0.00396264
0.00430534
0.0038822
0.0037362
0.00400845
0.00389932
0.00430585
0.00371326
0.00385422
0.0043131
0.00425325
0.00427603
0.0042138
0.00424869
0.00431301
0.00419884
0.00411417
0.00413316
0.00354519
0.00412059
0.00410663
0.00368548
0.00429071
0.00429186
0.00431403
0.00431405
0.00431405
0.00431405
0.00431405
0.00431352
0.00431344
0.00389583
0.00431266
0.00431347
0.00431404
0.00431302
0.0043126
0.00431405
0.00349345
0.00350571
0.00339292
0.00411305
0.0041117
0.00353211
0.00357718
0.00428512
0.00429045
0.00314726
0.00431405
0.00431405
0.00431405
0.00431405
0.00431405
0.00431405
0.00431337
0.00431404
0.00431403
0.00431137
0.00431033
0.00431328
0.00430882
0.00431397
0.00431397
0.00431398
0.00431397
0.0043089
0.00428662
0.0042954
0.00430346
0.00429274
0.0041151
0.0040783
0.00431359
0.00429278
0.00430161
0.0043038
0.00430401
0.00362891
0.00431405
0.00431402
0.00431405
0.00431385
0.00431188
0.00431077
0.00431404
0.00431405
0.00431405
0.00431405
0.00431405
0.00431403
0.00431077
0.004314
0.00431398
0.00431402
0.00431401
0.00431116
0.00430558
0.00417282
0.00425363
0.0041203
0.00413212
0.00429832
0.00426194
0.0042709
0.00431049
0.00430083
0.00430674
0.00431095
0.00431379
0.00431381
0.00431361
0.00431364
0.00430965
0.00431397
0.00431397
0.00430911
0.00429537
0.00409534
0.0040525
0.00429479
0.0041033
0.00411701
0.00404477
0.00405205
0.00429322
0.00428301
0.00427618
0.00430835
0.00431362
0.0043136
0.00431357
0.00431372
0.00430924
0.00430941
0.00431358
0.0043136
0.00431359
0.00431358
0.00430891
0.00431129
0.00427446
0.00428295
0.0042627
0.00425761
0.00430805
0.00431315
0.00431403
0.00431402
0.00431403
0.00431403
0.00431322
0.00430857
0.00408821
0.00402022
0.00416422
0.00414228
0.00430886
0.00372899
0.00375803
0.00431046
0.00418935
0.00417112
0.00369312
0.00372027
0.00416004
0.00412469
0.00431403
0.00431404
0.00431404
0.00407753
0.00426599
0.00410263
0.0041196
0.00411545
0.00426319
0.00431405
0.004314
0.00431405
0.00431387
0.00431404
0.00340516
0.00344753
0.00351582
0.00350013
0.0040144
0.00358956
0.00357364
0.00363496
0.00359437
0.00402416
0.00356948
0.00360175
0.00423338
0.00422673
0.00408881
0.00370201
0.00365776
0.00358171
0.00360632
0.00431377
0.00431403
0.00431404
0.00431394
0.00431402
0.00431367
0.00431141
0.0043132
0.00428744
0.0042946
0.00430294
0.00429364
0.00421717
0.0042874
0.00428124
0.00429386
0.00428933
0.00421559
0.00426716
0.00426124
0.0042793
0.00427044
0.00428557
0.00417465
0.00419643
0.00413494
0.00416383
0.00428349
0.0040583
0.00406912
0.00428649
0.00431256
0.00431115
0.00431379
0.00431296
0.00429202
0.00430165
0.00429838
0.00431
0.00430305
0.00431324
0.00431402
0.00431389
0.00431271
0.00431166
0.00431331
0.00431213
0.00431388
0.00431241
0.00431361
0.0043139
0.00431266
0.00431349
0.00431403
0.00431378
0.00431339
0.00414823
0.00416117
0.00430442
0.00403485
0.00398384
0.00418342
0.00404572
0.00391302
0.00386926
0.00396854
0.00393251
0.00429897
0.00413639
0.00414511
0.00425411
0.0042381
0.00429663
0.00426721
0.0042184
0.00420086
0.00423508
0.00422307
0.00431085
0.00427295
0.00427864
0.00430158
0.00430636
0.00431371
0.00431377
0.00431027
0.00430968
0.00431365
0.00431369
0.00410716
0.00410284
0.00429578
0.00382701
0.00382808
0.0036469
0.00380464
0.00381148
0.00386822
0.00382428
0.00381284
0.00408345
0.00409881
0.00429443
0.00380107
0.00375818
0.00385912
0.0038143
0.00367861
0.00363766
0.00374163
0.00369835
0.00429327
0.00405957
0.00407736
0.00427775
0.00427506
0.00431366
0.00431363
0.00430829
0.00430881
0.0043137
0.00431367
0.00431357
0.00431357
0.00430936
0.00430897
0.00431357
0.00431357
0.00342006
0.00346639
0.00411799
0.00414632
0.00408114
0.00410795
0.00341732
0.00365616
0.0041844
0.00413879
0.0041541
0.00417717
0.00362088
0.00396092
0.00397654
0.00390164
0.00395507
0.00346226
0.00404528
0.00407372
0.00398522
0.00403029
0.00346182
0.00426691
0.00427235
0.00431105
0.00424474
0.00425527
0.00425848
0.00424428
0.00425516
0.00430848
0.00425448
0.00426242
0.00390689
0.00349067
0.00349605
0.00356031
0.00349485
0.00392035
0.00351739
0.00376648
0.00349769
0.00378981
0.00423196
0.00429898
0.00429526
0.00430338
0.00430022
0.00423502
0.00418362
0.00418934
0.00377089
0.00380211
0.0036253
0.003682
0.00418454
0.00416823
0.00431405
0.00431405
0.00431405
0.00431405
0.00431399
0.004314
0.00431405
0.00431405
0.00431405
0.00431404
0.00431405
0.00431405
0.00431405
0.00431405
0.00431405
0.00431405
0.00431404
0.00431352
0.00431132
0.00430685
0.00430625
0.00428348
0.0042969
0.00431398
0.00431399
0.00431009
0.00427343
0.00427081
0.00429173
0.00428485
0.00428926
0.00431248
0.00431402
0.00431405
0.00431405
0.00430717
0.00430924
0.0043136
0.00431398
0.00431385
0.00431404
0.00431292
0.0042961
0.00430621
0.00429937
0.00430563
0.00430496
0.0043108
0.00431196
0.00431197
0.0043096
0.00431385
0.00431388
0.00431278
0.00430921
0.00431397
0.00431398
0.00412703
0.00410913
0.00429851
0.00428968
0.00427697
0.0042759
0.0042808
0.00430857
0.00431195
0.00431194
0.00430949
0.00431194
0.00431195
0.00431193
0.00431192
0.00430875
0.00429165
0.00415481
0.00413613
0.00431023
0.00431361
0.00431359
0.00431359
0.00431404
0.00431403
0.00349679
0.00350024
0.00420953
0.00419492
0.00431063
0.00349111
0.00349371
0.00430247
0.00430447
0.00431378
0.00431397
0.00431391
0.00338168
0.00339621
0.00340538
0.0035084
0.00353482
0.00337757
0.00338654
0.00351247
0.00348888
0.00367111
0.00417732
0.00417083
0.00421465
0.00374001
0.00370997
0.00409569
0.00431405
0.00431405
0.00431405
0.00431376
0.00431389
0.00431399
0.00431402
0.00431352
0.00431362
0.00431405
0.00431405
0.00431404
0.00430974
0.00430945
0.00431173
0.00431302
0.00431198
0.00431144
0.00428937
0.00429277
0.00428056
0.00428262
0.00430168
0.00429699
0.00427188
0.00427645
0.0042241
0.00422489
0.00424902
0.00424568
0.00420876
0.00422683
0.00422913
0.0043126
0.00429099
0.00429574
0.00429349
0.00427545
0.00430042
0.00429749
0.0043119
0.00431076
0.00430579
0.00422218
0.0042099
0.00428999
0.00426866
0.00423847
0.00431404
0.00431403
0.0043136
0.00431344
0.00431229
0.00431288
0.00430565
0.0043129
0.00431332
0.00428049
0.00429013
0.00431276
0.00419398
0.00417902
0.00430314
0.00430519
0.00431397
0.00431399
0.00431369
0.00431283
0.00431391
0.00431394
0.00429815
0.00410719
0.00410638
0.00427135
0.00427341
0.0043119
0.00431191
0.00430926
0.00430909
0.0043119
0.0043119
0.00341452
0.00353472
0.00376313
0.0037779
0.00360901
0.00362032
0.00339105
0.0041681
0.0041583
0.00429249
0.00346268
0.0034448
0.00355478
0.00355697
0.00343468
0.00359802
0.00360303
0.00343083
0.00343435
0.00431366
0.00431363
0.00431035
0.0043116
0.0043137
0.00431368
0.00381024
0.00416968
0.00417953
0.0041491
0.00415934
0.00378545
0.00426379
0.0043015
0.00430424
0.00430376
0.00430269
0.00426729
0.00422124
0.00425777
0.00425328
0.00418836
0.00417972
0.00419988
0.00355791
0.00356952
0.00357875
0.00348799
0.004137
0.00380224
0.00375558
0.00384554
0.00381414
0.00409858
0.00404049
0.00404376
0.00420225
0.00422043
0.00429513
0.00431403
0.00431403
0.00431399
0.00348818
0.00349027
0.00377277
0.003771
0.00336133
0.00355754
0.00350626
0.00350619
0.0034918
0.00350025
0.00357047
0.00315713
0.00417597
0.00418387
0.00431405
0.00431405
0.00431405
0.00430799
0.00430743
0.00431134
0.00430921
0.0043111
0.00431237
0.00431052
0.00431086
0.00428527
0.00429614
0.0042607
0.00426382
0.00426421
0.00426064
0.00429216
0.00426896
0.00426792
0.00410689
0.00404611
0.0040456
0.00405711
0.00405463
0.00409648
0.00431157
0.00431295
0.00431301
0.00431277
0.0043129
0.00431122
0.00430009
0.00430969
0.00430421
0.00430231
0.00430963
0.00431198
0.004312
0.00427674
0.00427757
0.00428756
0.00427804
0.00431198
0.00431197
0.00430844
0.00431192
0.00431193
0.00430945
0.00430885
0.00431191
0.00431191
0.00426293
0.00427355
0.00426911
0.00427732
0.00427589
0.00426189
0.00350445
0.00351136
0.00349003
0.00348954
0.00370255
0.00357575
0.00356744
0.0040571
0.00405717
0.00414926
0.00407664
0.0040915
0.00405002
0.00406119
0.00413671
0.00431401
0.00431399
0.00431402
0.00431397
0.00431403
0.00431404
0.00431405
0.00431402
0.00431403
0.00431401
0.00409698
0.00418961
0.00418423
0.00420451
0.00419679
0.00410265
0.0041384
0.00416425
0.00415332
0.00417989
0.00417426
0.00412898
0.00431402
0.00431404
0.00431403
0.00431356
0.00431317
0.00431396
0.00431389
0.00338191
0.00348797
0.00341137
0.0034083
0.00351186
0.00350642
0.00369277
0.00370407
0.00358084
0.00337772
0.00337184
0.00354758
0.00343267
0.00343348
0.00342597
0.00363855
0.00344724
0.00340488
0.00418274
0.00419268
0.0042392
0.00415613
0.00415899
0.00414861
0.00415065
0.00422025
0.00416814
0.00417229
0.00358645
0.00347373
0.00348266
0.00346813
0.0034671
0.00359372
0.00431393
0.00431396
0.00431384
0.0043134
0.00431369
0.00431389
0.00430718
0.00431151
0.00430903
0.00430853
0.00430966
0.00431011
0.00430861
0.00430917
0.0042883
0.00429359
0.00426764
0.00426849
0.00426507
0.0042664
0.00430239
0.00428373
0.00428452
0.00426757
0.00426894
0.00429506
0.00426832
0.00423308
0.00422643
0.00421194
0.00424287
0.00423926
0.00426473
0.00423197
0.00423112
0.00424242
0.0042364
0.00426298
0.004277
0.00424788
0.00425143
0.00423502
0.00424173
0.00427396
0.00422971
0.00414451
0.00421677
0.00421134
0.00405144
0.00405695
0.00428387
0.00430287
0.00430166
0.00428099
0.00429672
0.00430763
0.00430478
0.00424199
0.00423165
0.00427851
0.00428088
0.00429956
0.00426343
0.00425292
0.0043091
0.00431061
0.0043131
0.00431157
0.00430714
0.00430084
0.00430678
0.00431311
0.00431359
0.00431369
0.00431312
0.00431332
0.0043123
0.00431108
0.0043121
0.00431369
0.00431329
0.00431312
0.00431372
0.00431339
0.00431379
0.00431286
0.0043129
0.00431233
0.00431303
0.00402148
0.00400143
0.00414376
0.00396913
0.00398751
0.00393047
0.00405564
0.00389613
0.0038816
0.0039554
0.00394438
0.00424611
0.00417381
0.00419126
0.00413848
0.0041556
0.00424146
0.00429327
0.00426664
0.00427455
0.00420168
0.00424804
0.00428515
0.0041648
0.00413653
0.00421371
0.00403384
0.0040494
0.00400798
0.00402058
0.00420856
0.00423198
0.00410954
0.00412312
0.00406717
0.00408728
0.00422769
0.00430246
0.00430583
0.00383368
0.00366801
0.00369029
0.00362285
0.00364429
0.00383172
0.00368868
0.00370117
0.00369913
0.00375011
0.00381949
0.0035093
0.00352942
0.00354745
0.00351181
0.00383824
0.00382056
0.00358574
0.00360338
0.00355165
0.00356992
0.00381689
0.00379026
0.00377754
0.00384851
0.00383005
0.00366131
0.00364587
0.00372766
0.00371614
0.00427363
0.0042742
0.00430931
0.00431191
0.00431192
0.0043119
0.0043119
0.00430902
0.00342262
0.00371066
0.00374181
0.00351223
0.00339031
0.00364152
0.00367403
0.00350076
0.00348115
0.0039656
0.00368512
0.00368703
0.00392892
0.0036563
0.00360423
0.00368684
0.00367906
0.00394571
0.00354481
0.00352183
0.00356524
0.00358788
0.00345053
0.00346334
0.00351641
0.00426932
0.00429012
0.00428842
0.00429263
0.00429141
0.00427084
0.00424833
0.00425338
0.00425339
0.00424423
0.00424422
0.00424785
0.0042542
0.00428066
0.00427871
0.00428606
0.00428327
0.00425755
0.00349181
0.00357871
0.0035887
0.00356377
0.00357128
0.00349388
0.0035353
0.00365358
0.00367648
0.00360459
0.00362756
0.00351035
0.00351287
0.00343674
0.00344927
0.00343291
0.00343325
0.00349761
0.00353631
0.00355354
0.00347485
0.00350541
0.00349246
0.00426458
0.00426164
0.00422805
0.00418268
0.0041959
0.00352532
0.00354735
0.00364723
0.00351275
0.003484
0.00355722
0.00354114
0.00366713
0.00349236
0.00349165
0.00404467
0.00404727
0.00431405
0.00431405
0.00431405
0.00431405
0.00431405
0.00431405
0.00431405
0.00431405
0.00431405
0.00431405
0.00431405
0.00431405
0.00431405
0.00431405
0.00431405
0.00431405
0.00431405
0.00431405
0.00431405
0.00431405
0.00431405
0.00431405
0.00431405
0.00431405
0.00431405
0.00431405
0.00431405
0.00431405
0.00431405
0.00431405
0.00431405
0.00431405
0.00431405
0.00431405
0.00431405
0.00431405
0.00431405
0.00431405
0.00431405
0.00431405
0.00431405
0.00431405
0.00431405
0.00431405
0.00431405
0.00431405
0.00431405
0.00431405
0.00431405
0.00431405
0.00431405
0.00431405
0.00431405
0.00431405
0.00431405
0.00431405
0.00431405
0.00431405
0.00431405
0.00431405
0.00431405
0.00431405
0.00431405
0.00431405
0.00431405
0.00431405
0.00431405
0.00431405
0.00431405
0.00431405
0.00431405
0.00431405
0.00431405
0.00431405
0.00431405
0.00431405
0.00431405
0.00431405
0.00431405
0.00431405
0.00431405
0.00431405
0.00431405
0.00431405
0.00431405
0.00431404
0.00431404
0.00431405
0.00431405
0.00431405
0.00431405
0.00431405
0.00431405
0.00431405
0.00431405
0.00431405
0.00431405
0.00431405
0.00431405
0.00431405
0.00431404
0.00431404
0.00431405
0.00431405
0.00431405
0.00431405
0.00431405
0.00431405
0.00431405
0.00431405
0.00431405
0.00431405
0.00431404
0.00431404
0.00431405
0.00431405
0.00431405
0.00431405
0.00431405
0.00431405
0.00431405
0.00431405
0.00431405
0.00431405
0.00431405
0.00431405
0.00431405
0.00431405
0.00431405
0.00431405
0.00431405
0.00431405
0.00431405
0.00431405
0.00431405
0.00431405
0.00431323
0.00431322
0.00365243
0.00427263
0.00427604
0.00431405
0.00431405
0.00431405
0.00431405
0.00431405
0.00431405
0.00431405
0.00431405
0.00431405
0.00431405
0.00431405
0.00431405
0.00431403
0.00387344
0.00385817
0.00412429
0.00431405
0.00431405
0.00431405
0.00431405
0.00431405
0.00431405
0.00431405
0.00431405
0.00431405
0.00431404
0.00431405
0.00431163
0.00407814
0.00387793
0.00422358
0.004314
0.00431405
0.00431405
0.00431405
0.00431405
0.00431405
0.00431405
0.00431405
0.00431405
0.00431405
0.00431405
0.00431405
0.00431405
0.00431405
0.00431404
0.00431404
0.00431405
0.00431405
0.00431404
0.00431403
0.00431405
0.00431405
0.00431405
0.00431404
0.00431404
0.00431405
0.00431405
0.00431403
0.00431404
0.00431403
0.00431403
0.00431405
0.00431404
0.00431404
0.00431405
0.00431405
0.00431404
0.00431405
0.00431404
0.00431404
0.00431405
0.00431405
0.00431405
0.00431405
0.00431405
0.00431405
0.00431405
0.00431322
0.00431354
0.00431405
0.00335829
0.00372074
0.00372484
0.00402172
0.00402256
0.00316733
0.00431405
0.00431405
0.00431405
0.00431405
0.00431405
0.00431405
0.00431405
0.00431405
0.00431404
0.00431405
0.00431405
0.00431405
0.00431405
0.00431405
0.00431405
0.00431405
0.00431405
0.00431405
0.00431405
0.00431405
0.00431405
0.00431405
0.00431405
0.00431405
0.00431405
0.00431405
0.00431405
0.00431405
0.00431405
0.00431405
0.00431404
0.004314
0.00431405
0.00431405
0.00431405
0.00431405
0.00431405
0.00431405
0.00431405
0.00431405
0.00431405
0.00431405
0.00431405
0.00431405
0.00431405
0.00431405
0.00431405
0.00431405
0.00431405
0.00431405
0.00431405
0.00431405
0.00431405
0.00431405
0.00431405
0.00431405
0.00431301
0.00431377
0.0043137
0.00431399
0.00431397
0.00431373
0.00431325
0.00431281
0.00431353
0.00431405
0.00431405
0.00431405
0.00431405
0.00431405
0.00431405
0.00431405
0.00431405
0.00431405
0.00431405
0.00431405
0.00431405
0.00431405
0.00431405
0.00431405
0.00431405
0.00431405
0.00431405
0.00431404
0.00431404
0.00431405
0.00430879
0.00431275
0.00431276
0.00431289
0.00431283
0.0043092
0.00431405
0.00431405
0.00431405
0.00431405
0.00431405
0.00431405
0.00431405
0.00431405
0.00431405
0.00431405
0.00431405
0.00431405
0.00431405
0.00431405
0.00431405
0.00431405
0.00431405
0.00431405
0.00431404
0.00431404
0.00431405
0.00431023
0.00431399
0.004314
0.00431296
0.00431299
0.00430983
0.00430473
0.00428796
0.00429022
0.00431405
0.00431405
0.00431405
0.00431405
0.00431405
0.00431405
0.00431405
0.00431405
0.00431405
0.00431235
0.00430151
0.0043041
0.00430803
0.00430849
0.00431222
0.00431405
0.00431405
0.00431405
0.00431405
0.00431405
0.00431405
0.00431405
0.00431405
0.00431405
0.00431365
0.00431251
0.00431262
0.00431144
0.00431167
0.00431345
0.00431358
0.00431323
0.00431404
0.00363902
0.004304
0.00430343
0.00411358
0.00411652
0.00348057
0.00431282
0.0043127
0.00391104
0.00431405
0.00431396
0.004314
0.004314
0.00431396
0.00431405
0.00431395
0.00431403
0.00431401
0.00431405
0.00431405
0.00431403
0.00431405
0.00431405
0.00431405
0.00431403
0.00431372
0.00431399
0.00431405
0.00431405
0.00431405
0.00431402
0.00431404
0.00431405
0.00431379
0.00431349
0.00431342
0.00431404
0.00431403
0.00431404
0.00431405
0.00431405
0.00431405
0.00431405
0.00431405
0.00431405
0.00431403
0.00431403
0.00431399
0.00431004
0.00431305
0.00431296
0.00431362
0.00431353
0.00431202
0.00431405
0.00431404
0.00431404
0.00430781
0.00429894
0.00430133
0.00427273
0.00427372
0.00429713
0.00430287
0.00430394
0.00430971
0.00431404
0.00431404
0.00431405
0.00431244
0.00431325
0.00431333
0.00431374
0.00431401
0.00431402
0.00431338
0.00431342
0.00431271
0.00431405
0.00431405
0.00431404
0.00430943
0.0043129
0.00431293
0.00431277
0.00431278
0.00430894
0.00431405
0.00431404
0.00431404
0.00429448
0.0042671
0.00426596
0.00427876
0.00427769
0.00429933
0.00429563
0.00427092
0.00427181
0.00426516
0.00426465
0.00429343
0.00431403
0.00431403
0.00431405
0.00431263
0.00431257
0.00430981