/*--------------------------------*- C++ -*----------------------------------*\
| =========                 |                                                 |
| \\      /  F ield         | OpenFOAM: The Open Source CFD Toolbox           |
|  \\    /   O peration     | Version:  5.x                                   |
|   \\  /    A nd           | Web:      www.OpenFOAM.org                      |
|    \\/     M anipulation  |                                                 |
\*---------------------------------------------------------------------------*/
FoamFile
{
    version     2.0;
    format      ascii;
    class       volScalarField;
    location    "7200";
    object      alphat;
}
// * * * * * * * * * * * * * * * * * * * * * * * * * * * * * * * * * * * * * //

dimensions      [0 2 -1 0 0 0 0];

internalField   nonuniform List<scalar> 
6584
(
0.0824483
0.0824483
0.0824484
0.0824485
0.0824487
0.0824491
0.0824506
0.0824541
0.0824621
0.0824756
0.0824929
0.0825107
0.082521
0.0825183
0.0825054
0.0824876
0.0824713
0.0824602
0.0824537
0.0824505
0.0824488
0.0824481
0.0824477
0.0824474
0.0819969
0.0819976
0.0819977
0.0819978
0.0819982
0.0819997
0.0820033
0.0820112
0.0820264
0.0820563
0.0820858
0.0821124
0.082129
0.0821299
0.082116
0.0820847
0.0820548
0.0820311
0.0820153
0.0820062
0.0820012
0.0819986
0.0819976
0.0819963
0.0815708
0.0815711
0.0815713
0.0815712
0.081572
0.0815751
0.081582
0.0815974
0.0816322
0.0818028
0.081891
0.0819342
0.0819615
0.0819675
0.0819501
0.0817678
0.0816968
0.0816473
0.0816137
0.0815929
0.0815812
0.0815753
0.0815719
0.0815698
0.0811675
0.0811678
0.0811678
0.0811683
0.0811696
0.0811749
0.0811877
0.0812171
0.081278
0.0814538
0.0816085
0.0817193
0.0817925
0.0818018
0.0817529
0.0816483
0.0814231
0.0813209
0.081256
0.0812147
0.0811907
0.0811773
0.0811702
0.0811663
0.0807853
0.0807859
0.0807858
0.0807867
0.0807897
0.0807982
0.080821
0.0808822
0.0810582
0.081242
0.0815214
0.0817858
0.0819584
0.0819266
0.0818028
0.0815891
0.0813452
0.0810712
0.0809503
0.0808762
0.0808312
0.0808058
0.0807923
0.0807846
0.0804228
0.0804242
0.0804242
0.0804258
0.0804311
0.0804456
0.0804897
0.0806658
0.080821
0.0811608
0.0816025
0.082496
0.0833245
0.0829239
0.0822943
0.0818192
0.0813635
0.0809039
0.0807034
0.0805812
0.0805056
0.0804619
0.0804382
0.0804242
0.080079
0.0800814
0.0800822
0.0800851
0.0800934
0.0801156
0.0801774
0.0803676
0.080654
0.0812821
0.0825191
0.0861851
0.095708
0.0893699
0.0843884
0.0825123
0.0816247
0.0808572
0.080528
0.0803346
0.0802164
0.080147
0.0801086
0.0800849
0.0797524
0.0797564
0.0797583
0.0797633
0.0797753
0.079806
0.0798853
0.0801071
0.0805291
0.0815624
0.0847627
0.106913
0.086726
0.0896711
0.0840623
0.0821835
0.0809461
0.0804332
0.0801399
0.0799654
0.0798619
0.0798039
0.0797669
0.079442
0.0794478
0.0794512
0.0794588
0.0794749
0.0795137
0.0796079
0.0798648
0.0804016
0.0817954
0.087078
0.103417
0.0478694
0.0874833
0.0858937
0.0829958
0.0811502
0.0804154
0.0799964
0.0797521
0.0796067
0.0795242
0.0794701
0.0791464
0.0791539
0.079159
0.0791694
0.0791894
0.0792348
0.0793399
0.0796222
0.0802362
0.0818206
0.0882274
0.0884544
0.0393115
0.0775444
0.0866434
0.0838444
0.0814265
0.0804585
0.0798994
0.0795743
0.07938
0.0792686
0.079194
0.0788642
0.0788732
0.0788799
0.0788929
0.0789161
0.0789666
0.0790781
0.0793727
0.0800256
0.0816547
0.088102
0.0801012
0.0365812
0.0697293
0.085971
0.0844853
0.0817241
0.0805412
0.07984
0.0794282
0.0791794
0.0790353
0.0789376
0.0785942
0.0786043
0.0786125
0.0786278
0.0786536
0.0787073
0.0788212
0.0791171
0.0797809
0.0813771
0.0872668
0.0767689
0.0360918
0.0643713
0.0842472
0.0847705
0.0819985
0.0806437
0.0798091
0.0793085
0.0790022
0.0788219
0.0786992
0.0783353
0.0783461
0.0783555
0.0783726
0.0784002
0.0784554
0.0785689
0.0788593
0.0795142
0.0810438
0.0862282
0.0758862
0.0367041
0.0601683
0.0817845
0.0846222
0.0822139
0.0807497
0.0797988
0.0792105
0.0788447
0.0786259
0.0784772
0.0780864
0.0780974
0.0781077
0.0781261
0.0781549
0.0782098
0.0783188
0.078627
0.0791957
0.0806853
0.085106
0.0758538
0.00364186
0.0390268
0.056472
0.0787001
0.0839759
0.0823318
0.0808437
0.0798018
0.0791305
0.0787046
0.0784456
0.0782699
0.0778466
0.0778574
0.0778683
0.0778875
0.0779169
0.0779708
0.078074
0.0783675
0.0788752
0.0803246
0.0840047
0.0740194
0.0127591
0.0420064
0.0554728
0.0748937
0.0825772
0.0821577
0.0808763
0.0798012
0.0790613
0.0785801
0.0782794
0.0780764
0.0776153
0.0776255
0.0776367
0.0776563
0.0776858
0.0777378
0.0778354
0.0781118
0.0785768
0.0799335
0.0832976
0.0746846
0.0189133
0.0425285
0.052491
0.0707894
0.0811718
0.0817476
0.080829
0.0797908
0.0790025
0.0784669
0.0781244
0.0778945
0.0773917
0.0774012
0.0774125
0.0774321
0.0774613
0.077511
0.0776034
0.077861
0.0784114
0.0794872
0.0823548
0.0700384
0.0244711
0.0388597
0.0501928
0.0666912
0.0792761
0.0810478
0.0806609
0.0797513
0.0789479
0.078367
0.077982
0.0777243
0.0771754
0.0771841
0.0771952
0.0772146
0.0772431
0.0772903
0.0773782
0.0776172
0.0781386
0.0795132
0.0814102
0.0705639
0.0286592
0.035546
0.0503705
0.0638435
0.0756394
0.0797666
0.0802908
0.0796543
0.0788871
0.0782758
0.0778514
0.077566
0.0769659
0.0769738
0.0769847
0.0770036
0.0770313
0.0770764
0.07716
0.0773806
0.077871
0.0790985
0.079421
0.0599433
0.0318654
0.0362784
0.0479338
0.0604249
0.072129
0.0780267
0.0796652
0.0794651
0.0788062
0.0781891
0.0777316
0.0774192
0.0767629
0.07677
0.0767804
0.0767987
0.0768257
0.0768688
0.076948
0.0771513
0.0776101
0.0787041
0.0787459
0.061166
0.034156
0.035503
0.0457275
0.0574308
0.0688304
0.0759649
0.0787641
0.0791489
0.0786865
0.0780999
0.0776207
0.0772835
0.0765659
0.0765722
0.0765822
0.0765998
0.0766259
0.0766673
0.0767422
0.0769294
0.0773566
0.0783305
0.0781819
0.0623712
0.0365957
0.0352883
0.0438149
0.0547639
0.0657746
0.0737108
0.0775992
0.0786782
0.0785072
0.0779985
0.0775152
0.077158
0.0763747
0.0763802
0.0763897
0.0764066
0.0764317
0.0764714
0.0765422
0.0767146
0.077111
0.0779776
0.0777059
0.0635412
0.0391123
0.0355381
0.0422415
0.0523721
0.0629573
0.0713689
0.076205
0.0780365
0.0782476
0.0778728
0.0774101
0.077041
0.0761888
0.0761938
0.0762028
0.0762188
0.076243
0.0762809
0.0763477
0.0765066
0.0768731
0.0776443
0.0772995
0.0646586
0.0416492
0.0361693
0.0410277
0.0502326
0.0603611
0.0690144
0.0746271
0.0772197
0.0778891
0.0777091
0.0772987
0.0769299
0.0760082
0.0760126
0.076021
0.0760362
0.0760594
0.0760956
0.0761587
0.0763052
0.076643
0.07733
0.076948
0.0657088
0.0441618
0.0371097
0.0401747
0.0483412
0.0579693
0.066697
0.0729151
0.0762348
0.0774178
0.0774935
0.0771727
0.0768209
0.0758324
0.0758363
0.0758442
0.0758586
0.0758807
0.0759152
0.0759748
0.07611
0.0764207
0.0770331
0.0766398
0.0666813
0.0466146
0.0382961
0.0396688
0.0467023
0.0557697
0.0644482
0.071115
0.0750984
0.0768257
0.077213
0.0770229
0.0767093
0.0756613
0.0756647
0.0756721
0.0756857
0.0757068
0.0757397
0.0757959
0.0759207
0.0762059
0.0767525
0.0763657
0.0675662
0.0489723
0.0396706
0.0394856
0.0453237
0.0537606
0.0622917
0.0692702
0.0738351
0.0761116
0.0768565
0.0768397
0.0765892
0.0754946
0.0754976
0.0755046
0.0755173
0.0755374
0.0755687
0.0756217
0.075737
0.0759986
0.0764871
0.0761185
0.0683623
0.0512136
0.0411817
0.0395924
0.0442098
0.0519451
0.0602446
0.0674161
0.0724707
0.0752818
0.0764175
0.0766144
0.0764544
0.0753321
0.0753348
0.0753413
0.0753533
0.0753723
0.075402
0.0754521
0.0755586
0.0757984
0.0762358
0.0758926
0.0690728
0.0533301
0.0427943
0.0399558
0.0433535
0.0503175
0.0583071
0.0655715
0.0710263
0.0743412
0.0758894
0.0763376
0.0762978
0.0751736
0.0751761
0.075182
0.0751933
0.0752114
0.0752395
0.0752868
0.0753855
0.0756052
0.0759972
0.0756836
0.0697001
0.055311
0.0444728
0.0405421
0.0427485
0.0488819
0.0564874
0.0637559
0.0695252
0.0733011
0.0752699
0.0760018
0.076112
0.075019
0.0750212
0.0750267
0.0750373
0.0750543
0.0750811
0.0751257
0.0752172
0.0754184
0.0757702
0.0754882
0.0702481
0.0571495
0.0461861
0.0413177
0.0423842
0.0476425
0.0547934
0.0619861
0.0679883
0.0721748
0.0745605
0.075601
0.07589
0.074868
0.07487
0.0748751
0.074885
0.0749011
0.0749265
0.0749688
0.0750536
0.0752377
0.075554
0.0753038
0.0707221
0.0588426
0.0479074
0.0422507
0.0422459
0.0466018
0.0532327
0.0602758
0.0664342
0.0709768
0.0737647
0.0751312
0.075625
0.0747205
0.0747223
0.074727
0.0747363
0.0747514
0.0747757
0.0748156
0.0748943
0.0750627
0.0753476
0.0751284
0.0711278
0.0603906
0.0496138
0.0433112
0.0423157
0.0457596
0.0518123
0.0586369
0.0648806
0.0697216
0.0728888
0.0745901
0.0753114
0.0745764
0.074578
0.0745824
0.074591
0.0746053
0.0746284
0.0746661
0.0747391
0.0748933
0.0751503
0.0749605
0.0714713
0.0617965
0.0512861
0.0444715
0.0425741
0.0451129
0.0505386
0.0570799
0.0633416
0.0684241
0.0719403
0.0739778
0.0749443
0.0744355
0.0744369
0.074441
0.074449
0.0744626
0.0744845
0.0745201
0.0745878
0.0747291
0.0749613
0.0747988
0.0717586
0.063065
0.0529076
0.0457053
0.0429998
0.044656
0.0494162
0.0556142
0.0618305
0.0670978
0.0709284
0.0732958
0.0745204
0.0742983
0.0742996
0.0743033
0.0743108
0.0743236
0.0743444
0.074378
0.074441
0.0745704
0.0747806
0.0746433
0.0719965
0.0642045
0.054469
0.0469933
0.0435734
0.044381
0.0484492
0.0542498
0.0603606
0.0657572
0.0698638
0.0725489
0.0740387
0.074181
0.0741822
0.0741857
0.0741927
0.0742048
0.0742244
0.0742561
0.0743148
0.0744336
0.0746248
0.0745102
0.0722028
0.0652201
0.0559444
0.0482994
0.0442691
0.0442848
0.0476556
0.0530191
0.0589754
0.0644513
0.0687931
0.0717736
0.0735259
0.10543
0.0453981
0.0811808
0.0899827
0.0364607
0.043677
0.0808101
0.0337495
0.0358918
0.0770216
0.0337745
0.0336425
0.075906
0.0350763
0.0338787
0.075947
0.00551501
0.00314778
0.0375694
0.0353094
0.103998
0.0950917
0.0893778
0.0895786
0.0865813
0.106122
0.100658
0.0353002
0.0576552
0.049892
0.0863719
0.0915171
0.0880726
0.0959732
0.105212
0.0972103
0.0542928
0.0649698
0.0166996
0.0235063
0.0399334
0.0717828
0.0825517
0.088226
0.0873998
0.0946728
0.0845528
0.0448263
0.0468616
0.00982992
0.0111971
0.0367608
0.0628671
0.0690004
0.0875085
0.0830018
0.0866422
0.0784285
0.0463304
0.0451567
0.0149977
0.011878
0.0360795
0.0578216
0.0613699
0.0215378
0.0191911
0.0365831
0.0542511
0.0568518
0.0283121
0.0253524
0.0738337
0.0185761
0.00611142
0.0108143
0.0415523
0.0379712
0.0670419
0.0855545
0.109966
0.0770618
0.0571722
0.109039
0.0804204
0.024137
0.0346782
0.0532009
0.0369863
0.0271061
0.0473556
0.0530627
0.0952485
0.0456039
0.039605
0.0551422
0.0462716
0.0113376
0.0164564
0.0387292
0.0193645
0.0151446
0.0263338
0.0196368
0.0397184
0.0450035
0.0447479
0.0834706
0.0379832
0.0392791
0.0393956
0.0379528
0.0118338
0.00976721
0.0343291
0.013422
0.0147318
0.0150121
0.0134916
0.0346246
0.0400239
0.0423902
0.0394142
0.0396644
0.0189731
0.0153098
0.0335525
0.0176872
0.0213511
0.0148228
0.0174621
0.0335296
0.0453569
0.0475099
0.0427198
0.0450333
0.0249331
0.0219724
0.021704
0.0241674
0.034301
0.0504069
0.0510428
0.0478785
0.0501095
0.032773
0.0287738
0.110468
0.0886601
0.113367
0.0239995
0.0461481
0.0864932
0.0812176
0.0826689
0.0762217
0.0504547
0.0485745
0.0164655
0.0136079
0.0380787
0.0512788
0.0534618
0.0805054
0.0507089
0.0608913
0.0384535
0.0580309
0.0483079
0.0465648
0.0780015
0.0101169
0.0134229
0.0234672
0.0257297
0.0136189
0.0168314
0.0131599
0.00973814
0.0344727
0.0245207
0.0270201
0.0260606
0.02803
0.0273828
0.0300009
0.0361187
0.12039
0.115083
0.113153
0.0645769
0.110444
0.119445
0.0223729
0.0420209
0.025941
0.0484276
0.0277037
0.0444559
0.0187146
0.0197282
0.0104639
0.010526
0.0135229
0.013136
0.0202568
0.00790069
0.0206892
0.0195463
0.0168681
0.0157423
0.0182962
0.0266079
0.0250157
0.067371
0.0217926
0.0341291
0.020846
0.0643768
0.0359172
0.0557685
0.0916183
0.0463623
0.0263954
0.0281047
0.0288184
0.0416596
0.041336
0.0512954
0.050586
0.0123346
0.0125526
0.0161116
0.0297954
0.0310555
0.0285266
0.029442
0.0159971
0.0224533
0.0337321
0.0357749
0.0315328
0.0331244
0.0217467
0.0384753
0.0385338
0.0383719
0.0382544
0.00925831
0.00931866
0.0130111
0.0267785
0.0269404
0.0268048
0.0267661
0.0129956
0.014236
0.0276111
0.0282655
0.0270337
0.0274353
0.0141442
0.0102388
0.0410768
0.0142071
0.0105819
0.0178687
0.0144422
0.0413933
0.0382489
0.0106799
0.0385753
0.0173863
0.0171266
0.0159096
0.0269922
0.0268347
0.0273549
0.0270682
0.0161761
0.0205474
0.0230325
0.043716
0.0212869
0.0181703
0.0243427
0.0216643
0.0440476
0.0171961
0.0201888
0.0236727
0.0122477
0.0153469
0.00828947
0.0117301
0.0232487
0.00896299
0.028666
0.0301202
0.00645845
0.0283059
0.0281963
0.00586105
0.0221893
0.019906
0.0334897
0.0854188
0.0822117
0.0811071
0.0759116
0.056142
0.0550146
0.00712328
0.0321665
0.0329566
0.0499705
0.0524182
0.0507143
0.0761032
0.00825525
0.00898989
0.00285043
0.0295531
0.0299819
0.00977079
0.0112833
0.0210717
0.0232244
0.00131204
0.0982915
0.111117
0.0853463
0.0507715
0.0883821
0.0944353
0.0581539
0.081967
0.0779485
0.0172356
0.0147104
0.0216228
0.0454064
0.0673766
0.0661414
0.0696379
0.067883
0.0456956
0.0101019
0.0109112
0.0143092
0.0119639
0.0111605
0.00934571
0.0270279
0.0186483
0.021597
0.049286
0.050912
0.0132533
0.0957514
0.0592704
0.0865702
0.0254154
0.016516
0.0151753
0.0327164
0.0403945
0.0445396
0.0365529
0.0392943
0.0314027
0.0491896
0.0727142
0.0703295
0.0767701
0.0736291
0.0499413
0.0434491
0.0243274
0.028917
0.0217029
0.0221709
0.0402566
0.0298354
0.0312665
0.0480572
0.0116683
0.0137671
0.0173268
0.025114
0.0252916
0.0228783
0.0233169
0.015503
0.0657877
0.0649655
0.0447059
0.038251
0.0225333
0.0206306
0.038892
0.0211851
0.0215709
0.0203377
0.0203064
0.0379632
0.0106084
0.00953241
0.0132008
0.0212706
0.0213583
0.0206732
0.0214748
0.0139922
0.0146703
0.0223714
0.0227403
0.0214031
0.0215621
0.0137573
0.0182815
0.0110853
0.012395
0.0083033
0.00819406
0.016088
0.0199527
0.0278563
0.0274696
0.0284443
0.028001
0.0203037
0.0463065
0.0268926
0.0246786
0.0305914
0.0291411
0.0466133
0.0153855
0.0161377
0.0488913
0.0325217
0.0310933
0.014468
0.015167
0.0136148
0.0116097
0.0316173
0.0366314
0.0350996
0.00756917
0.0152912
0.00777837
0.00919176
0.00771519
0.0149097
0.0668048
0.0383035
0.0596263
0.0321588
0.0624116
0.0108059
0.0117015
0.00866114
0.00831392
0.0244705
0.0120241
0.0114221
0.0132494
0.0121774
0.0247589
0.0144164
0.0150049
0.0117173
0.0111524
0.0269613
0.0151718
0.0138661
0.0114626
0.0121532
0.0209703
0.0305861
0.0349258
0.0258
0.0293245
0.0199208
0.0174262
0.0212598
0.0101663
0.0108107
0.0141605
0.0120921
0.00763313
0.0141136
0.0129953
0.0155156
0.0145004
0.00772673
0.0109231
0.0101896
0.0126657
0.011347
0.0184601
0.0121653
0.0136936
0.0100411
0.0115519
0.0180767
0.00855607
0.00778092
0.0243852
0.0494537
0.0448941
0.057627
0.0511525
0.0257279
0.0371271
0.035074
0.0429704
0.0379782
0.0440992
0.0667211
0.0595493
0.03802
0.0350899
0.0201765
0.0170314
0.025968
0.0168954
0.021512
0.0246975
0.0174796
0.0205583
0.031209
0.0234516
0.0207246
0.0230457
0.0237487
0.0428631
0.0172463
0.0160211
0.0227047
0.0178353
0.015056
0.0146357
0.0157702
0.0152318
0.0405226
0.0223445
0.0228582
0.0277047
0.0260817
0.0342358
0.0291261
0.0244571
0.0234525
0.0257398
0.0247658
0.048652
0.0316571
0.0328288
0.0118235
0.0134827
0.0241918
0.0248686
0.016732
0.0156363
0.0234791
0.0239983
0.0235013
0.0229715
0.0383164
0.0174895
0.0179602
0.0136281
0.0168593
0.0181038
0.0191607
0.0179902
0.0180531
0.0207529
0.0210699
0.0387308
0.0140901
0.0137925
0.0145318
0.0141889
0.0133183
0.0132961
0.0136925
0.0134352
0.0380377
0.0203894
0.0206505
0.00987994
0.0094667
0.0212476
0.0212489
0.0131395
0.0135911
0.0214153
0.021256
0.0219551
0.0222563
0.0145564
0.0138401
0.0216308
0.0218631
0.0104769
0.0123491
0.0269483
0.028168
0.025511
0.0265428
0.0113712
0.0163736
0.0299032
0.0285865
0.0285038
0.0295535
0.0156803
0.0215327
0.0221053
0.0198813
0.0213103
0.0111381
0.0241865
0.0252268
0.0223648
0.0236939
0.0110655
0.0100071
0.0108033
0.0180631
0.00794154
0.00813484
0.00981491
0.00809546
0.00806783
0.0163117
0.00815492
0.0093302
0.0214924
0.00864567
0.00883961
0.0109526
0.00885208
0.0218448
0.00875445
0.0182463
0.00897353
0.0187302
0.0100725
0.0168622
0.0158539
0.0181862
0.0172005
0.0103758
0.00766797
0.00764692
0.0164917
0.0174408
0.0126426
0.0141643
0.0167444
0.014356
0.093143
0.0903689
0.0853774
0.0364315
0.0315271
0.0343758
0.0723952
0.0823541
0.0595929
0.0411331
0.0667737
0.0701298
0.101008
0.107801
0.0676057
0.088456
0.0834486
0.0596357
0.0168853
0.0131754
0.0129815
0.00990856
0.0110828
0.0640957
0.0638379
0.0455147
0.00894321
0.00883609
0.0118969
0.012736
0.0135778
0.0198347
0.0741786
0.0961628
0.090245
0.0415895
0.0441408
0.0592946
0.0274564
0.0244289
0.0320772
0.054572
0.0364478
0.0406443
0.0114325
0.0127787
0.0125437
0.0160557
0.0182186
0.0183468
0.015261
0.0258622
0.0263898
0.020232
0.0447335
0.0647334
0.0642343
0.0248565
0.0239972
0.0388815
0.011673
0.00919419
0.00907011
0.00971356
0.0133557
0.0164856
0.0165418
0.0148885
0.0179602
0.0180874
0.0166019
0.0166691
0.0135717
0.0376505
0.0263942
0.0253127
0.0150413
0.0209478
0.0208087
0.0227804
0.0291531
0.028605
0.00760969
0.00759839
0.0342822
0.0329911
0.049203
0.00768141
0.00763827
0.0222348
0.0245737
0.0303508
0.0254092
0.0222085
0.0100998
0.00969227
0.00986488
0.0131331
0.0137993
0.0094377
0.0095413
0.012515
0.0120027
0.0163433
0.00768028
0.00773884
0.0102209
0.016298
0.0154276
0.02723
0.090002
0.0877313
0.0527482
0.0200441
0.0231209
0.02716
0.0292009
0.01947
0.0202327
0.0366542
0.0433194
0.0350388
0.0151839
0.0148186
0.018043
0.0204485
0.0175611
0.0167985
0.0103433
0.010601
0.0106596
0.0110147
0.0138074
0.0126985
0.00928403
0.00997169
0.00794766
0.00779043
0.0107181
0.010381
0.0077256
0.00778169
0.007803
0.0200494
0.0139278
0.0150015
0.0236312
0.0225459
0.0313745
0.03013
0.0425148
0.0399372
0.03168
0.0201389
0.0197131
0.028085
0.0242989
0.01891
0.0730621
0.0691554
0.047202
0.0429685
0.0317382
0.0347235
0.0280382
0.0170639
0.0185334
0.0332194
0.0351239
0.0537268
0.0192812
0.0188305
0.0121584
0.0128248
0.0284241
0.0292118
0.0239777
0.0204526
0.0269544
0.02763
0.0387866
0.0238741
0.0235971
0.00926079
0.00937061
0.0172829
0.0173837
0.0143313
0.0140328
0.0170857
0.0171856
0.0104026
0.013891
0.0185189
0.0188867
0.0154505
0.0156825
0.0105788
0.0272897
0.0266284
0.0379479
0.0111335
0.0110748
0.011877
0.0119832
0.0108275
0.0150667
0.0152701
0.0111274
0.0114327
0.0213175
0.0211164
0.0151723
0.0167346
0.0217343
0.0215282
0.0197294
0.0302916
0.0308949
0.0291336
0.0296928
0.0192185
0.0135985
0.0184624
0.0184961
0.0196383
0.019051
0.0140676
0.00895355
0.01168
0.0111693
0.00825354
0.00753314
0.00756352
0.00761599
0.00910227
0.00929573
0.00797899
0.0290738
0.0180154
0.0167211
0.0191955
0.0183478
0.0277329
0.00959519
0.0102848
0.0141465
0.015817
0.0210538
0.0421912
0.0413338
0.0360789
0.00828065
0.00850176
0.0159991
0.0160037
0.00355176
0.0105703
0.00847751
0.00842731
0.00823804
0.00837474
0.0110223
0.00205692
0.0102137
0.0159387
0.0686724
0.0665694
0.0439933
0.013685
0.0134058
0.0170593
0.0137526
0.0161263
0.0178218
0.0152823
0.0157436
0.0100063
0.0109889
0.0083256
0.00835914
0.00889555
0.00848733
0.0119153
0.00875232
0.00869195
0.0107553
0.00812028
0.00830511
0.00771444
0.00798248
0.0102351
0.0160441
0.0194436
0.0197699
0.0186481
0.0191189
0.015617
0.0115394
0.0152989
0.0122481
0.0114957
0.0153779
0.0184757
0.0186087
0.00922311
0.00928729
0.0113201
0.00961279
0.0163777
0.0164285
0.0132734
0.017723
0.0178394
0.0147759
0.013664
0.0167451
0.0168251
0.00837375
0.010279
0.0095831
0.0108737
0.0106545
0.00830789
0.00761662
0.00770852
0.00784425
0.00774264
0.0147172
0.0109316
0.0107535
0.00878865
0.00832349
0.0128876
0.0100512
0.0111296
0.00863502
0.00916814
0.0121951
0.0273756
0.0253265
0.0289237
0.0240067
0.0323292
0.0361435
0.0404733
0.0278776
0.0306707
0.0270256
0.00799768
0.0109507
0.0105842
0.0120253
0.0114471
0.00842998
0.00753727
0.00905361
0.0083565
0.0102605
0.00982526
0.00768419
0.0448603
0.0555236
0.0494984
0.0335053
0.0305805
0.041629
0.0367164
0.0102888
0.0126216
0.0100027
0.00996228
0.00853052
0.00841032
0.0153282
0.0156548
0.0116945
0.00966584
0.00943651
0.014034
0.00952137
0.00939529
0.0094737
0.0157044
0.0110943
0.0102033
0.0089991
0.00978413
0.0122526
0.00768813
0.00752455
0.00796371
0.00777078
0.0106454
0.00791373
0.00829898
0.0116257
0.00802909
0.00811563
0.0081869
0.00802197
0.0118311
0.0246224
0.0257255
0.0220442
0.0181278
0.0209674
0.0233655
0.0128568
0.0176639
0.0144299
0.0140286
0.0144611
0.0148316
0.0137603
0.0141361
0.0102451
0.0106946
0.00860684
0.00869583
0.00841948
0.00849734
0.0140051
0.011194
0.0112921
0.00869449
0.00888482
0.0123263
0.00864124
0.00897095
0.00831423
0.00771013
0.0100798
0.00967264
0.0106307
0.00778557
0.00795077
0.00788107
0.00779861
0.0104149
0.0122902
0.00972362
0.0101329
0.00834318
0.00901659
0.0118375
0.00771201
0.0105577
0.0130745
0.0125824
0.00812632
0.00790079
0.0212438
0.0332944
0.0323191
0.0233327
0.027307
0.0368469
0.0346897
0.0212281
0.0206101
0.027787
0.0283243
0.0357737
0.0231404
0.0220861
0.0278054
0.0295171
0.0403772
0.0268673
0.0300483
0.0233313
0.0260966
0.0193239
0.0221957
0.0230352
0.0202511
0.0210408
0.0175199
0.0150777
0.0162964
0.0223021
0.019057
0.0183166
0.0217208
0.0196536
0.0232988
0.0181046
0.017542
0.0162389
0.0186935
0.0167441
0.0163376
0.0212412
0.0156223
0.0161015
0.0143404
0.0184338
0.0148953
0.0147556
0.0155648
0.0153918
0.026898
0.0196853
0.0204885
0.0185076
0.0190126
0.0264338
0.0330811
0.0262429
0.0271757
0.0213252
0.0245581
0.0313483
0.0181759
0.0166229
0.0241574
0.0168104
0.0170258
0.0163802
0.0166036
0.02385
0.0254124
0.0178332
0.0181355
0.0172647
0.0175354
0.0250858
0.0120116
0.0131662
0.0177773
0.0128332
0.0130614
0.0124139
0.0125991
0.0179031
0.0143481
0.0132013
0.0130628
0.0156083
0.0182429
0.0119205
0.0118931
0.0129311
0.0122351
0.0185726
0.0180102
0.012157
0.0122719
0.0119792
0.0120636
0.018029
0.0140045
0.0139145
0.0144304
0.0143044
0.0132424
0.0132121
0.0136071
0.0135317
0.009459
0.00941335
0.0144381
0.0174916
0.0176065
0.0169056
0.0169915
0.0139305
0.010535
0.0173754
0.0180249
0.0133421
0.0108007
0.0160625
0.0166614
0.0114087
0.0112491
0.0217195
0.0164161
0.016312
0.0205319
0.0152442
0.0140857
0.0161514
0.0158516
0.0210021
0.0118446
0.0116101
0.0141768
0.014753
0.011002
0.0120485
0.0131089
0.0103765
0.0129697
0.0126373
0.0134877
0.0132344
0.0105967
0.00796718
0.00806468
0.00913254
0.00786038
0.00793465
0.00847798
0.00829873
0.0113452
0.0110713
0.0122156
0.0117487
0.00867746
0.00863964
0.0125642
0.012787
0.0121955
0.012388
0.00872068
0.0101308
0.0143034
0.0148836
0.0131383
0.0136725
0.00933333
0.00868796
0.00910369
0.00929886
0.0092374
0.0091248
0.00910516
0.0114474
0.0119193
0.00978592
0.0106071
0.00907465
0.0125491
0.0121524
0.00966441
0.00785092
0.00766027
0.00797355
0.00845422
0.0132203
0.0093188
0.00860291
0.0104983
0.0100668
0.013754
0.00804365
0.00796178
0.00981618
0.00922705
0.0815856
0.0819489
0.0816536
0.0821137
0.0825378
0.0818965
0.082615
0.082529
0.0819637
0.0824056
0.0820983
0.0818814
0.0812011
0.081728
0.0814284
0.0821493
0.0842991
0.0822358
0.0853241
0.090842
0.0832028
0.0912411
0.087719
0.0831293
0.0867802
0.0842281
0.0823106
0.083502
0.0824481
0.0820559
0.0814113
0.0829209
0.0819584
0.0841247
0.0980566
0.0855379
0.0909782
0.102316
0.0891455
0.117699
0.110499
0.0943952
0.0959424
0.0905342
0.087824
0.0883483
0.0843721
0.0831892
0.0816998
0.0843359
0.0832973
0.0854025
0.0882244
0.0870719
0.108967
0.113507
0.112863
0.0652268
0.085217
0.0941084
0.0893261
0.0872584
0.0858812
0.081836
0.0851422
0.084612
0.087497
0.0918831
0.0912087
0.101336
0.0942262
0.0971425
0.0434736
0.058683
0.066119
0.07999
0.0878044
0.0879734
0.0817568
0.0852277
0.0852243
0.0882992
0.092656
0.0927264
0.0870409
0.0778716
0.0792675
0.0378873
0.0489228
0.0514897
0.0713896
0.085429
0.0868712
0.0815253
0.0848442
0.0851637
0.0879342
0.0913212
0.0917567
0.0794722
0.0713971
0.0718463
0.0362268
0.0451095
0.0461905
0.0655575
0.0818201
0.0837021
0.0812156
0.0842514
0.0847079
0.0765524
0.0696177
0.0697287
0.0362268
0.0432499
0.0438109
0.0611557
0.0778624
0.0798633
0.0808611
0.08357
0.0840864
0.0371687
0.0412842
0.0413676
0.0573707
0.0737815
0.0758352
0.0805075
0.0823219
0.0825796
0.0842837
0.0814031
0.0819638
0.0762396
0.0584457
0.0572394
0.0051087
0.014882
0.0189764
0.0412581
0.04871
0.0505986
0.0567995
0.0687965
0.0716606
0.080132
0.0817413
0.0820363
0.0838129
0.080765
0.0812474
0.0745744
0.0314778
0.025885
0.0172963
0.0387865
0.0417567
0.0425538
0.0457973
0.0482285
0.0538435
0.0640737
0.0664004
0.0828127
0.081176
0.081673
0.0698808
0.0439751
0.0332527
0.022467
0.02947
0.0370829
0.040747
0.0452036
0.0456025
0.100195
0.103319
0.107277
0.0473321
0.0426982
0.0390396
0.0754074
0.0655721
0.0723441
0.0808291
0.0825671
0.0916255
0.0371154
0.0317153
0.0307955
0.0381601
0.0359895
0.0421671
0.0723794
0.0730049
0.0816041
0.0338969
0.0289376
0.0289233
0.0305336
0.0298745
0.0354005
0.0698919
0.070123
0.0773101
0.03369
0.0297744
0.0309347
0.0289401
0.029054
0.0335729
0.0348597
0.0330284
0.0333741
0.0311843
0.0314467
0.0340034
0.056921
0.0565426
0.0759537
0.00381806
0.0139633
0.014345
0.00515762
0.00511721
0.00238574
0.0337345
0.0341119
0.0355592
0.11636
0.108999
0.0937263
0.0514878
0.0557419
0.0435112
0.090903
0.107411
0.117882
0.0468022
0.0486623
0.0968525
0.0949623
0.0844219
0.0928513
0.107336
0.0987646
0.0903507
0.0893385
0.0860165
0.106816
0.0951403
0.0967347
0.0909342
0.093137
0.106074
0.0373344
0.0319972
0.028524
0.0546099
0.0488002
0.0519956
0.069299
0.081112
0.0598081
0.0895225
0.0858928
0.0801007
0.0930309
0.0906695
0.0913461
0.0926348
0.0923579
0.087829
0.100099
0.0984467
0.0981487
0.0978119
0.098364
0.101483
0.0889502
0.091487
0.0992492
0.0555146
0.0642919
0.0630495
0.0739207
0.071998
0.0630245
0.0207286
0.0196721
0.0227529
0.0525692
0.0568447
0.0423969
0.0750066
0.0655876
0.0623367
0.0744842
0.0696097
0.078646
0.0921417
0.0924515
0.0882953
0.090092
0.0958737
0.0949131
0.0975624
0.0967779
0.0911335
0.0755347
0.0766308
0.0857412
0.0449664
0.0528217
0.0525783
0.0552599
0.0547291
0.0464218
0.0466287
0.0482529
0.0375346
0.0645997
0.0558668
0.0544341
0.0597186
0.0575984
0.0666245
0.0903809
0.0908571
0.0877335
0.0842447
0.0921067
0.0912734
0.0939445
0.0930016
0.084758
0.0707157
0.0710237
0.0789173
0.045691
0.0637686
0.0636908
0.0518819
0.0519229
0.0452444
0.0147115
0.0117854
0.0121763
0.0440343
0.0448039
0.0361596
0.0588832
0.0512957
0.0504966
0.0532311
0.0521996
0.0600563
0.0211082
0.0166299
0.0175356
0.0172577
0.0175055
0.0194068
0.0414855
0.0416334
0.0362965
0.0550776
0.048405
0.047754
0.0497813
0.0491345
0.0559444
0.0278786
0.0258856
0.0263738
0.022981
0.0234662
0.0257698
0.0629374
0.058862
0.0736571
0.0145744
0.0514501
0.053274
0.0304937
0.0322947
0.00799625
0.0263508
0.0310502
0.00798799
0.0407576
0.0369224
0.0376373
0.0353226
0.0369923
0.0395889
0.0692405
0.0780635
0.0759443
0.104724
0.0982059
0.0768936
0.108843
0.106413
0.109305
0.0737331
0.0581742
0.0653444
0.104619
0.098046
0.10334
0.0707776
0.0748232
0.0839903
0.0246073
0.0219687
0.021478
0.0333688
0.0320307
0.0338515
0.0479235
0.0449169
0.0495886
0.0355313
0.0382245
0.0396305
0.0315958
0.0324353
0.0291384
0.0479047
0.0564895
0.0558455
0.0618625
0.0607491
0.0518598
0.0933824
0.0844941
0.0866202
0.0448775
0.0394819
0.0403771
0.0342101
0.0343936
0.0397992
0.0411332
0.0417693
0.0468883
0.0333074
0.0320701
0.0378672
0.0189509
0.0215138
0.0218751
0.0244271
0.0299755
0.030775
0.0221571
0.0223934
0.0198467
0.040855
0.035375
0.033776
0.0448793
0.0518412
0.0518507
0.0523784
0.0522153
0.0447176
0.0824888
0.0737326
0.0745731
0.0380792
0.0329977
0.0328377
0.0348624
0.0346661
0.0391306
0.0392249
0.0338706
0.0340339
0.0327404
0.0326944
0.0379132
0.0291729
0.028971
0.0340886
0.0173659
0.0172517
0.0145842
0.0349798
0.0296953
0.0292756
0.0403909
0.0310425
0.0301589
0.0359272
0.0355208
0.0420602
0.0395256
0.0352469
0.0350633
0.0298903
0.0289816
0.039303
0.0187448
0.0167216
0.0169979
0.0126335
0.0130433
0.0156077
0.0293917
0.0296743
0.033607
0.0183043
0.0226659
0.0224158
0.0241646
0.0239013
0.0209981
0.0148814
0.017518
0.0174417
0.0221724
0.0219456
0.0168861
0.0335359
0.0291062
0.02931
0.0456772
0.0400545
0.0396589
0.042264
0.0419145
0.0472141
0.0430497
0.036748
0.0363332
0.0392567
0.0388476
0.0447067
0.0245155
0.0220032
0.0224922
0.017829
0.0187018
0.0224086
0.022058
0.0247028
0.0244315
0.029939
0.0293355
0.023123
0.0341438
0.0317235
0.0320168
0.0512424
0.0359847
0.0347016
0.0361154
0.0360865
0.0512628
0.0482312
0.042975
0.0426185
0.0309402
0.0255416
0.0264672
0.111722
0.113267
0.110166
0.0987524
0.112605
0.106812
0.116395
0.114281
0.10237
0.0435711
0.0393969
0.0422187
0.0816753
0.0891798
0.08861
0.0905075
0.0898105
0.0818806
0.0695177
0.0695497
0.0763702
0.0496576
0.0617181
0.0618967
0.0613973
0.0615508
0.0493879
0.0160637
0.0139219
0.0143898
0.0112063
0.011761
0.0140647
0.0412687
0.0412486
0.03736
0.075834
0.0689668
0.0740861
0.0409597
0.0449153
0.0545415
0.0474119
0.0573471
0.0733397
0.0462952
0.0538031
0.044726
0.0643895
0.0577106
0.0520197
0.047552
0.063733
0.0612515
0.0636734
0.0637185
0.0473064
0.0776305
0.0702684
0.0704666
0.0238403
0.019757
0.0193992
0.0217093
0.02132
0.0253874
0.0127228
0.0102736
0.0107021
0.0323301
0.0326693
0.0346592
0.025589
0.0307818
0.0301385
0.0310453
0.0309852
0.0259493
0.0263843
0.0225015
0.0221108
0.0243405
0.0240396
0.0277587
0.0284819
0.0320976
0.0315636
0.033251
0.0326602
0.0288479
0.0358296
0.0345105
0.0349294
0.120756
0.117335
0.10729
0.12011
0.11967
0.119197
0.0952885
0.115069
0.120498
0.0723653
0.0699157
0.0619045
0.114397
0.0973878
0.0982419
0.103948
0.0981464
0.11576
0.0383297
0.0333003
0.0396043
0.038107
0.0455772
0.0517128
0.0309947
0.0329395
0.0295553
0.0478729
0.0449906
0.0413344
0.0153171
0.016304
0.0206811
0.0204761
0.0187426
0.0189953
0.0191936
0.0174366
0.0178278
0.014856
0.0153006
0.017266
0.0168823
0.0207959
0.0202205
0.0219378
0.021368
0.0172376
0.0261893
0.023952
0.0244357
0.0515
0.0563618
0.0704887
0.0616534
0.0451624
0.0497607
0.0378585
0.0468481
0.0446506
0.0635527
0.0606665
0.0526035
0.0877255
0.0790222
0.0831968
0.0256874
0.0249014
0.0273726
0.0295617
0.0271413
0.0263998
0.0359775
0.0362615
0.0419869
0.0410613
0.0354756
0.0357166
0.0459162
0.046672
0.0520557
0.0499114
0.0446134
0.0452409
0.019284
0.019448
0.0162401
0.0301802
0.0275333
0.0271387
0.0284576
0.0279771
0.0306022
0.0288092
0.0261324
0.0258411
0.0267803