/*--------------------------------*- C++ -*----------------------------------*\
| =========                 |                                                 |
| \\      /  F ield         | OpenFOAM: The Open Source CFD Toolbox           |
|  \\    /   O peration     | Version:  5.x                                   |
|   \\  /    A nd           | Web:      www.OpenFOAM.org                      |
|    \\/     M anipulation  |                                                 |
\*---------------------------------------------------------------------------*/
FoamFile
{
    version     2.0;
    format      ascii;
    class       volScalarField;
    location    "7200";
    object      epsilon;
}
// * * * * * * * * * * * * * * * * * * * * * * * * * * * * * * * * * * * * * //

dimensions      [0 2 -3 0 0 0 0];

internalField   nonuniform List<scalar> 
6584
(
13.3306
13.3304
13.3306
13.3309
13.3312
13.3316
13.3326
13.3345
13.3378
13.3431
13.3498
13.3565
13.3603
13.359
13.3538
13.3469
13.3405
13.3361
13.3333
13.3318
13.3304
13.3297
13.3294
13.3291
12.225
12.2263
12.2262
12.2262
12.2267
12.2277
12.23
12.234
12.2395
12.25
12.2604
12.2703
12.2772
12.2783
12.2739
12.2627
12.2518
12.2428
12.2359
12.2316
12.2285
12.2266
12.2261
12.2241
11.2485
11.2487
11.2487
11.2478
11.2476
11.2488
11.251
11.2569
11.2675
11.6334
11.7331
11.7516
11.7636
11.7685
11.7647
11.3562
11.3057
11.2832
11.2691
11.26
11.2544
11.2514
11.2488
11.2466
10.3812
10.3809
10.3803
10.3794
10.3781
10.3785
10.3807
10.3873
10.4015
10.6638
10.7925
10.8403
10.8723
10.8851
10.8762
10.9003
10.5101
10.4476
10.419
10.4021
10.3922
10.3855
10.3812
10.3781
9.60807
9.60725
9.60588
9.6043
9.60253
9.60132
9.60255
9.61037
9.9055
9.91403
9.9974
10.0947
10.1651
10.1778
10.1571
10.1287
10.1169
9.74391
9.67662
9.64522
9.62678
9.61541
9.60845
9.60358
8.91648
8.91533
8.91307
8.91039
8.90783
8.90599
8.90892
9.17133
9.19417
9.23008
9.44261
9.72199
9.99576
9.92389
9.65785
9.53311
9.45229
9.11821
9.02536
8.97583
8.94657
8.92873
8.91789
8.91036
8.29585
8.29461
8.29175
8.28821
8.28457
8.28199
8.28507
8.477
8.552
8.64513
9.01317
10.0422
13.0347
11.0903
9.73348
9.13326
8.92786
8.57335
8.45303
8.3829
8.34068
8.31474
8.29899
8.28798
7.73721
7.73605
7.73283
7.72877
7.72446
7.72146
7.72494
7.87648
7.97232
8.14146
8.90016
16.628
36.2473
11.0488
9.0084
8.53337
8.10371
7.94939
7.85629
7.79951
7.7642
7.74267
7.72739
7.23289
7.232
7.22873
7.22458
7.22007
7.21705
7.22042
7.34827
7.4479
7.67134
8.76784
28.5567
144.478
14.8386
9.17844
8.24934
7.69689
7.50375
7.38588
7.31389
7.26862
7.24083
7.2209
6.77624
6.77568
6.77259
6.76859
6.76419
6.76143
6.76478
6.87558
6.96962
7.20753
8.40493
30.8658
166.61
19.9518
9.53436
8.04292
7.33759
7.10538
6.96291
6.87584
6.82074
6.78661
6.76187
6.36153
6.36128
6.35846
6.35483
6.35079
6.34858
6.35198
6.44955
6.53322
6.75817
7.88187
26.0411
133.152
23.5313
9.91705
7.88333
7.01375
6.74475
6.58024
6.4787
6.41435
6.37409
6.34458
5.98387
5.98398
5.98162
5.97856
5.97512
5.97358
5.97705
6.06363
6.13537
6.33708
7.3172
20.1412
102.448
25.0592
10.2362
7.75073
6.7174
6.41479
6.23101
6.11699
6.04364
5.99782
5.96397
5.63897
5.63944
5.63764
5.63525
5.63249
5.63157
5.63519
5.71272
5.77285
5.94989
6.78001
15.7306
83.2465
25.3094
10.488
7.63967
6.44564
6.11142
5.91061
5.78548
5.70432
5.65327
5.61566
5.32315
5.32389
5.32265
5.32092
5.31884
5.3184
5.32136
5.27285
5.42105
5.59108
6.26305
12.6094
280.962
67.4731
24.9768
10.7084
7.55439
6.19932
5.83309
5.61611
5.48056
5.39305
5.33676
5.29599
5.03316
5.03409
5.03338
5.03226
5.03082
5.03065
5.03239
4.99601
5.1053
5.2614
5.79498
10.9573
92.7413
64.4222
21.7186
10.939
7.01547
6.01392
5.58041
5.34367
5.19982
5.10663
5.046
5.00187
4.76622
4.76728
4.76704
4.76649
4.76559
4.76546
4.76618
4.74006
4.82516
4.96059
5.52273
9.04955
48.8306
48.2774
21.6764
11.1568
6.90404
5.84952
5.35694
5.0952
4.9398
4.84074
4.77673
4.73081
4.51993
4.52107
4.52122
4.52116
4.52071
4.52048
4.52095
4.50292
4.49287
4.66665
5.15458
8.44739
31.7467
37.1254
21.3199
11.3532
6.83238
5.7072
5.15818
4.8692
4.70141
4.59622
4.52822
4.47977
4.29218
4.29334
4.29384
4.29419
4.29402
4.29358
4.29445
4.2824
4.27516
4.36927
4.79706
7.35567
22.5373
28.2868
17.0108
10.3477
6.94882
5.6108
4.9868
4.6654
4.48304
4.37082
4.29862
4.24798
4.08113
4.08229
4.08307
4.08377
4.08395
4.08362
4.08501
4.07703
4.07215
4.15256
4.67502
7.77698
16.6429
19.6407
15.5637
10.2592
7.01929
5.54305
4.84164
4.48328
4.28379
4.16335
4.08652
4.03373
3.88515
3.8863
3.88729
3.8883
3.88881
3.88875
3.8905
3.88544
3.88257
3.9513
4.39442
6.88126
13.3948
16.0877
14.0048
9.97791
7.02736
5.48799
4.71874
4.32158
4.10265
3.97266
3.89067
3.83553
3.70284
3.70394
3.70509
3.70636
3.70718
3.70746
3.70944
3.70649
3.70527
3.76409
4.13868
6.13422
11.0452
13.3907
12.4746
9.54533
6.96454
5.43171
4.61269
4.17834
3.93853
3.79772
3.70994
3.6521
3.53294
3.53398
3.53526
3.53671
3.5378
3.5384
3.54054
3.53916
3.53932
3.5897
3.90557
5.50972
9.28892
11.3131
11.0579
9.00988
6.83166
5.36353
4.51755
4.05102
3.79008
3.63749
3.54326
3.48232
3.37433
3.37532
3.37665
3.37826
3.37957
3.38044
3.3827
3.3825
3.38371
3.42695
3.69286
4.98539
7.94182
9.68817
9.79201
8.41621
6.63615
5.27651
4.42768
3.93666
3.6558
3.4909
3.38963
3.32514
3.22602
3.22695
3.22833
3.23004
3.23153
3.23263
3.23498
3.23564
3.23765
3.27492
3.49845
4.54253
6.88597
8.39753
8.68556
7.80134
6.3893
5.16708
4.3381
3.83221
3.53396
3.35682
3.24809
3.17962
3.08714
3.088
3.08939
3.09117
3.0928
3.09409
3.0965
3.09781
3.10041
3.13263
3.3204
4.16605
6.04318
7.35693
7.73076
7.19332
6.10412
5.03462
4.24502
3.73464
3.42273
3.23409
3.11771
3.04489
2.95691
2.9577
2.95907
2.96088
2.96262
2.96407
2.96653
2.96829
2.97133
2.99927
3.15722
3.84435
5.36125
6.50701
6.91275
6.61199
5.79377
4.88063
4.14569
3.64116
3.32024
3.12145
2.99756
2.92016
2.8346
2.83532
2.83667
2.83848
2.8403
2.84187
2.84436
2.84646
2.8498
2.87417
3.00709
3.56726
4.80211
5.80461
6.21392
6.06985
5.47053
4.70819
4.03862
3.54956
3.22466
3.01772
2.88683
2.80482
2.7196
2.72026
2.72155
2.72335
2.72522
2.72688
2.72938
2.73173
2.73534
2.75664
2.86851
3.32645
4.33734
5.21611
5.61496
5.57221
5.14461
4.52161
3.9236
3.45814
3.13439
2.9216
2.78445
2.6979
2.61133
2.61193
2.61315
2.61493
2.61681
2.61855
2.62107
2.62364
2.6274
2.64604
2.74027
3.11567
3.94708
4.7181
5.0998
5.12087
4.82415
4.32513
3.801
3.36559
3.04795
2.83192
2.68953
2.59867
2.50927
2.50981
2.51098
2.5127
2.51459
2.51638
2.51896
2.52168
2.52548
2.54184
2.6213
2.92986
3.61637
4.29298
4.65468
4.71489
4.51531
4.12305
3.67175
3.27114
2.9641
2.74757
2.60122
2.50646
2.41297
2.41346
2.41455
2.41621
2.41807
2.41994
2.42259
2.42537
2.42915
2.44356
2.51065
2.76495
3.33374
3.92731
4.26797
4.35151
4.2223
3.91933
3.53722
3.17439
2.88184
2.66754
2.51867
2.42058
2.322
2.32243
2.32345
2.32504
2.32684
2.32885
2.33149
2.33428
2.33802
2.35075
2.40749
2.61763
3.0903
3.61063
3.93008
4.02704
3.94775
3.71748
3.39901
3.0753
2.80041
2.59093
2.44109
2.34041
2.23597
2.23636
2.2373
2.23878
2.24059
2.24266
2.24528
2.24807
2.25173
2.26302
2.31109
2.4852
2.87907
3.33479
3.63322
3.73746
3.69293
3.52039
3.25881
2.97412
2.71927
2.517
2.36777
2.2653
2.15453
2.15488
2.15575
2.15712
2.15893
2.16103
2.16362
2.16639
2.16997
2.18001
2.22083
2.36546
2.69447
3.09317
3.37093
3.47866
3.45805
3.33034
3.11833
2.87135
2.6381
2.44509
2.29803
2.19467
2.07739
2.0777
2.0785
2.07978
2.08155
2.08367
2.08623
2.08897
2.09244
2.10142
2.13615
2.25663
2.53222
2.88089
3.13852
3.24717
3.24269
3.14902
2.97915
2.76762
2.55678
2.37472
2.2313
2.128
2.00541
2.0057
2.00645
2.00766
2.00937
2.01145
2.01398
2.01668
2.02004
2.02811
2.0578
2.15861
2.39025
2.69493
2.93297
3.04115
3.04777
2.97946
2.84447
2.6652
2.47665
2.30668
2.16816
2.06587
27.5174
202.111
51.9151
31.0949
222.872
214.536
26.8035
165.2
216.596
20.8107
122.091
158.532
16.1997
97.4004
118.167
12.8757
142.109
303.635
84.5886
95.2163
15.0521
12.7882
38.7083
11.1682
8.82185
19.4278
13.4502
1134.84
448.117
133.559
17.3856
12.3355
8.51561
22.0482
20.0632
30.6203
138.011
150.171
649.074
942.96
168.845
26.6643
19.7027
8.02074
19.9941
21.9959
29.5342
92.3514
112.525
314.781
445.366
137.696
32.4707
28.5851
7.45733
16.3921
19.5632
23.7253
56.6642
69.9467
166.054
213.529
105.608
33.9609
33.1667
119.059
136.408
85.144
33.2661
33.9075
97.9041
106.2
11.4938
48.9015
133.649
98.9916
83.1855
83.5167
150.233
134.226
23.4011
193.238
201.349
98.5866
187.345
961.868
1112.83
144.425
885.064
873.253
115.531
135.644
30.9675
161.658
132.694
199.069
163.275
456.347
631.692
233.785
601.481
422.821
864.664
617.136
233.37
72.1677
89.5776
28.9251
101.736
79.1999
130.751
103.475
217.798
308.159
186.956
289.198
215.224
412.91
295.22
194.574
61.9674
50.3293
77.8712
63.9187
137.823
163.901
135.468
166.276
142.191
211.321
168.433
140.67
39.4344
33.3656
48.9122
40.4504
107.451
117.428
139.508
124.409
107.998
27.2923
24.3403
32.4975
27.8608
93.8015
96.6313
21.7605
129.041
66.9604
3828.27
2273.1
6.9106
13.3159
15.9606
18.2973
36.408
43.7711
71.8849
74.722
73.5775
31.9021
32.9574
602.421
917.055
306.402
857.136
118.13
45.0288
55.0243
22.9684
111.415
88.6462
52.7785
47.4248
86.9208
72.8556
75.1111
79.6431
105.054
122.612
111.983
46.7156
42.5102
110.623
101.564
89.6309
44.2129
22.6228
81.4248
325.1
37.0955
46.6641
3769.03
942.509
3217.39
1736.51
3214.58
849.621
787.779
800.284
366.963
376.26
185.028
188.109
124.701
95.4319
128.108
68.6325
71.5344
80.0358
76.9407
102.535
835.039
203.159
609.061
679.003
595.389
204.674
693.782
708.643
160.372
933.318
862.937
1096.05
1107.96
149.399
147.299
178.86
176.991
543.943
556.792
515.377
392.586
426.968
345.431
380.652
502.226
754.897
473.013
482.94
437.802
466.076
740.437
90.3611
88.89
117.486
115.714
261.857
267.173
251.631
233.476
256.242
208.018
226.608
246.648
351.202
302.085
334.115
264.612
292.104
343.19
112.169
56.5504
94.6312
119.427
77.372
92.6706
54.9085
72.5149
120.501
70.2705
148.184
149.978
188.362
187.533
202.485
170.522
182.968
185.612
60.5843
53.7644
44.9807
65.3983
75.8753
56.6873
64.1929
43.7742
71.3467
61.6811
111.378
83.4918
80.4255
93.305
84.062
112.775
80.7174
38.9929
36.3674
84.7722
41.957
39.8699
231.911
65.1106
68.0817
6328.18
6.40034
10.3768
12.9891
14.4362
24.9119
27.8386
166.992
82.414
91.2659
2875.25
30.2925
35.5302
17.7364
87.3994
80.8885
176.455
35.9878
34.1853
76.2143
68.0842
72.354
67.8168
375.161
380.143
151.699
512.603
1849.17
295.389
428.48
145.123
66.6568
66.8243
707.378
1203.37
884.991
100.799
57.7317
54.4492
61.6836
58.7698
103.68
335.403
413.769
173.393
202.101
50.011
52.267
101.337
76.4087
75.5935
24.5071
21.9756
66.6056
147.328
697.375
435.47
1031.48
1358.96
1235.42
913.984
448.003
379.629
481.572
460.198
907.636
124.686
64.805
62.5469
66.6429
65.3909
127.729
157.306
226.27
223.439
183.708
193.388
138.823
225.442
237.348
169.035
492.399
606.664
568.266
502.617
532.255
387.599
413.113
454.487
53.3275
49.9497
81.6514
96.542
126.726
138.07
124.91
171.828
180.625
141.222
148.725
108.688
235.053
289.699
272.209
261.614
275.971
215.576
225.055
227.738
384.92
356.361
379.352
281.19
297.405
314.373
141.91
132.969
127.85
172.138
162.071
157.543
154.427
156.365
166.743
144.04
153.266
151.124
36.6312
50.1136
55.7794
43.9755
47.4691
35.7727
52.3385
50.0157
30.298
39.816
42.8696
55.53
53.0903
47.5581
49.173
3560.89
5165.25
3297.34
58.4531
73.0524
61.7387
58.0546
63.2541
73.5124
821.996
2273.57
1822.47
2277.36
866.784
104.06
98.6069
88.8015
87.9916
50.3357
70.6743
75.0576
64.713
69.481
49.5937
81.6821
79.3231
76.5205
76.9988
44.7969
58.3814
62.7259
66.777
62.9072
3117.97
1966.67
1837.29
1947.23
1978.02
3028.72
728.506
861.374
343.253
403.617
176.223
198.349
104.68
108.452
111.526
104.985
107.555
102.155
118.173
124.363
112.839
116.738
70.0253
55.4431
53.8382
57.5381
55.7794
70.4384
53.3712
56.9565
667.247
377.613
366.789
376.135
379.876
682.27
352.116
329.462
365.902
359.163
704.787
365.744
376.46
891.728
880.571
1467.2
1397.03
1052.33
1632.06
1822.24
1922.44
1682.78
1782.7
1123.77
1608.16
1511.94
211.603
223.583
155.628
259.03
249.349
251.975
261.184
229.725
218.706
245.495
233.528
140.852
196.81
207.736
320.193
301.673
323.367
321.548
270.18
254.654
294.935
275.989
171
241.99
257.11
504.433
594.281
460.249
491.252
556.924
465.554
422.164
450.354
116.686
123.656
94.8999
139.378
131.15
165.711
144.033
120.977
113.084
129.002
122.969
161.008
169.037
123.056
201.736
192.568
215.091
204.951
178.839
170.131
189.692
181.297
110.386
151.081
158.46
243.654
284.129
244.263
256.999
266.985
232.172
228.845
240.13
328.328
348.922
375.984
321.319
303.313
321.661
115.197
105.354
73.3147
69.1238
79.0345
74.7432
111.217
83.3948
63.2719
62.6325
67.8775
64.3997
86.0208
100.119
94.8537
109.775
102.038
122.903
85.255
80.4642
93.0703
87.1679
124.932
143.131
135.104
143.467
140.448
148.822
126.892
137.412
152.34
155.294
159.051
146.838
57.6195
92.1545
94.0135
77.6278
90.0756
56.6453
89.1757
67.217
94.2111
65.7465
87.9756
102.011
104.224
99.3738
101.221
86.6089
86.3441
88.3548
49.1227
46.5059
61.1693
56.5375
60.0083
47.4361
28.4052
11.399
9.99057
88.0754
101.637
99.4073
1896.59
871.177
2276.94
5359.22
1698.25
2100.31
17.8205
30.4452
225.932
64.2573
66.2945
147.14
667.747
730.044
708.537
321.354
434.818
44.4785
41.4203
63.8493
226.339
222.48
209.595
126.175
121.509
132.751
147.319
59.0034
63.2198
287.091
301.871
203.539
1695.99
1635.3
1122.37
186.37
277.94
282.964
468.509
687.739
669.302
616.942
407.741
417.476
433.216
553.743
576.52
669.677
79.1833
48.8261
45.5486
100.857
107.044
83.2505
222.617
234.689
230.395
301.364
283.236
276.61
282.142
403.402
389.327
398.347
287.796
293.596
301.347
77.1486
92.6619
98.6283
200.545
203.514
209.416
132.592
134.036
141.221
79.0535
78.4573
36.338
38.8785
29.6332
79.8169
79.514
74.6443
73.5771
94.4976
3902.12
4550.22
110.105
105.646
105.959
90.7643
85.3223
104.589
105.238
84.3313
87.2099
74.6618
79.9058
78.0585
78.575
54.3524
57.3569
44.1944
105.749
234.552
1395.19
3779.02
3292.06
2757.29
2712.16
2501.14
2585.45
1760.41
1401.65
2859.14
850.888
831.632
770.876
817.403
869.825
852.813
358.717
385.298
187.948
183.772
182.051
191.328
200.262
193.3
107.438
109.936
95.4898
96.8934
97.662
112.432
114.879
131.509
120.325
117.066
812.182
628.341
518.267
507.198
558.72
558.177
673.705
467.294
454.376
504.751
520.211
597.956
379.191
360.996
704.546
931.686
1231.43
1253.75
887.807
2414.39
2433.32
262.483
276.265
184.338
442.329
431.592
530.665
569.281
642.046
661.993
806.071
688.366
599.475
621.54
84.6431
108.924
114.666
256.395
272.786
340.375
347.916
359.272
335.581
325.824
332.967
112.708
96.9472
84.7001
82.9155
98.9295
96.9708
117.892
86.2316
90.9659
74.8029
132.105
130.619
139.562
137.011
121.319
102.868
100.826
128.574
125.315
192.525
197.886
197.202
177.799
182.501
187.385
69.8632
57.1341
55.407
60.7514
58.9241
71.4668
81.934
94.7248
98.6104
92.5243
93.6216
81.5684
90.858
93.5814
94.4593
82.6924
81.9614
92.6413
75.3747
67.0892
65.4705
80.7083
40.4449
50.2782
53.259
47.4169
49.484
40.7662
95.4708
59.0424
53.1786
51.7306
66.7339
3037.51
4153.23
3006.25
86.3422
84.2353
48.5437
47.7713
217.209
72.1711
82.7111
83.9302
82.3157
82.4067
69.7362
374.043
106.292
67.9843
761.275
1431.14
4113.94
771.587
751.062
687.172
1196.05
1093.67
1095.44
1037.33
1065.42
328.094
424.375
179.716
183.209
171.45
175.809
205.831
218.65
214.73
50.8981
50.0712
48.8448
52.8033
51.3665
51.6882
1317.75
1189.69
1229.65
1117.91
1151.06
1275.02
480.501
607.044
655.437
655.448
443.76
427.457
437.711
244.347
238.96
228.114
295.37
266.152
271.267
277.585
372.011
380.569
394.11
307.69
299.615
305.882
168.238
161.179
165.587
154.545
157.644
165.007
77.6635
76.4321
79.7655
79.9088
54.6609
64.0335
65.1141
45.0455
46.245
47.9865
45.487
44.8608
47.6921
46.6454
48.51
4453.22
4446.87
3707.53
5277.17
5526.35
4358.31
3886.75
5056.13
4957.38
6024.53
60.3784
62.5273
63.3201
61.7023
62.046
59.2317
66.5816
65.9597
67.4758
64.2675
65.183
64.8478
2228.1
1520.54
1612.76
1654.09
1588.13
1723.24
1720.09
107.824
93.7756
106.484
108.03
88.6203
88.3736
64.3688
63.0982
73.2958
101.024
103.402
83.6508
99.4347
99.0066
100.882
76.861
91.8827
97.2447
73.0784
72.2138
76.0642
72.1901
74.0572
68.8789
70.4817
77.6168
76.3148
74.7716
65.5894
81.83
82.1648
79.4329
81.068
64.356
2688.88
2741.59
3209.44
3007.01
2664.99
2642.68
924.863
750.212
811.546
791.673
980.45
1009.23
928.513
952.005
350.935
394.318
193.742
197.091
186.836
190.385
179.117
180.122
176.755
210.509
205.544
194.691
201.393
102.12
105.041
99.9121
98.5145
100.231
119.991
123.244
120.559
128.382
125.811
122.07
114.14
112.012
109.976
117.825
114.349
115.425
117.67
56.8585
60.981
61.3682
54.3795
55.5996
810.598
547.943
532.918
648.85
693.472
562.814
559.165
493.047
480.486
381.551
391.604
336.657
513.009
503.962
1136.76
1188.58
913.661
1553.44
905.246
1079.08
1093.1
1434.56
1311.68
1338.22
1266.16
1293.94
1433.41
1579.2
1587.49
1870.39
2100.11
2038.21
2161.29
2165.56
1907.24
1732.03
1985.04
1969.77
1780.21
256.284
252.999
253.379
291.301
294.198
296.645
263.179
226.008
222.342
241.537
237.52
315.345
368.982
373.875
356.275
363.098
308.678
319.366
366.35
372.524
378.11
366.106
318.883
424.594
428.997
264.607
312.429
319.304
299.61
305.825
259.31
288.384
341.111
348.8
326.381
333.645
282.056
516.922
581.538
136.088
157.678
158.977
155.163
156.526
133.459
159.684
160.782
164.051
151.403
118.81
144.385
146.602
135.576
140.797
116.221
126.946
151.916
153.597
148.303
150.129
124.943
198.534
195.416
211.537
208.203
176.224
173.447
186.836
183.98
250.217
278.519
367.482
355.657
363.674
312.354
318.974
328.347
113.427
89.296
86.7962
100.185
115.32
94.726
92.0673
134.278
133.3
98.3236
111.256
113.209
106.749
122.139
128.452
115.416
118.179
104.19
135.732
135.067
108.853
105.351
122.004
120.825
114.459
140.134
140.925
142.929
137.075
138.943
137.493
143.218
145.927
129.911
134.275
131.109
134.163
155.65
149.213
151.743
144.957
147.033
151.874
93.1695
75.0932
73.6552
77.9586
76.4691
93.7037
81.8501
67.7984
65.9106
71.9582
69.9177
86.7086
90.5005
97.3583
95.2639
98.7855
98.316
94.3917
82.4415
79.7949
91.808
86.7987
95.5999
91.8754
92.7447
89.3871
84.4272
90.386
74.2421
71.0547
59.3736
72.3993
76.6416
66.545
68.7173
57.7942
79.6803
79.6141
47.5028
44.8349
9.65782
9.74116
10.047
9.80351
9.94515
10.1358
9.97816
9.97759
10.1779
9.95229
9.91368
10.1739
8.92654
8.9953
9.27322
9.08676
9.64751
9.63621
9.94134
11.5378
9.94862
11.6779
10.7604
9.97151
10.5026
9.83191
9.7962
9.65047
9.40383
9.58273
8.38579
8.63665
8.88277
8.91336
12.6238
9.79953
11.0078
14.9316
10.8523
30.6361
24.6449
12.6573
13.4833
11.3517
10.6494
10.5253
9.35489
9.31594
7.90506
8.35235
8.56833
8.88472
9.53355
9.44293
18.3132
25.7176
22.4284
74.0423
25.174
16.8569
13.6458
9.8836
9.54324
7.43862
7.953
8.26505
8.69851
9.6865
9.68855
29.4204
44.9104
43.6791
165.41
58.5701
46.4237
18.7369
10.9232
10.3587
6.98012
7.45897
7.83454
8.28432
9.40681
9.51452
30.5197
43.9897
44.9013
155.835
73.5122
70.9659
22.8501
12.0824
11.5166
6.54348
6.95188
7.33028
7.74073
8.80308
8.97264
25.2687
33.776
35.1191
120.28
69.4615
72.1528
24.8336
13.009
12.5836
6.13929
6.47884
6.8291
19.4993
24.6091
25.5592
94.0728
60.4996
63.9042
25.3223
13.6365
13.3566
5.76766
6.0461
6.36674
78.3639
55.9048
57.9802
25.0851
14.041
13.86
5.42166
5.59392
5.76826
5.9131
8.97183
10.0377
11.6252
18.95
21.1144
216.277
102.831
75.3304
65.2872
30.6848
31.56
22.0827
14.5627
14.2083
5.10804
5.26399
5.42528
5.71918
7.74195
8.64171
9.5374
27.0308
35.1627
56.5042
61.8351
79.2836
58.2911
33.1703
30.3269
21.7284
14.9219
14.7409
5.33463
6.43248
6.77144
9.08886
16.5945
24.8095
38.5943
42.2146
55.921
42.5104
31.4969
32.5677
42.0787
40.1015
26.3013
187.083
316.006
373.762
78.1643
111.324
69.8962
45.6405
46.1793
31.1952
228.093
339.991
313.816
382.708
391.709
223.962
36.4796
37.8434
27.5461
172.191
214.725
197.934
305.039
279.38
209.605
26.56
27.6151
21.5069
126.298
147.386
136.561
192.844
179.083
152.211
99.768
111.899
109.146
132.21
128.136
114.533
21.8633
24.0099
13.9647
218.97
51.6216
51.26
189.273
163.368
377.174
106.596
104.249
93.2028
56.4759
18.1345
11.6796
5387.25
4102.55
5503.06
11.3887
17.4396
28.4269
6042.88
6153.14
28.7389
38.3017
56.0047
12.1549
21.6708
14.9842
9.66272
9.60952
8.8599
17.0719
11.085
11.3937
10.3852
10.7401
16.1679
1089.26
1677.58
1704.62
662.492
874.8
588.28
41.9869
28.9253
90.0715
15.3222
20.6246
24.86
14.5314
17.1087
13.6254
9.59846
9.65613
8.61377
21.7208
11.9584
12.0054
11.6485
11.8388
21.4393
46.3209
45.7832
30.1061
140.466
110.01
108.785
112.204
112.706
149.954
1015.45
1000.18
926.211
69.3603
61.8972
168.561
24.4792
38.1096
41.6279
29.4456
33.9731
22.1177
9.1322
9.27833
8.15557
21.1286
11.7351
11.5331
11.9802
11.8875
21.4304
41.7652
42.9349
30.0714
95.1404
80.2655
78.1725
92.8126
90.7474
109.546
72.8213
73.6981
151.46
31.4895
47.832
48.5908
44.4194
46.472
30.1995
8.44738
8.627
7.59879
17.7414
10.7385
10.4432
11.2927
11.0246
18.2023
31.1813
32.4593
24.4933
61.9591
40.4308
37.6444
60.7611
59.0453
67.8293
168.272
167.463
164.884
65.0609
68.4078
116.326
33.8732
48.3038
47.6679
48.8501
48.7215
33.6213
120.849
112.295
109.767
133.384
132.088
135.191
60.2973
62.8359
91.6122
33.5339
45.2508
44.3991
46.882
46.0084
33.7527
99.0739
93.0005
91.9632
99.7092
98.5404
104.958
15.3181
18.2631
12.0652
61.5443
21.1891
18.7441
33.4329
31.0898
107.511
80.6811
79.8321
145.541
85.7838
89.8796
81.5433
98.5464
93.5704
81.7709
149.917
110.329
111.418
50.6336
57.2027
144.951
24.9255
37.7636
35.0816
197.56
314.936
301.799
115.895
179.211
150.989
274.745
267.519
180.239
983.79
1065.19
1037.27
1211.18
1246.3
1113.76
238.759
274.242
169.008
902.807
702.987
676.89
714.982
726.986
872.95
118.56
96.8609
94.8535
107.459
105.999
133.288
31.1565
46.4917
46.5484
160.172
178.738
180.121
146.354
148.715
134.739
181.958
184.205
165.122
371.072
348.401
231.875
587.735
564.193
576.871
823.865
681.486
699.343
591.061
605.681
633.924
230.209
390.336
377.432
74.4432
64.3342
62.5247
76.0904
74.034
86.8468
28.2578
39.1933
40.5081
99.9602
108.966
111.049
85.2992
86.8162
80.5257
128.753
141.752
144.041
113.076
115.056
105.245
240.786
220.844
179.467
214.518
218.119
219.261
202.184
271.162
247.991
60.0874
69.3538
73.0371
55.9552
57.6235
51.7989
76.6176
82.3188
83.7982
74.2981
78.387
65.9513
139.115
136.109
134.739
162.387
159.939
161.758
160.172
150.498
130.686
159.845
165.772
169.543
146.129
149.006
145.013
207.603
207.539
210.85
173.566
177.887
175.267
146.255
174.93
163.619
38.4609
42.4285
43.5427
36.6267
37.5049
34.148
47.5502
52.8105
54.3544
44.7052
45.9196
41.5111
108.733
102.105
100.885
108.93
106.379
115.89
137.015
140.766
143.378
125.907
131.751
130.366
111.154
124.323
120.776
25.7363
33.2805
35.5567
31.1362
32.638
25.3224
31.7213
34.9192
35.7593
94.04
74.7774
75.9507
32.1145
28.9453
20.041
107.473
40.4228
48.0807
33.5078
40.3389
98.2238
2965.43
3410.4
2657.42
14.3682
9.55892
9.27597
10.145
9.84916
14.7453
22.8514
23.7072
18.8851
39.2782
29.5798
28.3692
32.2086
30.8616
40.3273
72.2431
66.9026
66.6011
69.8993
69.4376
74.3558
52.5982
54.1028
76.9809
687.786
971.022
850.793
1211.06
1218.56
907.331
592.864
201.511
104.733
348.774
239.308
676.792
92.5114
152.64
196.866
49.0414
33.4601
33.6141
36.7498
34.2583
50.4523
22.2279
28.7607
29.9465
51.9099
56.545
57.5618
51.1981
52.0919
48.1376
75.5849
71.2972
70.4581
117.507
114.572
102.319
117.726
119.083
124.024
114.369
117.312
116.268
46.0516
49.4775
50.3187
45.3033
45.9469
43.0553
106.719
109.771
112.008
106.016
107.783
105.412
91.3393
102.086
100.1
32.2928
97.1264
199.946
32.3574
72.2001
28.0535
312.347
106.262
40.7181
228.134
323.207
470.827
39.5035
141.74
72.9619
220.979
170.508
43.2375
1406.21
1643.15
1023.65
2626.19
1317.39
991.568
2663.99
2583.32
3181.73
723.879
1049.3
1215.3
115.977
113.189
122.755
129.098
125.95
124.832
69.1143
64.1629
63.6519
66.3079
65.9807
71.1341
78.7604
90.3977
91.4556
88.4571
89.3944
78.3061
103.74
97.3997
96.275
311.649
315.143
200.822
204.863
306.155
311.133
707.165
568.145
563.824
546.717
553.143
712.97
171.272
257.408
244.02
1216.06
1196.53
1083.23
1117.01
1253.78
1236.29
166.543
169.241
151.613
145.089
161.222
163.874
202.723
205.104
180.742
174.991
197.427
200.131
495.196
507.676
529.102
404.39
450.016
433.953
481.259
465.99
415.893
356.987
387.726
373.264
418.136
402.672
368.744
489.53
471.074
482.977
710.213
723.777
770.723
478.295
569.232
557.173
588.309
579.857
481.75
448.14
513.267
497.176
543.792
529.001
457.693
724.803
682.968
696.694
97.762
99.4275
91.8261
87.4657
94.5329
96.1316
128.834
130.911
119.34
113.902
124.788
126.801
246.921
251.595
256.699
240.694
250.856
242.888
268.183
259.266
248.274
213.888
221.77
215.247
235.388
228.388
220.089
241.666
237.99
242.365
312.409
333.127
320.891
359.332
345.959
323.107
273.368
287.571
277.615
309.191
298.105
282.543
63.0694
68.1558
58.2688
79.0439
71.1191
69.7134
81.2734
79.6508
90.7311
53.3266
59.398
61.216
68.0756
79.9152
84.678
145.425
143.716
146.613
151.596
148.948
147.192
189.557
192.132
191.149
192.295
197.823
192.6
209.085
203.3
197.269
174.472
178.381
174.12
187.612
182.872
178.622
182.974
184.353
186.799
59.5666
66.1905
67.4212
58.6933
59.935
54.7018
49.882
51.3184
46.2394
66.7429
61.1511
60.1119
68.4303
67.2019
74.4393
59.7776
50.7394
49.3176
53.7782
52.2294
60.8784
42.6187
47.1883
48.5063
69.9738
80.6246
82.3132
68.7983
70.4636
62.9062
104.754
103.383
110.041
82.9062
88.112
88.636
85.5639
85.967
80.8114
89.1096
89.613
84.678
114.261
107.236
105.979
38.1249
44.8466
46.7741
42.1986
44.1696
37.251
41.4387
44.055
44.6692
63.9277
51.6376
58.6147
63.0969
62.541
67.59
10.7743
8.4887
8.25105
9.0007
8.73258
12.0878
25.8475
21.6848
20.9393
23.3007
22.4682
26.8222
155.68
152.25
193.406
85.6041
77.4341
85.0598
74.5964
73.4567
88.4379
32.3691
25.1423
24.1851
27.2277
26.1534
33.1124
17.2004
21.2711
22.0403
86.4329
95.4388
202.389
35.5041
40.5754
43.0357
38.8646
39.7259
34.9222
71.36
86.1567
94.6748
63.4795
70.0105
69.9391
380.945
243.04
215.019
292.81
595.99
1160.19
239.56
367.604
215.336
1512.18
642.082
371.343
1431.95
1855.26
2416.1
356.469
937.674
530.251
1268.34
1082.19
413.377
111.936
111.077
142.871
66.8427
86.0014
86.1326
85.2192
85.6925
66.9136
907.205
977.972
950.499
84.4685
82.3644
97.951
56.6538
68.6004
70.1177
65.5295
67.0693
55.5633
60.7496
74.517
75.9117
71.6136
73.0825
59.7879
106.598
88.6658
86.5692
173.493
170.361
170.716
95.1546
94.0489
100.158
77.5862
86.389
87.5048
84.3111
85.3367
76.605
23.633
27.4705
30.4574
25.5416
26.4794
22.7892
71.8267
32.6801
31.8287
226.73
204.906
132.389
636.582
327.036
357.942
239.14
286.524
598.748
1127.58
1096.34
1008.34
732.036
721.115
912.662
429.477
560.785
577.465
509.789
538.344
406.72
477.387
596.335
593.966
588.727
594.947
470.292
894.428
734.896
736.506
100.749
98.8294
121.615
64.1108
79.782
80.9436
77.2598
78.552
63.3732
66.3188
83.8687
84.6094
82.0194
82.9997
65.9172
130.653
104.353
102.595
176.178
177.59
158.823
226.54
199.459
198.523
200.406
199.599
223.895
186.855
165.146
162.402
170.84
167.952
190.076
136.717
151.108
153.565
228.85
205.053
202.322
211.655
208.235
232.93
167.025
186.689
189.305
542.959
553.019
576.556
515.205
526.096
518.044
395.855
406.752
397.641
425.669
416.093
404.485
52.2011
62.4508
63.9864
59.4162
60.9241
51.0711
84.2007
72.0108
70.0312
104.873
106.888
98.2164
130.36
117.065
114.52
122.324
119.721
134.314
137.309
139.514
126.851
174.681
154.512
151.998
159.717
157.084
177.61
143.913
127.039
124.762
131.351
129.213
146.363
106.935
116.984
118.913
266.169
268.531
263.66
278.828
273.602
271.1
225.421
221.68
221.703
223.448
222.188
226.061
363.765
372.004
363.939
388.801
380.281
371.557
286.339
289.716
284.2
301.377
295.445
291.887
138.908
137.504
140.584
131.19
133.917
135.391
131.09
132.503
129.508
159.683
157.533
155.154
158.518
162.035
157.791
159.658
162.519
159.078
170.059
166.175
163.121
146.889
149.702
146.833
155.821
152.718
150.188
147.975
152.016
155.181
40.3351
41.3606
37.5277
52.4522
45.4497
44.2647
47.9678
46.6811
53.2617
45.1127
41.071
40.0841
43.1552
42.0927
46.2753
34.9457
38.4118
39.3544
51.5909
60.5721
61.4052
58.6651
59.6901
50.828
33.3286
34.1066
30.9741
40.7922
37.3121
36.4515
39.1276
38.2046
41.8087
62.2394
63.1042
53.8598
3009.93
3834.99
4107.64
67.8021
67.2785
72.6233
73.9518
68.9561
68.4024
1144.08
1068.51
761.605
1230.99
1394.42
2043.26
893.776
1222.28
1200.87
54.7147
55.6074
51.0962
71.9034
61.9754
60.9216
66.622
57.6796
56.4692
59.8854
58.8179
68.187
48.865
52.9734
53.8453
47.9609
48.6914
45.3978
59.541
53.1048
52.2068
55.2549
54.1164
60.9633
1944.62
2321.9
2312.82
2245
2301.77
1901.97
1973.19
2262.38
2206.13
2299.12
2297.44
1984.32
921.597
894.032
838.347
109.351
105.179
104.088
108.077
106.422
110.339
105.802
100.851
99.8736
103.024
101.94
106.671
65.0034
64.6212
69.62
55.0398
59.6023
59.9633
58.6037
59.1446
54.4966
60.2589
60.5768
56.203
70.7498
65.6402
65.3367
373.76
445.384
454.077
430.848
436.819
369.697
377.896
460.322
459.557
460.247
461.931
379.728
344.366
402.077
412.837
366.133
433.354
429.871
423.235
430.891
364.202
562.022
567.446
711.439
370.354
456.103
449.539
460.177
459.599
374.378
1069.13
1178.32
1155.86
1271.07
1265.56
1122.45
1589.2
1423.41
1439.03
1370.24
1400.57
1555.95
215.584
189.924
186.528
196.323
193.281
219.694
153.659
171.855
174.243
156.064
158.63
143.026
200.347
176.87
173.811
183.229
180.007
203.988
191.981
194.7
173.034
246.831
218.887
215.216
226.465
222.648
251.877
470.227
488.431
477.664
508.997
499.007
480.624
543.282
520.215
532.196
448.355
459.481
477.188
431.289
445.77
435.554
466.91
456.263
440.816
118.803
108.109
106.235
112.187
110.074
121.083
93.3579
101.153
102.957
163.613
144.741
142.41
149.537
147.117
166.295
121.162
133.012
135.151
120.842
122.808
112.166
153.489
135.672
133.496
140.128
137.883
155.956
248.333
249.851
245.47
258.937
254.349
252.711
261.83
256.357
261.197
229.869
233.816
236.776
232.432
233.141
229.287
241.208
237.115
236.32
334.927
341.152
334.023
356.078
348.495
341.925
309.155
313.787
307.506
327.042
320.295
315.411
71.9141
78.1623
79.9194
75.0424
76.534
70.4367
77.6158
85.3514
87.023
81.7655
83.6019
76.1855
74.4675
72.7996
81.0359
62.2466
66.8844
68.1738
66.7001
72.2614
73.6349
69.5199
70.8909
65.5252
88.5597
77.9705
76.2181
107.545
109.408
96.5861
83.5183
92.307
94.5676
88.6785
90.401
81.9411
91.1784
103.118