/*--------------------------------*- C++ -*----------------------------------*\
| =========                 |                                                 |
| \\      /  F ield         | OpenFOAM: The Open Source CFD Toolbox           |
|  \\    /   O peration     | Version:  5.x                                   |
|   \\  /    A nd           | Web:      www.OpenFOAM.org                      |
|    \\/     M anipulation  |                                                 |
\*---------------------------------------------------------------------------*/
FoamFile
{
    version     2.0;
    format      ascii;
    class       volScalarField;
    location    "7200";
    object      k;
}
// * * * * * * * * * * * * * * * * * * * * * * * * * * * * * * * * * * * * * //

dimensions      [0 2 -2 0 0 0 0];

internalField   nonuniform List<scalar> 
6584
(
3.22184
3.22182
3.22184
3.22188
3.22192
3.22198
3.22213
3.22242
3.22298
3.22389
3.22503
3.22619
3.22685
3.22664
3.22576
3.22457
3.22348
3.22273
3.22227
3.22202
3.22183
3.22173
3.22168
3.22164
3.07689
3.07706
3.07705
3.07706
3.07712
3.07728
3.07764
3.07828
3.07926
3.08114
3.08301
3.08476
3.08592
3.08609
3.08527
3.08328
3.08135
3.07977
3.0786
3.07789
3.07741
3.07713
3.07703
3.07677
2.94376
2.94379
2.9438
2.94367
2.94367
2.94388
2.94429
2.94534
2.94736
2.99796
3.0124
3.01557
3.01761
3.01835
3.01754
2.96139
2.95351
2.94968
2.94723
2.94567
2.94472
2.94422
2.94382
2.94349
2.821
2.82096
2.82088
2.82077
2.82061
2.82076
2.82129
2.82269
2.82568
2.86418
2.88414
2.89249
2.89805
2.89992
2.89786
2.89921
2.84292
2.83267
2.82767
2.82466
2.82289
2.82176
2.82104
2.82056
2.70753
2.70742
2.70723
2.70702
2.70682
2.70679
2.70734
2.70947
2.75375
2.75806
2.77439
2.79238
2.80505
2.80627
2.80129
2.7937
2.78791
2.73142
2.71994
2.71428
2.71093
2.7089
2.7077
2.70688
2.6024
2.60226
2.60193
2.60156
2.60127
2.60124
2.60238
2.64332
2.64915
2.65989
2.69765
2.75221
2.80467
2.78785
2.73977
2.71415
2.69508
2.63954
2.62281
2.61362
2.60813
2.60482
2.60286
2.60153
2.50483
2.50468
2.50426
2.50377
2.50335
2.50331
2.50474
2.53659
2.55232
2.57615
2.65036
2.85903
3.43252
3.05954
2.78525
2.66784
2.62345
2.55872
2.53552
2.52195
2.51374
2.50874
2.50577
2.50373
2.41408
2.41396
2.41349
2.41293
2.41244
2.41244
2.41418
2.44112
2.46239
2.50429
2.66925
4.09755
5.4488
3.05895
2.67432
2.5736
2.48902
2.45738
2.43849
2.42702
2.41995
2.41571
2.41277
2.32953
2.32948
2.329
2.32844
2.32795
2.32803
2.32996
2.35428
2.37814
2.43438
2.68527
5.28128
8.08198
3.50144
2.72868
2.54288
2.42879
2.38725
2.36224
2.34711
2.3377
2.33202
2.32802
2.2506
2.25061
2.25017
2.24966
2.24921
2.24939
2.25144
2.27384
2.29815
2.36
2.64641
5.07793
7.86501
3.82256
2.7932
2.52367
2.37546
2.32363
2.29222
2.2732
2.26131
2.25406
2.24889
2.17675
2.17683
2.17644
2.176
2.17563
2.17595
2.17807
2.19881
2.22211
2.28293
2.56092
4.43851
6.78251
3.93658
2.83763
2.50803
2.32669
2.26506
2.22751
2.20455
2.19013
2.18126
2.17486
2.10753
2.10769
2.10738
2.10705
2.10679
2.10724
2.10937
2.12858
2.1501
2.20691
2.45576
3.82141
5.90941
3.90317
2.85388
2.49105
2.28082
2.21037
2.16717
2.14051
2.12352
2.11304
2.10543
2.04252
2.04275
2.04254
2.04233
2.04219
2.04275
2.04488
2.0627
2.08212
2.13404
2.34978
3.3577
5.37191
3.79239
2.84623
2.47097
2.23714
2.15889
2.11058
2.08041
2.06099
2.0489
2.04014
1.98135
1.98162
1.98152
1.98143
1.98141
1.98203
1.98396
1.97878
2.01363
2.06411
2.24368
3.00555
3.10866
4.98695
3.64983
2.82123
2.44774
2.19555
2.11038
2.05737
2.02382
2.00219
1.98843
1.97861
1.92366
1.92397
1.92397
1.92399
1.92408
1.92471
1.92632
1.92295
1.95016
1.99785
2.1442
2.76765
3.34299
5.05549
3.37322
2.78163
2.33909
2.16019
2.06458
2.00684
1.97044
1.94676
1.93146
1.9205
1.86917
1.8695
1.86959
1.86972
1.8699
1.8705
1.87181
1.86999
1.89231
1.93517
2.0844
2.52649
2.95337
4.40352
3.27811
2.73113
2.30061
2.12513
2.02223
1.9595
1.91983
1.89403
1.87736
1.86556
1.81761
1.81795
1.81812
1.81833
1.81859
1.81912
1.8203
1.81968
1.82406
1.87171
2.0023
2.36384
2.70872
3.69125
3.17908
2.67412
2.26175
2.09012
1.98229
1.91507
1.87229
1.8444
1.8262
1.8134
1.76875
1.76909
1.76932
1.76961
1.76991
1.77035
1.77154
1.77178
1.77622
1.81139
1.9205
2.21407
2.46986
3.08159
2.84472
2.49786
2.22801
2.05594
1.94461
1.87343
1.82759
1.79756
1.77781
1.76407
1.72237
1.72271
1.72299
1.72335
1.7237
1.72414
1.72536
1.72614
1.73057
1.76129
1.87261
2.09828
2.23801
2.59412
2.6544
2.41966
2.1867
2.02108
1.90862
1.83432
1.78559
1.75341
1.73206
1.71738
1.67829
1.67862
1.67895
1.67937
1.67977
1.68023
1.68147
1.6826
1.68697
1.71379
1.80781
1.99378
2.07869
2.32256
2.45932
2.32638
2.13734
1.98427
1.87355
1.79735
1.74611
1.7118
1.68884
1.67319
1.63634
1.63665
1.63701
1.63748
1.63794
1.63844
1.63968
1.64103
1.64531
1.66872
1.74812
1.9009
1.95385
2.11254
2.27202
2.22193
2.08
1.94456
1.83863
1.76205
1.70887
1.6726
1.64803
1.63136
1.59636
1.59665
1.59704
1.59755
1.59806
1.5986
1.59983
1.60132
1.60549
1.62593
1.693
1.81836
1.85237
1.94862
2.10036
2.11105
2.01546
1.90138
1.80315
1.7279
1.67359
1.63562
1.60949
1.59178
1.55822
1.55849
1.5589
1.55943
1.55998
1.56057
1.56177
1.56335
1.56737
1.58525
1.64194
1.74482
1.76747
1.8192
1.94788
1.9982
1.94502
1.85452
1.76654
1.6944
1.6399
1.60064
1.57308
1.55432
1.52178
1.52204
1.52245
1.52301
1.52359
1.52421
1.5254
1.52702
1.53087
1.54654
1.5945
1.67899
1.69471
1.71557
1.81536
1.88726
1.87031
1.80411
1.72841
1.66108
1.60746
1.56742
1.53863
1.51885
1.48694
1.48719
1.4876
1.48817
1.48878
1.48943
1.49059
1.49223
1.4959
1.50967
1.55028
1.61977
1.6311
1.63122
1.70186
1.78124
1.79308
1.75056
1.68853
1.62753
1.5759
1.53571
1.50597
1.48525
1.4536
1.45382
1.45423
1.45481
1.45544
1.45611
1.45725
1.45889
1.46237
1.47449
1.509
1.56626
1.5747
1.5614
1.60558
1.68235
1.71514
1.6945
1.64687
1.59345
1.54489
1.50524
1.47491
1.45337
1.42165
1.42186
1.42226
1.42284
1.42348
1.42417
1.42529
1.4269
1.43021
1.44092
1.4703
1.51762
1.52404
1.50254
1.52432
1.59198
1.63823
1.63672
1.60356
1.55868
1.51417
1.47579
1.44529
1.42312
1.39101
1.3912
1.39159
1.39217
1.39282
1.39352
1.39462
1.3962
1.39934
1.40883
1.43389
1.4731
1.47804
1.45196
1.45563
1.51048
1.56359
1.57796
1.55879
1.52307
1.48347
1.44707
1.41686
1.3943
1.36161
1.36179
1.36216
1.36272
1.36338
1.36409
1.36517
1.36673
1.36971
1.37812
1.39954
1.43212
1.43593
1.40773
1.39739
1.43787
1.49236
1.51902
1.51285
1.48659
1.4526
1.41886
1.38944
1.36675
1.33336
1.33352
1.33388
1.33443
1.33509
1.3358
1.33688
1.33842
1.34122
1.34869
1.36706
1.39421
1.39711
1.36843
1.34772
1.37381
1.42538
1.4607
1.46613
1.44929
1.42144
1.39097
1.36283
1.34033
1.30621
1.30636
1.3067
1.30723
1.30788
1.3086
1.30969
1.31118
1.31381
1.32047
1.33626
1.35897
1.36113
1.33302
1.30502
1.31765
1.36321
1.40373
1.41903
1.41128
1.38989
1.36323
1.33685
1.31486
1.28009
1.28022
1.28054
1.28106
1.28169
1.28245
1.28352
1.28496
1.28743
1.29338
1.30699
1.32606
1.32762
1.30071
1.26791
1.26862
1.30618
1.34874
1.37199
1.37274
1.35795
1.33551
1.31136
1.29022
1.25494
1.25506
1.25536
1.25585
1.25648
1.25725
1.2583
1.2597
1.26202
1.26735
1.27913
1.29519
1.29627
1.27093
1.23531
1.22588
1.25437
1.29627
1.32544
1.33387
1.32562
1.30772
1.2862
1.26625
1.23071
1.23082
1.2311
1.23156
1.23219
1.23297
1.234
1.23535
1.23754
1.24233
1.25254
1.26614
1.26683
1.24322
1.20627
1.18858
1.20766
1.24672
1.2798
1.29489
1.29297
1.27981
1.26126
1.24283
1.20736
1.20746
1.20772
1.20816
1.20877
1.20956
1.21058
1.21188
1.21394
1.21826
1.22716
1.23872
1.23914
1.21738
1.18024
1.15598
1.16584
1.20038
1.23547
1.25608
1.2601
1.25176
1.23647
1.21984
1.18532
1.18542
1.18567
1.18608
1.18668
1.18745
1.18845
1.18972
1.19166
1.19557
1.20337
1.21326
1.21339
1.19327
1.15668
1.12761
1.12903
1.15801
1.19345
1.2184
1.22783
1.2242
1.21232
1.19773
5.23447
9.30898
6.30901
5.14058
8.76049
9.40729
4.5229
7.25651
8.56862
3.89079
6.24056
7.09725
3.40784
5.68036
6.14894
3.03898
2.72065
3.00446
5.47849
5.63494
3.84502
3.38894
5.71617
3.07385
2.68584
4.41268
3.57582
19.4511
15.6208
7.93305
3.76591
3.26526
2.66144
4.47044
4.46501
5.30212
8.41231
9.59923
10.1179
14.4686
7.97995
4.25171
3.91935
2.5852
4.0625
4.43477
4.85641
6.25283
7.057
5.40589
6.86276
6.9142
4.39082
4.31602
2.48259
3.58467
4.00104
4.19209
4.97938
5.46177
4.84981
4.89427
5.99883
4.30649
4.38447
4.9212
4.97231
5.42382
4.12851
4.26686
5.11652
5.04267
2.83105
2.92905
2.77742
3.1797
5.7136
5.4727
9.75315
10.4142
4.92988
11.8591
10.4269
10.076
11.9287
14.8077
19.0911
8.5186
17.5831
14.9517
7.18826
8.24484
5.27801
8.34425
7.04513
10.182
8.44705
6.9903
9.9085
9.24732
10.4882
7.77669
14.6645
10.6983
9.35636
5.53838
6.15282
4.77521
6.04116
5.4204
6.97484
6.09015
4.93374
5.33164
7.78555
6.05473
5.47219
7.65132
6.13328
7.97669
4.83982
4.48881
5.38397
4.89331
4.96956
4.86815
6.55194
5.27026
5.35469
5.43907
5.27048
6.67424
4.11006
3.86928
4.44234
4.14779
5.03016
4.93643
5.34758
5.32878
5.91493
3.60457
3.42546
3.8334
3.63115
5.38829
5.12443
4.76476
10.3948
8.4672
29.4572
31.4756
2.37595
3.19594
3.53008
3.62929
4.16521
4.48112
3.34345
3.0989
5.14401
3.93067
4.07931
21.4018
20.9569
13.2743
17.6434
8.04632
4.53255
4.9192
4.11344
3.26275
3.35229
3.42017
3.39476
3.34365
3.40314
3.05539
2.70645
5.84833
5.32871
5.34572
3.39087
3.35464
5.34871
5.36444
5.52946
7.09019
4.95869
9.32823
14.0811
6.22043
7.25543
28.2204
19.3403
28.0759
28.1821
29.0014
18.8871
11.8
12.2111
6.02206
6.11597
4.86119
4.83086
4.88436
2.6685
5.0032
3.55947
3.37581
3.44956
3.64625
5.0761
14.0459
11.3695
11.1963
14.794
10.8268
11.1554
15.3409
19.3195
11.78
20.2156
14.667
17.0566
17.3654
7.6669
7.58319
9.30858
9.19557
7.96026
8.12458
8.85564
10.5107
11.1906
9.64704
10.2881
8.71081
12.6524
12.2757
12.7739
11.4185
12.0751
12.3319
5.7302
5.68768
6.52511
6.46578
4.78505
4.8491
5.56067
7.68428
8.0745
7.25679
7.56864
5.50206
6.87164
8.87553
9.44419
8.21952
8.69986
6.77087
3.29345
4.68386
3.56335
3.45478
3.61348
3.5553
4.63311
5.11813
3.48633
5.05975
4.93278
4.92536
5.32004
6.91427
7.16363
6.63738
6.83919
5.32511
3.42884
3.41985
4.30944
3.626
3.60844
3.61007
3.62414
4.26735
3.40401
3.42941
4.99013
3.10769
3.41426
2.70274
3.05167
4.97616
2.61396
3.24911
3.21642
2.27394
3.34911
3.25842
3.58292
3.69391
3.57763
44.7387
2.2723
2.83849
3.15434
3.21713
3.63443
3.80322
3.35179
5.00369
5.32983
36.8369
3.87254
4.12527
3.57045
2.6104
2.62065
2.17952
3.16933
3.11127
2.65199
2.69357
3.79463
3.85682
2.15611
18.7854
12.6174
20.3269
29.7774
15.7024
19.5488
8.92784
7.1834
7.01389
10.7307
12.9301
13.4435
6.57467
6.06108
5.83204
6.36936
6.13827
6.68919
5.65682
6.52984
4.84074
4.7787
2.29595
2.14787
5.08601
3.66842
3.92669
3.37751
3.25064
2.88739
11.5426
19.7579
18.8691
15.7351
14.5594
13.3065
16.8051
13.0734
12.6369
12.8938
13.0685
16.4069
7.61086
6.67117
6.44555
6.95122
6.74328
7.76182
8.03437
7.21024
7.81166
6.13636
6.36348
7.26504
7.97024
8.37184
8.75902
7.36633
8.88145
9.64324
10.9186
11.2755
9.15148
9.53801
8.15749
5.7562
5.536
5.87155
5.90565
5.19318
5.18673
6.77356
5.8634
6.06613
5.20823
5.34068
6.24254
4.85285
5.10697
5.8256
7.24951
7.4611
6.48772
6.75611
5.48591
7.30285
8.67721
9.02624
7.53922
7.7823
6.39113
4.94994
3.73109
3.86867
3.67411
3.54153
4.8926
5.39449
6.41387
6.57715
6.22054
6.36646
5.38323
4.00253
3.56765
3.60567
3.56446
3.61449
3.96843
2.75774
2.76097
3.74034
3.49706
3.54811
2.75458
2.7577
2.4729
2.322
32.6085
42.2728
33.0614
2.04417
3.24808
2.12966
2.24495
2.14687
3.21738
22.7733
28.6788
32.0359
26.2999
22.6035
3.25883
3.30113
2.69517
2.62852
3.41073
2.83299
2.8455
2.84566
2.82683
3.40539
3.33488
3.35278
2.90998
2.84784
3.3774
2.8923
2.86609
2.6887
2.6871
24.85
23.835
24.6178
21.7825
23.4056
23.871
10.9498
13.1511
5.74086
6.41949
4.85466
4.75942
2.74709
3.80212
3.69973
3.92227
3.83791
2.73034
3.49157
3.45949
3.67393
3.537
3.49408
2.52391
2.63871
2.33591
2.46691
3.46779
2.07672
2.04586
12.3964
13.2804
12.4707
14.3078
13.547
12.8756
11.1116
10.4468
12.1858
11.3501
17.133
15.1813
14.5508
17.8941
17.0829
16.7207
14.9905
16.0651
16.1377
19.2412
21.1758
16.6674
18.6046
18.1998
18.8729
17.2028
6.78647
7.08152
7.93731
6.49548
6.1424
7.35063
6.63288
5.7154
5.49827
6.04683
5.79606
7.34207
6.44461
6.69677
9.15316
8.62034
10.2253
9.40486
7.89982
7.51031
8.46748
8.03453
8.86413
8.50594
8.92843
7.50521
8.69907
10.2546
10.7415
9.38125
8.29164
9.67541
10.1031
5.08912
5.17952
5.86021
4.79815
4.71659
4.6183
4.78893
4.54804
4.52371
4.68171
4.57891
5.6176
5.79977
6.70916
5.18127
5.00844
5.43324
5.24068
4.7429
4.62213
4.95284
4.79629
6.29727
5.39381
5.55922
4.76817
5.04017
7.00118
7.18161
5.756
5.4591
6.80331
6.94309
8.25107
8.56405
7.18952
6.48076
7.87173
8.14973
3.37617
3.50535
4.31966
4.28825
4.36375
4.3286
3.45603
3.59112
4.2272
4.11215
4.27467
4.2397
3.56917
4.51228
4.45004
4.54007
4.53172
3.59563
4.41301
4.37845
4.4338
4.41657
3.61335
3.67799
3.71279
4.94721
3.24563
3.3814
3.42965
3.24132
3.40701
4.89121
3.49998
3.5971
3.41992
2.74313
2.80156
2.83371
2.74419
3.41857
2.71535
3.40341
2.82567
3.41033
2.89293
4.03058
3.9504
4.13138
4.05504
2.91326
2.5006
2.52608
2.76606
2.76774
2.70254
2.75013
3.08056
2.53606
4.99876
3.11911
2.83828
5.50496
5.50117
5.68099
36.0106
26.0306
35.7982
45.6284
32.7259
37.2977
4.12311
5.56747
12.0107
7.32678
7.22831
9.10348
10.3193
9.53113
9.32035
5.48385
6.74632
5.18893
4.99728
5.23893
4.37234
4.30887
4.85283
3.89576
3.94736
4.98678
10.1591
7.32033
7.34051
10.6191
11.2181
10.6763
20.9711
19.424
18.4397
9.80078
9.78136
10.4221
7.11243
9.11054
8.90456
9.6722
8.37603
8.50519
7.90191
11.6299
11.9871
11.312
5.78391
5.46359
5.25665
4.86588
4.92549
5.52908
4.95404
4.51431
4.44254
5.25803
5.97717
6.56257
6.63916
7.53153
8.12647
8.24911
6.71752
6.7986
6.21497
5.23767
4.8061
4.85577
5.33749
6.34534
6.41528
5.34107
6.07493
6.17674
2.38359
2.37283
3.43007
3.4805
3.71085
2.40634
2.39501
3.95916
4.13233
5.20455
30.6009
30.8933
3.24077
3.10977
3.14198
3.35528
3.33463
3.05326
3.07948
3.15717
3.14421
3.39474
2.4075
2.38856
2.75407
2.89244
2.89088
3.37128
9.48096
13.9407
26.3638
26.7468
26.8117
26.5947
27.3492
21.4457
22.2271
24.6864
23.9469
30.7596
11.0463
10.7884
11.4613
12.5643
12.011
11.6319
5.91961
6.21097
4.34988
4.37234
4.87238
4.7902
4.1904
4.26667
2.83979
2.84406
3.10904
3.08216
2.66942
2.87456
2.90964
4.99018
3.9784
4.07259
13.4635
11.567
12.3923
12.0137
14.9781
14.5098
14.1976
9.42759
9.19757
11.5708
10.9262
10.334
16.1757
15.3551
17.7224
19.4446
19.2125
20.2771
15.3328
19.7257
20.6379
9.07475
9.57309
9.67144
8.97486
8.76106
7.80615
8.30381
13.1285
13.5143
13.5107
11.5311
12.3534
12.7354
5.56833
4.95579
5.05516
4.73551
4.91342
7.45376
7.55781
6.97336
6.66897
7.25097
7.35141
3.32764
3.56634
3.84891
3.84578
3.79946
3.7898
3.43201
4.71434
4.783
5.17775
3.72704
3.69624
3.95663
3.93779
3.52222
3.82594
3.81326
3.67589
3.67843
6.22586
6.28211
5.3158
5.30104
6.12058
6.17247
3.60803
4.04294
4.02082
4.08849
4.06499
3.60164
3.24389
4.0641
4.1504
4.14256
4.10427
3.292
2.77184
3.21295
3.15663
2.53887
2.4148
2.57248
2.32844
2.40154
2.39747
2.46616
3.33251
2.92483
2.90013
2.93194
2.92828
3.26765
2.94137
2.39479
2.66552
2.77987
3.64273
34.7903
40.2656
32.0057
2.59856
2.6007
2.70834
2.68709
2.69929
2.68419
2.57338
2.58459
2.5307
2.55303
2.69434
2.69561
3.20206
3.19903
22.2203
29.9962
41.3438
9.98628
9.75154
10.5221
12.4639
12.9062
13.5787
12.2361
12.5864
5.56834
6.63653
3.75915
3.80314
3.79528
3.754
4.81277
4.25133
4.19849
2.27379
1.9596
1.95736
1.96142
1.96787
2.23527
14.1306
14.7806
15.1523
14.0317
14.4168
13.7134
7.23646
9.36545
8.70739
8.43579
8.02806
8.63643
8.77082
4.6135
4.5782
4.93843
5.1784
6.41622
6.48762
5.89899
7.89105
8.00747
7.41606
6.30136
6.88359
6.97179
3.64762
3.95565
3.87128
3.98387
3.98284
3.5982
2.36362
2.35891
2.43092
2.4173
2.75638
2.57118
2.57159
1.93364
1.90666
2.41676
2.07798
2.17151
1.97216
2.00971
2.36373
33.9318
32.6139
31.8242
34.5903
41.0776
38.5712
38.5448
36.4859
37.8945
39.2137
2.13556
2.54298
2.51587
2.6472
2.58996
2.17159
2.17707
2.37486
2.30767
2.49556
2.45939
2.16938
30.7247
28.2375
27.458
22.8784
21.4168
26.0291
24.4227
3.2369
3.34341
3.17168
3.18816
2.67204
2.64945
3.05261
3.05436
2.84524
3.03683
3.03569
3.32977
2.99025
2.96398
3.00438
3.37638
3.10281
3.0612
2.4922
2.58321
2.96683
2.28948
2.2941
2.27609
2.27436
2.79349
2.38827
2.42086
2.68358
2.49102
2.50953
2.47827
2.4783
2.68161
25.0057
25.809
25.8494
22.6896
22.9725
24.1489
10.5972
11.1873
10.5166
10.2416
11.5718
11.8899
10.9849
11.2738
5.82718
6.31094
3.96846
4.02325
3.85444
3.90882
4.86742
4.36381
4.34172
4.15762
4.15303
4.76077
4.05414
2.94147
2.87197
2.69729
3.06242
3.02594
3.47092
3.01035
3.00879
3.09124
3.04408
3.46515
3.63988
3.20727
3.24417
3.04701
3.12051
3.59227
2.92756
2.38107
2.74409
2.70049
2.04293
2.03685
12.7529
13.1263
12.754
11.9576
13.3733
13.9949
13.535
9.94233
9.67094
10.0066
10.2351
10.6651
10.5885
10.2529
17.2778
18.2029
18.6659
19.8539
16.0281
15.42
16.4138
16.1806
16.582
17.0627
15.5617
16.0353
15.4007
14.996
15.6311
19.8485
19.4418
18.7774
21.0563
20.0491
20.486
17.2092
18.1348
17.381
17.7284
6.3662
6.248
7.12956
6.55589
6.68869
6.33852
6.76894
5.63866
5.56645
5.9587
5.87602
8.95037
8.2825
8.50563
7.89144
8.0746
8.77851
9.98901
9.52889
9.77814
8.72658
9.21486
9.71652
8.53736
8.20671
7.76988
7.04292
7.16546
6.80809
6.92509
7.64262
8.31949
7.57967
7.72931
7.29509
7.43341
8.17466
7.65774
8.50369
4.78003
4.37161
4.42843
4.26516
4.3157
4.75036
4.65176
4.47729
4.4988
4.72425
4.52441
4.03178
4.05793
4.0691
4.03357
4.51509
4.64685
4.17641
4.21924
4.09617
4.1358
4.61244
5.12436
5.06759
5.36934
5.30356
4.69466
4.6522
4.90006
4.84897
4.72791
4.97609
7.07884
7.66511
7.77644
7.062
7.15454
6.57261
3.35941
3.828
3.84393
3.55306
3.42978
3.79078
3.80625
3.80371
3.76325
4.49099
4.15323
4.1762
4.54971
4.19341
4.13378
4.19592
4.20625
4.54602
3.89664
3.84841
3.81765
3.83132
3.5605
3.70794
3.76441
3.70583
4.15477
4.13024
4.17865
4.16734
3.70949
3.28276
3.33387
3.34739
3.15724
3.1345
3.27756
3.49276
3.99851
3.98329
4.08945
4.03916
3.52798
2.75723
2.98508
2.98245
2.99654
2.9911
2.77806
2.79846
3.02634
3.04383
2.98812
3.00473
2.76463
2.72504
2.89323
2.89246
2.93569
2.9108
2.84904
2.98548
2.9971
2.91293
2.94879
2.86241
3.29985
3.26259
2.85636
2.50201
2.55718
2.3645
2.38189
2.72273
2.52427
2.49542
2.56866
2.55604
2.73997
2.46031
2.44674
2.09855
1.97664
2.72794
2.74578
2.78352
2.75732
2.78433
2.79994
2.79025
2.78872
2.80691
2.7831
2.77251
2.80495
2.61644
2.63501
2.67049
2.65518
2.77145
2.73572
2.83039
3.14625
2.79601
3.17223
2.98572
2.79799
2.93391
2.79663
2.75959
2.75874
2.70602
2.72513
2.53923
2.60072
2.62216
2.66116
3.41918
2.81365
3.07544
3.79851
3.02273
5.83568
5.07143
3.35918
3.49536
3.11548
2.97206
2.9635
2.73028
2.70542
2.46974
2.57928
2.59628
2.67698
2.81845
2.78664
4.34128
5.25068
4.88947
6.75369
4.50119
3.87072
3.39294
2.85397
2.78218
2.39776
2.52887
2.56996
2.68106
2.89928
2.88892
5.30632
6.3219
6.33038
8.24103
5.69747
5.3842
3.76231
3.00969
2.9337
2.32157
2.45029
2.51117
2.62842
2.8691
2.88658
5.00887
5.68792
5.79783
7.46737
5.82805
5.87453
3.92509
3.12224
3.07389
2.2446
2.36021
2.42815
2.53547
2.75544
2.78848
4.35499
4.77235
4.8816
6.41506
5.43994
5.61037
3.9212
3.17059
3.15398
2.17004
2.27052
2.33739
3.75472
4.0225
4.10268
5.67329
4.97115
5.14214
3.82435
3.16668
3.17402
2.09874
2.18449
2.24859
5.24487
4.66879
4.75947
3.68673
3.12796
3.15069
2.03036
2.08547
2.12103
2.16954
2.62633
2.78751
2.89321
3.23421
3.37851
3.23035
3.80171
3.67435
5.04379
3.75716
3.88353
3.44181
3.07604
3.10098
1.96616
2.01589
2.05023
2.1277
2.4301
2.57509
2.59178
2.83478
2.93193
3.03812
4.75933
5.59169
4.84015
3.78776
3.71667
3.32406
3.00497
3.04044
2.04263
2.22071
2.28543
2.44919
2.62526
2.79133
2.86169
3.42775
4.4255
4.04467
3.66698
3.74521
6.31019
6.25544
5.16214
9.145
11.2886
11.7392
7.46104
8.30312
6.91061
5.90265
6.00088
5.19566
8.94172
10.0915
9.55366
11.7443
11.5387
9.44413
4.99368
5.1081
4.60759
7.42461
7.66056
7.35312
9.37895
8.87843
8.37132
4.18713
4.27653
3.96274
6.33923
6.43779
6.31648
7.26007
7.01001
6.94714
5.7312
5.90807
5.86538
6.24006
6.16894
6.06476
3.42833
3.58073
3.16503
2.80997
2.60914
2.63528
3.03639
2.80988
2.91522
5.82767
5.79532
5.59473
7.87811
4.32069
3.21538
51.1828
46.4736
47.5544
3.12691
4.2061
5.62571
51.6825
53.1781
5.12718
5.86101
6.68233
3.26481
4.68705
3.73857
2.87146
2.84747
2.68283
4.14998
3.15601
3.22636
2.98647
3.07365
4.02458
19.5978
22.5157
21.4292
18.4848
20.0795
16.9967
5.24214
4.70728
7.13283
3.59928
4.09034
4.33668
3.57319
3.8276
3.42852
2.89785
2.9022
2.67303
4.53149
3.33446
3.33594
3.28034
3.31635
4.53305
6.23807
6.28957
5.31225
8.58179
8.17301
8.04848
8.85065
8.7543
9.44761
14.0994
13.6318
14.1079
5.86826
5.76459
8.2155
4.16425
4.85866
4.95054
4.55125
4.72597
4.05318
2.81906
2.8463
2.60786
4.24001
3.25973
3.21532
3.32248
3.29626
4.29479
5.45844
5.57436
4.93469
6.35645
6.32789
6.23044
6.9598
6.8488
6.93022
5.66297
5.79533
7.32745
4.38315
5.02371
4.99805
5.00529
5.02793
4.35918
2.68527
2.72081
2.50925
3.75711
3.05636
3.00038
3.16536
3.11182
3.81717
4.56345
4.66616
4.27266
5.17078
4.93455
4.75857
5.45644
5.38097
5.38368
4.83529
4.31737
4.35446
5.20168
5.38021
6.30288
4.34022
4.83748
4.76796
4.95568
4.90097
4.36692
4.90835
4.19964
4.26367
4.66263
4.67313
4.97783
4.86055
4.97065
5.60399
4.17655
4.54827
4.47487
4.69488
4.62062
4.22299
5.10744
4.76826
4.7861
4.65201
4.67323
5.05419
3.01749
3.18634
2.8971
2.91056
3.20876
3.07099
3.10299
3.07938
2.84942
4.48096
4.83848
3.3136
5.74639
5.5984
5.38383
5.7337
5.71759
5.52935
9.90132
9.01898
8.93949
7.07672
7.28392
10.2599
5.06187
6.16059
6.01795
11.7292
13.1542
13.6474
10.701
12.8821
12.1393
13.5519
13.7494
11.9571
15.1207
14.8663
14.5055
19.5372
19.4171
18.87
10.3954
10.786
8.89678
17.4057
15.9306
15.917
14.6066
14.9231
15.4994
7.32396
7.18863
7.07309
7.92361
7.79846
8.07978
5.24198
6.09101
6.17092
8.2394
8.16386
8.28778
6.8765
6.95032
7.11659
8.40755
8.52446
8.55113
10.8041
10.2726
9.1064
10.2564
10.7068
10.917
13.7864
13.8899
14.2571
11.1214
11.318
10.9006
9.4248
11.4197
10.9727
5.61725
5.61237
5.53339
6.13521
6.0423
6.05626
4.69197
5.22425
5.34134
5.99578
5.8274
5.86855
5.29955
5.3314
5.45524
6.90633
6.73386
6.80435
5.9131
5.96046
6.13882
8.14504
7.77343
7.60124
5.93156
5.96143
5.49553
8.17279
8.72059
8.28055
4.78764
4.50922
4.56108
4.35732
4.39673
4.53612
5.348
5.23478
5.26783
4.57975
4.63203
4.94781
4.96267
4.63629
4.65085
4.40175
4.43874
4.88304
6.66796
6.49447
6.44049
5.25672
5.95703
5.99109
5.77493
5.79964
5.36268
5.40166
5.85976
5.89345
6.02874
6.07203
5.28693
6.8061
6.93446
6.72997
4.07331
4.00629
4.03846
3.8236
3.85313
3.90218
4.39693
4.2812
4.31874
4.07121
4.10459
4.18655
5.01752
4.60632
4.62932
4.28277
4.33468
4.95243
5.34263
5.73072
5.7518
5.96667
6.04173
5.33571
5.98696
6.10317
6.04321
3.5292
3.36312
3.41369
3.25887
3.33521
3.5014
3.80126
3.76468
3.79387
5.24211
4.24715
4.35721
5.82115
5.56453
4.56638
10.0118
6.55661
6.96439
6.06916
6.59837
9.74502
34.9326
35.6223
32.5515
3.32916
2.83743
2.78618
2.94481
2.89036
3.37681
3.8734
3.94617
3.69071
4.29197
4.15234
4.07236
4.32164
4.2356
4.33709
3.31062
2.96592
3.00854
2.71992
2.7772
3.14276
4.52777
4.59095
5.21174
22.1946
25.1491
24.3988
21.6446
22.7357
21.619
16.2933
10.4471
8.51725
12.3489
11.0273
16.9081
7.50055
9.12116
9.8346
4.69304
4.48781
4.40968
4.70105
4.54051
4.74776
4.03695
4.36886
4.46429
3.41877
3.24822
3.24748
3.23995
3.23867
3.39734
3.01368
2.63018
2.66863
5.98995
5.94564
5.78729
5.33396
5.88384
5.94159
5.79083
5.85917
5.33802
3.38753
3.24264
3.24157
3.22714
3.22983
3.35971
5.35788
5.76858
5.77837
5.77002
5.76598
5.35907
5.55953
5.7683
5.74647
6.06869
10.3746
14.2339
6.05849
9.03337
5.61972
16.7659
10.7462
6.80725
12.4867
14.6088
16.5913
6.53299
11.4179
8.22782
14.729
12.5718
6.87539
22.5621
22.7327
19.5674
30.7435
23.8133
22.0064
27.9254
28.3489
29.8014
18.0911
21.1154
21.7814
4.09602
4.17482
4.8966
4.99657
4.72175
4.73233
3.53956
3.25058
3.27373
3.05015
3.08781
3.40583
3.5437
4.21363
4.17916
4.28105
4.24742
3.57047
5.06551
4.69394
4.71365
12.3119
12.9519
11.5625
10.9219
11.4274
12.0922
15.9012
15.8549
15.4196
18.1149
17.8025
18.8205
11.9123
13.8603
13.847
17.1762
16.775
16.7342
17.6596
17.9273
17.5569
7.52258
7.61315
7.75377
7.50104
7.34962
7.43496
9.3761
9.50832
9.42653
9.08229
9.12061
9.24722
9.49676
9.65649
9.00848
10.7362
10.8176
10.5464
11.373
11.0963
10.9637
9.85552
9.78229
9.54447
10.2838
10.0285
10.0694
8.57028
9.19745
9.34489
12.9144
13.1692
12.9564
12.461
13.1148
12.8345
13.6335
13.3823
12.6285
11.6432
11.9556
11.6632
12.5441
12.2495
11.8631
12.0322
12.3991
12.6515
5.5871
5.62724
5.77217
5.64764
5.50929
5.54769
6.34565
6.40651
6.58483
6.40891
6.22849
6.28624
6.15976
6.21964
5.62429
7.80708
7.55672
7.43182
7.83214
7.68977
7.93707
7.35575
7.11091
7.01057
7.31569
7.20929
7.45992
5.46191
6.06422
6.10712
9.05802
8.88619
8.6862
9.31563
9.09635
9.24792
8.37184
8.14418
7.98353
8.49534
8.31497
8.53217
4.50537
4.49265
4.73674
3.6145
3.84862
3.84626
3.83956
3.83435
3.5495
4.58405
4.43267
4.46894
5.00312
4.64676
4.69395
4.55576
4.57222
4.94021
4.91074
4.50544
4.53281
5.73537
5.74072
5.31085
6.99315
6.75003
6.67491
6.91662
6.83012
7.07611
6.70091
6.47403
6.41547
6.60375
6.53662
6.76809
5.32341
5.70976
5.72192
3.42613
3.22057
3.22273
3.2433
3.23563
3.41966
4.20876
4.24464
4.35262
3.62371
3.81978
3.81581
3.83917
3.83387
3.60323
3.61377
3.94914
3.9252
3.99715
3.97296
3.61463
4.2264
4.1386
4.17337
3.40205
3.15195
3.15657
3.22142
3.21297
3.42631
4.56078
4.58323
5.00419
3.154
3.52823
3.48979
3.73938
3.70981
3.37734
3.44666
3.4024
2.99128
4.96309
4.50188
4.53134
3.2399
2.93389
2.93216
2.92771
2.93591
3.2306
3.34433
3.22317
3.22499
3.56791
2.83468
3.22582
3.29484
3.31604
3.59683
2.89606
2.64241
2.59793
2.73653
2.68832
3.03761
3.68922
3.59952
3.54335
3.71999
3.65814
3.74554
4.05143
3.99507
3.39269
5.15447
4.16621
4.15762
4.26015
4.24736
5.2557
3.97641
3.85261
3.78545
3.99578
3.92256
4.01223
3.514
3.73774
3.80401
2.33335
2.32928
2.42588
3.14105
2.90044
2.87113
2.89924
2.89747
3.12152
3.89457
3.24895
3.17876
3.36586
3.49035
3.93476
2.34537
2.39076
2.51656
16.8871
22.4751
29.635
15.2963
18.426
14.7429
30.8215
22.93
18.269
27.5212
30.873
33.3455
17.4197
25.5526
19.6238
30.5486
27.5277
18.9254
8.41782
8.29634
8.75348
7.13042
7.72894
7.81022
7.55588
7.64413
7.07537
13.7603
13.234
12.8983
6.52958
6.42757
6.46367
5.98441
6.24958
6.33946
6.07343
6.16084
5.90762
6.29238
6.61506
6.70861
6.4304
6.52231
6.2154
6.80779
6.7402
6.6337
4.31934
4.30829
4.83253
4.73223
4.74992
5.09562
3.86321
4.33675
4.3126
4.38483
4.36103
3.89583
3.33493
3.2407
3.24366
3.17606
3.20798
3.29262
2.84501
2.99272
2.98791
13.7134
13.4015
11.1889
20.5137
16.1194
16.2747
14.7745
15.6316
20.4398
15.5671
15.2132
15.4178
15.7055
15.8553
17.142
12.995
14.4446
14.4341
14.2427
14.384
12.8491
12.984
14.0641
13.8625
14.3608
14.2348
13.0428
15.9627
15.2279
15.4928
7.42696
7.30662
7.46485
6.59638
6.99289
7.08851
6.80288
6.89763
6.52175
6.88361
7.37291
7.4654
7.18386
7.27889
6.81529
7.91837
7.67318
7.54911
7.91891
8.03862
8.13654
7.38425
7.79891
7.65266
8.11654
7.96187
7.61441
6.20907
6.65995
6.5856
6.81575
6.73663
6.28474
7.18995
7.02621
7.10417
8.10877
8.38629
8.25621
8.63901
8.51259
8.24042
8.65383
8.64024
8.75693
10.256
10.4961
9.9744
11.0953
10.9826
10.7427
9.27645
8.95512
8.82477
9.22526
9.08852
9.40731
5.68226
5.90266
5.98723
5.73797
5.8194
5.60793
5.96238
5.95159
5.86332
5.74896
5.78797
5.94956
5.19231
5.54046
5.5146
5.59422
5.56527
5.18491
6.59792
6.66492
6.83883
5.92946
6.37345
6.30618
6.51329
6.44263
5.99747
5.24498
5.67376
5.63058
5.77301
5.72179
5.29041
6.19082
6.01064
6.0626
7.31589
6.95434
6.88519
7.10154
7.02689
7.38939
6.42013
6.38456
6.71584
5.50139
5.98731
6.00446
8.78955
8.45489
8.3383
8.69745
8.57446
8.90798
7.6158
7.25804
7.17856
7.42733
7.34117
7.69951
4.60477
4.62051
4.9582
3.77406
4.22402
4.19664
4.28103
4.2542
3.82596
4.89145
4.45806
4.46428
5.88563
5.91925
5.40535
6.46518
6.26004
6.21568
6.36052
6.30831
6.51971
6.26347
6.09741
6.06194
6.17446
6.13559
6.31823
5.37198
5.82609
5.8547
3.94379
3.97472
4.03745
3.58338
3.85186
3.8277
3.90088
3.8763
3.58874
3.581
3.75024
3.7255
3.8013
3.77549
3.59791
3.93504
3.88295
3.91318
2.75784
2.56375
2.56609
2.56393
2.56238
2.75858
3.70844
3.73607
3.76927
3.51412
3.65293
3.62955
3.70106
3.67682
3.53127
2.56843
2.57019
2.75731
33.0582
35.6314
35.0595
2.89549
2.92727
3.27855
3.18278
2.82731
2.8653
25.1909
25.3885
22.6434
27.9506
28.4336
31.9484
22.1925
23.7589
24.6217
3.24389
3.24652
3.4146
2.83991
3.05243
3.0492
2.82991
3.04857
3.05581
3.04632
3.04557
2.82441
3.40182
3.23919
3.24101
3.23981
3.24197
3.38244
2.8907
3.07665
3.07728
3.06494
3.07264
2.88256
24.1922
25.2124
24.627
26.1268
25.7266
24.4597
22.3531
22.4974
21.798
23.9805
23.2215
22.9018
12.6007
12.3159
12.8663
3.76345
3.33638
3.39255
3.26325
3.28921
3.72787
3.89546
3.50578
3.53599
3.44142
3.47756
3.86853
3.19299
3.22396
3.51864
2.57444
2.9071
2.86787
2.96598
2.93943
2.61145
2.82477
2.78298
2.41756
3.43683
3.1233
3.15905
13.0133
13.0541
13.379
12.3966
12.7315
12.7447
14.0644
14.4329
14.7785
13.7175
14.0721
13.8097
10.8853
10.47
10.7144
11.8903
11.6187
12.0288
10.9754
11.2719
11.6087
16.7053
16.2873
16.4962
14.984
15.7312
16.0028
15.1114
15.4315
14.7834
16.3996
16.3531
15.9452
18.6297
18.2882
17.9389
18.2555
18.4163
18.8794
17.5076
17.9536
17.7008
6.88008
7.33047
7.23918
7.5309
7.42637
6.97702
7.84317
7.70798
7.80908
7.18428
7.26608
7.42085
6.5266
6.97974
6.89699
7.15042
7.0641
6.61036
8.87541
8.99669
8.97304
8.64378
8.89905
8.76749
9.17073
9.03363
8.78496
10.4089
10.1441
9.97618
10.523
10.3248
10.5726
9.17859
9.83083
10.0287
8.90937
9.05228
8.43115
9.81369
9.51259
9.36664
9.81665
9.66271
9.95821
5.12262
5.41349
5.37674
5.48433
5.44989
5.15398
5.8166
5.66814
5.7089
5.67768
6.11531
6.05445
6.24095
6.17743
5.73817
6.64681
6.46894
6.53261
6.11659
6.17182
6.35186
5.44799
5.88147
5.8265
5.9952
5.93764
5.50284
7.05707
6.6937
6.63565
6.81877
6.75515
7.12032
5.68921
6.28272
6.34804
6.0163
6.03381
5.44501
6.84454
6.49238
6.45614
6.58194
6.5345
6.89507
8.35114
8.00672
7.90305
8.22415
8.11368
8.4577
7.95988
7.60782
7.51639
7.8015
7.7029
8.05498
4.30993
4.09921
4.09831
4.08906
4.09586
4.29918
4.35005
4.10038
4.11033
4.09554
4.09523
4.33829
3.84262
3.84654
3.60766
4.21405
4.0486
4.05525
4.26309
4.0721
4.08035
4.06012
4.06511
4.25013
3.55282
3.83313
3.83684
4.10914
4.13002
4.46971
4.40492
4.14136
4.13941
4.12252
4.13406