/*--------------------------------*- C++ -*----------------------------------*\
| =========                 |                                                 |
| \\      /  F ield         | OpenFOAM: The Open Source CFD Toolbox           |
|  \\    /   O peration     | Version:  5.x                                   |
|   \\  /    A nd           | Web:      www.OpenFOAM.org                      |
|    \\/     M anipulation  |                                                 |
\*---------------------------------------------------------------------------*/
FoamFile
{
    version     2.0;
    format      ascii;
    class       volScalarField;
    location    "7200";
    object      nut;
}
// * * * * * * * * * * * * * * * * * * * * * * * * * * * * * * * * * * * * * //

dimensions      [0 2 -1 0 0 0 0];

internalField   nonuniform List<scalar> 
6584
(
0.0700811
0.0700811
0.0700811
0.0700812
0.0700814
0.0700818
0.070083
0.070086
0.0700928
0.0701043
0.070119
0.0701341
0.0701428
0.0701406
0.0701296
0.0701145
0.0701006
0.0700911
0.0700857
0.0700829
0.0700815
0.0700808
0.0700806
0.0700803
0.0696974
0.069698
0.069698
0.0696981
0.0696985
0.0696998
0.0697028
0.0697096
0.0697224
0.0697479
0.0697729
0.0697955
0.0698097
0.0698104
0.0697986
0.069772
0.0697466
0.0697264
0.069713
0.0697052
0.069701
0.0696988
0.069698
0.0696968
0.0693352
0.0693355
0.0693356
0.0693355
0.0693362
0.0693388
0.0693447
0.0693578
0.0693873
0.0695324
0.0696073
0.0696441
0.0696673
0.0696724
0.0696576
0.0695026
0.0694423
0.0694002
0.0693717
0.069354
0.069344
0.069339
0.0693361
0.0693343
0.0689924
0.0689926
0.0689926
0.068993
0.0689942
0.0689986
0.0690096
0.0690345
0.0690863
0.0692358
0.0693672
0.0694614
0.0695236
0.0695315
0.0694899
0.069401
0.0692096
0.0691228
0.0690676
0.0690325
0.0690121
0.0690007
0.0689947
0.0689913
0.0686675
0.068668
0.068668
0.0686687
0.0686712
0.0686785
0.0686978
0.0687499
0.0688994
0.0690557
0.0692932
0.0695179
0.0696647
0.0696376
0.0695323
0.0693507
0.0691434
0.0689106
0.0688078
0.0687448
0.0687065
0.068685
0.0686735
0.0686669
0.0683594
0.0683605
0.0683606
0.0683619
0.0683664
0.0683787
0.0684162
0.068566
0.0686978
0.0689867
0.0693621
0.0701216
0.0708258
0.0704853
0.0699502
0.0695463
0.069159
0.0687683
0.0685979
0.068494
0.0684298
0.0683926
0.0683725
0.0683605
0.0680671
0.0680692
0.0680699
0.0680723
0.0680794
0.0680983
0.0681508
0.0683125
0.0685559
0.0690898
0.0701412
0.0732573
0.0813518
0.0759644
0.0717301
0.0701355
0.069381
0.0687286
0.0684488
0.0682844
0.068184
0.0681249
0.0680923
0.0680722
0.0677895
0.067793
0.0677946
0.0677988
0.067809
0.0678351
0.0679025
0.068091
0.0684497
0.0693281
0.0720483
0.0908765
0.0737171
0.0762204
0.071453
0.069856
0.0688042
0.0683682
0.0681189
0.0679706
0.0678827
0.0678333
0.0678019
0.0675257
0.0675306
0.0675335
0.06754
0.0675537
0.0675866
0.0676667
0.067885
0.0683414
0.0695261
0.0740163
0.0879049
0.040689
0.0743608
0.0730097
0.0705464
0.0689777
0.0683531
0.067997
0.0677893
0.0676657
0.0675956
0.0675496
0.0672744
0.0672808
0.0672852
0.067294
0.067311
0.0673496
0.0674389
0.0676789
0.0682008
0.0695475
0.0749933
0.0751863
0.0334148
0.0659127
0.0736469
0.0712677
0.0692125
0.0683898
0.0679145
0.0676381
0.067473
0.0673783
0.0673149
0.0670345
0.0670422
0.0670479
0.067059
0.0670787
0.0671216
0.0672164
0.0674668
0.0680218
0.0694065
0.0748867
0.0680861
0.0310941
0.0592699
0.0730753
0.0718125
0.0694654
0.06846
0.067864
0.067514
0.0673025
0.06718
0.067097
0.0668051
0.0668137
0.0668206
0.0668336
0.0668556
0.0669012
0.0669981
0.0672496
0.0678137
0.0691705
0.0741768
0.0652535
0.030678
0.0547156
0.0716101
0.0720549
0.0696987
0.0685472
0.0678377
0.0674122
0.0671518
0.0669986
0.0668944
0.066585
0.0665942
0.0666021
0.0666167
0.0666402
0.0666871
0.0667836
0.0670304
0.0675871
0.0688873
0.0732939
0.0645033
0.0311985
0.051143
0.0695169
0.0719288
0.0698818
0.0686372
0.0678289
0.067329
0.067018
0.066832
0.0667056
0.0663734
0.0663828
0.0663915
0.0664072
0.0664317
0.0664784
0.066571
0.066833
0.0673163
0.0685825
0.0723401
0.0644757
0.00309558
0.0331727
0.0480012
0.0668951
0.0713795
0.0699821
0.0687171
0.0678315
0.0672609
0.0668989
0.0666787
0.0665294
0.0661696
0.0661788
0.066188
0.0662044
0.0662294
0.0662751
0.0663629
0.0666124
0.0670439
0.0682759
0.071404
0.0629165
0.0108452
0.0357054
0.0471519
0.0636596
0.0701907
0.0698341
0.0687449
0.0678311
0.0672021
0.0667931
0.0665375
0.0663649
0.065973
0.0659817
0.0659912
0.0660079
0.066033
0.0660771
0.0661601
0.066395
0.0667903
0.0679435
0.070803
0.0634819
0.0160763
0.0361492
0.0446174
0.060171
0.0689961
0.0694855
0.0687046
0.0678221
0.0671521
0.0666969
0.0664057
0.0662104
0.065783
0.0657911
0.0658006
0.0658173
0.0658421
0.0658844
0.0659629
0.0661819
0.0666497
0.0675641
0.0700016
0.0595326
0.0208004
0.0330308
0.0426638
0.0566875
0.0673847
0.0688907
0.0685618
0.0677886
0.0671057
0.0666119
0.0662847
0.0660657
0.0655991
0.0656065
0.065616
0.0656324
0.0656566
0.0656968
0.0657715
0.0659746
0.0664178
0.0675862
0.0691987
0.0599793
0.0243603
0.0302141
0.0428149
0.0542669
0.0642935
0.0678016
0.0682472
0.0677062
0.0670541
0.0665344
0.0661737
0.0659311
0.0654211
0.0654278
0.065437
0.065453
0.0654766
0.0655149
0.065586
0.0657735
0.0661904
0.0672337
0.0675078
0.0509518
0.0270856
0.0308366
0.0407437
0.0513612
0.0613097
0.0663227
0.0677154
0.0675453
0.0669852
0.0664607
0.0660719
0.0658063
0.0652485
0.0652545
0.0652633
0.0652789
0.0653018
0.0653385
0.0654058
0.0655786
0.0659686
0.0668985
0.066934
0.0519911
0.0290326
0.0301775
0.0388683
0.0488162
0.0585059
0.0645702
0.0669495
0.0672765
0.0668835
0.0663849
0.0659776
0.065691
0.065081
0.0650864
0.0650949
0.0651098
0.065132
0.0651672
0.0652309
0.06539
0.0657531
0.066581
0.0664546
0.0530155
0.0311064
0.029995
0.0372426
0.0465493
0.0559084
0.0626541
0.0659593
0.0668765
0.0667311
0.0662987
0.0658879
0.0655843
0.0649185
0.0649232
0.0649313
0.0649456
0.064967
0.0650007
0.0650608
0.0652074
0.0655443
0.0662809
0.06605
0.05401
0.0332454
0.0302073
0.0359053
0.0445163
0.0535137
0.0606636
0.0647742
0.0663311
0.0665104
0.0661919
0.0657986
0.0654849
0.0647605
0.0647647
0.0647723
0.064786
0.0648065
0.0648387
0.0648956
0.0650306
0.0653421
0.0659977
0.0657046
0.0549598
0.0354018
0.0307439
0.0348735
0.0426977
0.0513069
0.0586622
0.063433
0.0656368
0.0662057
0.0660527
0.0657039
0.0653904
0.0646069
0.0646107
0.0646179
0.0646308
0.0646505
0.0646812
0.0647349
0.0648594
0.0651466
0.0657305
0.0654058
0.0558525
0.0375375
0.0315432
0.0341485
0.04109
0.0492739
0.0566924
0.0619778
0.0647995
0.0658051
0.0658695
0.0655968
0.0652978
0.0644575
0.0644608
0.0644676
0.0644798
0.0644986
0.064528
0.0645786
0.0646935
0.0649576
0.0654782
0.0651438
0.0566791
0.0396224
0.0325517
0.0337185
0.039697
0.0474043
0.054781
0.0604478
0.0638336
0.0653019
0.065631
0.0654695
0.0652029
0.0643121
0.064315
0.0643213
0.0643329
0.0643508
0.0643787
0.0644265
0.0645326
0.064775
0.0652396
0.0649109
0.0574313
0.0416265
0.03372
0.0335628
0.0385252
0.0456965
0.0529479
0.0588797
0.0627599
0.0646949
0.065328
0.0653138
0.0651008
0.0641704
0.064173
0.0641789
0.0641897
0.0642068
0.0642334
0.0642785
0.0643764
0.0645988
0.0650141
0.0647007
0.058108
0.0435315
0.0350045
0.0336535
0.0375784
0.0441534
0.0512079
0.0573037
0.0616001
0.0639895
0.0649548
0.0651222
0.0649862
0.0640323
0.0640346
0.0640401
0.0640503
0.0640665
0.0640917
0.0641343
0.0642248
0.0644287
0.0648004
0.0645087
0.0587119
0.0453306
0.0363752
0.0339625
0.0368505
0.0427699
0.049561
0.0557358
0.0603723
0.06319
0.064506
0.064887
0.0648531
0.0638976
0.0638997
0.0639047
0.0639143
0.0639296
0.0639536
0.0639938
0.0640776
0.0642644
0.0645976
0.0643311
0.0592451
0.0470143
0.0378019
0.0344608
0.0363363
0.0415496
0.0480143
0.0541925
0.0590964
0.0623059
0.0639794
0.0646016
0.0646952
0.0637661
0.063768
0.0637727
0.0637817
0.0637962
0.0638189
0.0638569
0.0639346
0.0641056
0.0644047
0.064165
0.0597109
0.048577
0.0392582
0.03512
0.0360266
0.0404961
0.0465744
0.0526882
0.0577901
0.0613485
0.0633764
0.0642609
0.0645065
0.0636378
0.0636395
0.0636438
0.0636523
0.0636659
0.0636875
0.0637235
0.0637955
0.063952
0.0642209
0.0640082
0.0601138
0.0500162
0.0407213
0.0359131
0.035909
0.0396115
0.0452478
0.0512345
0.0564691
0.0603303
0.0627
0.0638615
0.0642813
0.0635125
0.063514
0.063518
0.0635259
0.0635387
0.0635594
0.0635933
0.0636601
0.0638033
0.0640455
0.0638592
0.0604586
0.051332
0.0421717
0.0368145
0.0359683
0.0388956
0.0440405
0.0498413
0.0551485
0.0592633
0.0619555
0.0634016
0.0640147
0.0633899
0.0633913
0.063395
0.0634023
0.0634145
0.0634342
0.0634662
0.0635282
0.0636593
0.0638777
0.0637164
0.0607506
0.0525271
0.0435932
0.0378007
0.036188
0.038346
0.0429578
0.0485179
0.0538404
0.0581605
0.0611492
0.0628811
0.0637027
0.0632702
0.0632714
0.0632748
0.0632816
0.0632932
0.0633118
0.0633421
0.0633997
0.0635197
0.0637171
0.063579
0.0609948
0.0536052
0.0449715
0.0388495
0.0365498
0.0379576
0.0420038
0.0472721
0.052556
0.0570332
0.0602892
0.0623015
0.0633424
0.0631536
0.0631547
0.0631578
0.0631642
0.0631751
0.0631928
0.0632213
0.0632748
0.0633848
0.0635635
0.0634468
0.061197
0.0545738
0.0462986
0.0399443
0.0370374
0.0377239
0.0411818
0.0461123
0.0513065
0.0558936
0.0593842
0.0616666
0.0629329
0.0630538
0.0630549
0.0630578
0.0630638
0.0630741
0.0630907
0.0631177
0.0631675
0.0632686
0.0634311
0.0633337
0.0613724
0.0554371
0.0475528
0.0410545
0.0376287
0.0376421
0.0405072
0.0450663
0.0501291
0.0547836
0.0584742
0.0610076
0.062497
0.0896151
0.0385884
0.0690037
0.0764853
0.0309916
0.0371255
0.0686886
0.0286871
0.030508
0.0654683
0.0287083
0.0285961
0.0645201
0.0298149
0.0287969
0.0645549
0.00468776
0.00267561
0.031934
0.030013
0.0883984
0.0808279
0.0759711
0.0761418
0.0735941
0.0902036
0.0855593
0.0300052
0.0490069
0.0424082
0.0734161
0.0777895
0.0748617
0.0815773
0.0894306
0.0826288
0.0461489
0.0552243
0.0141947
0.0199803
0.0339434
0.0610154
0.070169
0.0749921
0.0742898
0.0804719
0.0718698
0.0381024
0.0398323
0.00835543
0.0095175
0.0312467
0.053437
0.0586503
0.0743822
0.0705515
0.0736459
0.0666642
0.0393809
0.0383832
0.012748
0.0100963
0.0306676
0.0491483
0.0521644
0.0183072
0.0163125
0.0310956
0.0461134
0.048324
0.0240653
0.0215495
0.0627586
0.0157897
0.00519471
0.00919216
0.0353195
0.0322755
0.0569857
0.0727213
0.0934714
0.0655025
0.0485964
0.0926829
0.0683573
0.0205164
0.0294764
0.0452208
0.0314384
0.0230402
0.0402522
0.0451033
0.0809612
0.0387633
0.0336643
0.0468709
0.0393308
0.00963692
0.0139879
0.0329198
0.0164598
0.0128729
0.0223837
0.0166913
0.0337606
0.038253
0.0380357
0.07095
0.0322857
0.0333872
0.0334863
0.0322599
0.0100587
0.00830213
0.0291798
0.0114087
0.012522
0.0127603
0.0114679
0.0294309
0.0340203
0.0360317
0.033502
0.0337147
0.0161271
0.0130133
0.0285197
0.0150341
0.0181485
0.0125994
0.0148428
0.0285001
0.0385534
0.0403834
0.0363119
0.0382783
0.0211931
0.0186765
0.0184484
0.0205423
0.0291558
0.0428459
0.0433864
0.0406967
0.0425931
0.027857
0.0244577
0.0938977
0.0753611
0.0963618
0.0203996
0.0392259
0.0735192
0.0690349
0.0702686
0.0647884
0.0428865
0.0412884
0.0139957
0.0115667
0.0323669
0.043587
0.0454425
0.0684296
0.0431026
0.0517576
0.0326855
0.0493263
0.0410617
0.0395801
0.0663013
0.00859936
0.0114094
0.0199471
0.0218703
0.011576
0.0143067
0.011186
0.00827741
0.0293018
0.0208426
0.0229671
0.0221515
0.0238255
0.0232754
0.0255007
0.0307009
0.102332
0.0978205
0.0961799
0.0548904
0.0938776
0.101528
0.019017
0.0357178
0.0220499
0.0411635
0.0235481
0.0377875
0.0159074
0.016769
0.00889428
0.00894714
0.0114945
0.0111656
0.0172183
0.00671559
0.0175858
0.0166143
0.0143379
0.0133809
0.0155518
0.0226167
0.0212634
0.0572654
0.0185237
0.0290098
0.0177191
0.0547203
0.0305296
0.0474032
0.0778755
0.039408
0.0224361
0.023889
0.0244956
0.0354106
0.0351356
0.0436011
0.0429981
0.0104844
0.0106697
0.0136948
0.0253261
0.0263972
0.0242476
0.0250257
0.0135975
0.0190853
0.0286723
0.0304087
0.0268029
0.0281557
0.0184847
0.032704
0.0327537
0.0326161
0.0325162
0.00786956
0.00792086
0.0110594
0.0227618
0.0228993
0.0227841
0.0227512
0.0110463
0.0121006
0.0234694
0.0240257
0.0229787
0.02332
0.0120226
0.00870302
0.0349152
0.0120761
0.00899459
0.0151884
0.0122759
0.0351843
0.0325116
0.00907792
0.032789
0.0147783
0.0145576
0.0135232
0.0229434
0.0228095
0.0232517
0.023008
0.0137497
0.0174653
0.0195777
0.0371586
0.0180939
0.0154447
0.0206913
0.0184147
0.0374404
0.0146167
0.0171605
0.0201218
0.0104106
0.0130449
0.00704605
0.00997055
0.0197614
0.00761854
0.0243661
0.0256022
0.00548969
0.02406
0.0239669
0.00498189
0.0188609
0.0169201
0.0284662
0.072606
0.06988
0.0689411
0.0645249
0.0477207
0.0467624
0.00605479
0.0273415
0.0280131
0.0424749
0.0445554
0.0431072
0.0646877
0.00701697
0.0076414
0.00242286
0.0251202
0.0254846
0.00830517
0.00959077
0.017911
0.0197407
0.00111523
0.0835478
0.0944498
0.0725444
0.0431558
0.0751248
0.08027
0.0494308
0.069672
0.0662562
0.0146502
0.0125039
0.0183794
0.0385954
0.0572701
0.0562202
0.0591922
0.0577005
0.0388413
0.00858659
0.00927448
0.0121628
0.0101693
0.00948645
0.00794386
0.0229737
0.015851
0.0183574
0.0418931
0.0432752
0.0112653
0.0813887
0.0503798
0.0735847
0.0216031
0.0140386
0.012899
0.0278089
0.0343353
0.0378587
0.03107
0.0334002
0.0266923
0.0418112
0.0618071
0.0597801
0.0652546
0.0625847
0.0424501
0.0369317
0.0206783
0.0245794
0.0184475
0.0188452
0.0342181
0.0253601
0.0265766
0.0408486
0.00991809
0.011702
0.0147278
0.0213469
0.0214979
0.0194465
0.0198193
0.0131775
0.0559195
0.0552207
0.038
0.0325134
0.0191533
0.017536
0.0330582
0.0180073
0.0183353
0.0172871
0.0172604
0.0322688
0.00901714
0.00810255
0.0112207
0.01808
0.0181545
0.0175722
0.0182536
0.0118934
0.0124697
0.0190157
0.0193292
0.0181926
0.0183278
0.0116937
0.0155392
0.00942248
0.0105358
0.00705781
0.00696495
0.0136748
0.0169598
0.0236779
0.0233491
0.0241777
0.0238008
0.0172581
0.0393605
0.0228587
0.0209768
0.0260027
0.0247699
0.0396213
0.0130776
0.013717
0.0415576
0.0276434
0.0264293
0.0122978
0.012892
0.0115726
0.00986828
0.0268747
0.0311367
0.0298346
0.0064338
0.0129975
0.00661161
0.007813
0.00655791
0.0126732
0.0567841
0.032558
0.0506824
0.0273349
0.0530498
0.00918506
0.00994628
0.00736197
0.00706683
0.0208
0.0102205
0.00970875
0.011262
0.0103508
0.0210451
0.0122539
0.0127542
0.00995968
0.00947957
0.0229171
0.012896
0.0117862
0.00974319
0.0103302
0.0178248
0.0259982
0.029687
0.02193
0.0249259
0.0169327
0.0148122
0.0180708
0.00864138
0.00918913
0.0120364
0.0102783
0.00648816
0.0119966
0.011046
0.0131883
0.0123253
0.00656772
0.00928465
0.00866113
0.0107658
0.00964496
0.0156911
0.0103405
0.0116395
0.00853493
0.00981915
0.0153652
0.00727266
0.00661379
0.0207274
0.0420356
0.03816
0.048983
0.0434796
0.0218687
0.031558
0.0298129
0.0365248
0.0322815
0.0374843
0.0567129
0.0506169
0.032317
0.0298264
0.01715
0.0144767
0.0220728
0.0143611
0.0182852
0.0209929
0.0148576
0.0174745
0.0265276
0.0199339
0.0176159
0.0195888
0.0201864
0.0364336
0.0146594
0.0136179
0.019299
0.01516
0.0127976
0.0124404
0.0134046
0.012947
0.0344442
0.0189928
0.0194295
0.023549
0.0221694
0.0291004
0.0247572
0.0207885
0.0199346
0.0218789
0.0210509
0.0413542
0.0269086
0.0279045
0.01005
0.0114603
0.020563
0.0211383
0.0142222
0.0132909
0.0199572
0.0203985
0.0199761
0.0195258
0.0325689
0.0148661
0.0152662
0.0115839
0.0143304
0.0153882
0.0162866
0.0152917
0.0153451
0.01764
0.0179094
0.0329212
0.0119766
0.0117236
0.012352
0.0120606
0.0113206
0.0113017
0.0116386
0.0114199
0.032332
0.017331
0.017553
0.00839795
0.0080467
0.0180605
0.0180616
0.0111685
0.0115524
0.018203
0.0180676
0.0186618
0.0189179
0.0123729
0.0117641
0.0183862
0.0185836
0.00890533
0.0104967
0.0229061
0.0239428
0.0216843
0.0225613
0.0096655
0.0139175
0.0254177
0.0242985
0.0242282
0.0251205
0.0133283
0.0183028
0.0187895
0.0168991
0.0181138
0.00946742
0.0205586
0.0214428
0.0190101
0.0201398
0.00940566
0.00850606
0.0091828
0.0153536
0.00675031
0.00691461
0.00834268
0.00688114
0.00685766
0.013865
0.00693168
0.00793067
0.0182686
0.00734882
0.00751367
0.00930971
0.00752426
0.0185681
0.00744129
0.0155093
0.0076275
0.0159207
0.0085616
0.0143328
0.0134758
0.0154582
0.0146204
0.0088194
0.00651777
0.00649988
0.0140179
0.0148247
0.0107462
0.0120396
0.0142328
0.0122026
0.0791716
0.0768135
0.0725708
0.0309668
0.026798
0.0292194
0.061536
0.070001
0.050654
0.0349631
0.0567577
0.0596103
0.0858565
0.0916305
0.0574649
0.0751876
0.0709313
0.0506904
0.0143525
0.0111991
0.0110343
0.00842228
0.00942041
0.0544814
0.0542622
0.0386875
0.00760173
0.00751067
0.0101123
0.0108256
0.0115411
0.0168595
0.0630518
0.0817384
0.0767082
0.0353511
0.0375197
0.0504004
0.0233379
0.0207646
0.0272656
0.0463862
0.0309806
0.0345477
0.00971765
0.0108619
0.0106622
0.0136474
0.0154858
0.0155948
0.0129719
0.0219829
0.0224314
0.0171972
0.0380235
0.0550234
0.0545991
0.021128
0.0203977
0.0330493
0.00992209
0.00781506
0.0077096
0.00825652
0.0113523
0.0140127
0.0140605
0.0126552
0.0152662
0.0153743
0.0141116
0.0141687
0.011536
0.032003
0.022435
0.0215158
0.0127851
0.0178057
0.0176874
0.0193633
0.0247801
0.0243142
0.00646824
0.00645863
0.0291399
0.0280425
0.0418226
0.0065292
0.00649253
0.0188996
0.0208877
0.0257982
0.0215978
0.0188773
0.00858484
0.00823843
0.00838515
0.0111631
0.0117294
0.00802204
0.0081101
0.0106377
0.0102023
0.0138918
0.00652824
0.00657801
0.00868778
0.0138533
0.0131134
0.0231455
0.0765017
0.0745716
0.0448359
0.0170375
0.0196527
0.023086
0.0248208
0.0165495
0.0171978
0.0311561
0.0368215
0.029783
0.0129063
0.0125958
0.0153365
0.0173812
0.0149269
0.0142787
0.00879178
0.00901084
0.00906064
0.00936246
0.0117363
0.0107937
0.00789142
0.00847594
0.00675551
0.00662186
0.00911042
0.00882384
0.00656676
0.00661444
0.00663255
0.017042
0.0118386
0.0127513
0.0200865
0.019164
0.0266684
0.0256105
0.0361376
0.0339466
0.026928
0.017118
0.0167561
0.0238722
0.0206541
0.0160735
0.0621028
0.0587821
0.0401217
0.0365233
0.0269775
0.029515
0.0238325
0.0145043
0.0157534
0.0282365
0.0298553
0.0456678
0.016389
0.016006
0.0103347
0.0109011
0.0241605
0.02483
0.020381
0.0173847
0.0229112
0.0234855
0.0329686
0.020293
0.0200575
0.00787167
0.00796502
0.0146905
0.0147761
0.0121816
0.0119279
0.0145228
0.0146077
0.0088422
0.0118074
0.0157411
0.0160537
0.0131329
0.0133301
0.00899199
0.0231963
0.0226342
0.0322558
0.00946349
0.00941361
0.0100955
0.0101857
0.00920337
0.0128067
0.0129796
0.0094583
0.00971778
0.0181199
0.0179489
0.0128964
0.0142244
0.0184741
0.0182989
0.01677
0.0257479
0.0262607
0.0247635
0.0252389
0.0163357
0.0115588
0.0156931
0.0157217
0.0166926
0.0161934
0.0119575
0.00761052
0.00992799
0.00949393
0.00701551
0.00640317
0.00642899
0.00647359
0.00773693
0.00790137
0.00678214
0.0247128
0.0153131
0.014213
0.0163162
0.0155956
0.023573
0.00815591
0.00874206
0.0120246
0.0134445
0.0178957
0.0358625
0.0351338
0.0306671
0.00703855
0.00722649
0.0135993
0.0136032
0.00301899
0.00898475
0.00720589
0.00716321
0.00700233
0.00711853
0.00936895
0.00174838
0.00868162
0.0135479
0.0583716
0.056584
0.0373943
0.0116323
0.011395
0.0145004
0.0116897
0.0137073
0.0151486
0.0129899
0.0133821
0.0085054
0.0093406
0.00707676
0.00710527
0.00756122
0.00721423
0.010128
0.00743948
0.00738815
0.009142
0.00690224
0.00705934
0.00655728
0.00678511
0.00869983
0.0136375
0.0165271
0.0168044
0.0158509
0.016251
0.0132745
0.00980845
0.0130041
0.0104109
0.00977137
0.0130712
0.0157043
0.0158174
0.00783964
0.0078942
0.0096221
0.00817087
0.013921
0.0139642
0.0112824
0.0150646
0.0151635
0.0125595
0.0116144
0.0142334
0.0143014
0.00711769
0.00873714
0.00814564
0.00924264
0.00905631
0.00706171
0.00647413
0.00655224
0.00666761
0.00658125
0.0125097
0.00929182
0.00914049
0.00747035
0.00707497
0.0109545
0.00854354
0.00946014
0.00733977
0.00779292
0.0103659
0.0232693
0.0215275
0.0245852
0.0204057
0.0274798
0.030722
0.0344023
0.023696
0.0260701
0.0229717
0.00679803
0.00930806
0.00899661
0.0102215
0.00973005
0.00716549
0.00640668
0.00769557
0.00710302
0.00872139
0.00835147
0.00653156
0.0381313
0.0471951
0.0420737
0.0284795
0.0259935
0.0353846
0.0312089
0.00874551
0.0107283
0.00850227
0.00846794
0.00725095
0.00714877
0.013029
0.0133065
0.00994035
0.00821596
0.00802103
0.0119289
0.00809316
0.00798599
0.00805264
0.0133487
0.00943014
0.00867282
0.00764924
0.00831651
0.0104147
0.00653491
0.00639587
0.00676915
0.00660517
0.00904858
0.00672667
0.00705413
0.00988181
0.00682473
0.00689829
0.00695886
0.00681868
0.0100565
0.0209291
0.0218667
0.0187376
0.0154086
0.0178223
0.0198607
0.0109282
0.0150143
0.0122654
0.0119243
0.0122919
0.0126069
0.0116962
0.0120156
0.00870831
0.00909043
0.00731582
0.00739145
0.00715656
0.00722274
0.0119043
0.00951494
0.00959832
0.00739031
0.00755209
0.0104774
0.00734505
0.00762531
0.00706709
0.00655361
0.00856784
0.00822174
0.00903613
0.00661774
0.00675816
0.00669891
0.00662882
0.00885268
0.0104467
0.00826508
0.008613
0.00709171
0.0076641
0.0100619
0.00655521
0.00897409
0.0111133
0.0106951
0.00690737
0.00671567
0.0180573
0.0283003
0.0274712
0.0198328
0.023211
0.0313199
0.0294862
0.0180439
0.0175186
0.0236189
0.0240756
0.0304077
0.0196694
0.0187732
0.0236346
0.0250896
0.0343206
0.0228372
0.0255411
0.0198316
0.0221821
0.0164253
0.0188663
0.0195799
0.0172134
0.0178847
0.0148919
0.0128161
0.0138519
0.0189568
0.0161985
0.0155691
0.0184626
0.0167055
0.019804
0.0153889
0.0149107
0.0138031
0.0158895
0.0142325
0.0138869
0.018055
0.013279
0.0136863
0.0121894
0.0156687
0.012661
0.0125423
0.0132301
0.013083
0.0228633
0.0167325
0.0174152
0.0157315
0.0161607
0.0224687
0.0281189
0.0223065
0.0230994
0.0181264
0.0208744
0.0266461
0.0154495
0.0141295
0.0205338
0.0142889
0.0144719
0.0139231
0.014113
0.0202725
0.0216005
0.0151582
0.0154152
0.014675
0.0149051
0.0213229
0.0102098
0.0111913
0.0151107
0.0109082
0.0111022
0.0105518
0.0107092
0.0152176
0.0121959
0.0112211
0.0111034
0.013267
0.0155065
0.0101324
0.0101091
0.0109914
0.0103999
0.0157867
0.0153087
0.0103334
0.0104311
0.0101824
0.0102541
0.0153246
0.0119038
0.0118273
0.0122658
0.0121588
0.011256
0.0112303
0.011566
0.0115019
0.00804015
0.00800135
0.0122724
0.0148678
0.0149655
0.0143698
0.0144428
0.0118409
0.00895474
0.0147691
0.0153212
0.0113408
0.0091806
0.0136531
0.0141622
0.00969735
0.00956176
0.0184615
0.0139537
0.0138652
0.0174521
0.0129576
0.0119728
0.0137287
0.0134739
0.0178517
0.0100679
0.00986859
0.0120502
0.0125401
0.00935169
0.0102412
0.0111426
0.00882
0.0110242
0.0107417
0.0114646
0.0112493
0.0090072
0.0067721
0.00685497
0.00776266
0.00668132
0.00674445
0.00720628
0.00705392
0.00964343
0.00941061
0.0103832
0.00998641
0.00737584
0.0073437
0.0106796
0.0108689
0.0103661
0.0105298
0.00741258
0.00861114
0.0121579
0.0126511
0.0111675
0.0116216
0.00793333
0.00738477
0.00773813
0.00790403
0.00785179
0.00775608
0.00773939
0.00973026
0.0101314
0.00831804
0.00901605
0.00771345
0.0106667
0.0103295
0.00821475
0.00667328
0.00651123
0.00677752
0.00718608
0.0112372
0.00792098
0.00731247
0.00892358
0.00855682
0.0116909
0.0068371
0.00676751
0.00834375
0.007843
0.0693477
0.0696566
0.0694056
0.0697966
0.0701571
0.069612
0.0702227
0.0701497
0.0696691
0.0700447
0.0697836
0.0695992
0.0690209
0.0694688
0.0692142
0.0698269
0.0716542
0.0699004
0.0725255
0.0772157
0.0707224
0.0775549
0.0745611
0.0706599
0.0737632
0.0715938
0.069964
0.0709767
0.0700809
0.0697475
0.0691996
0.0704828
0.0696647
0.071506
0.0833481
0.0727072
0.0773315
0.0869689
0.0757737
0.100044
0.093924
0.0802359
0.081551
0.076954
0.0746504
0.0750961
0.0717163
0.0707108
0.0694448
0.0716855
0.0708027
0.0725921
0.0749907
0.0740111
0.0926219
0.0964812
0.0959332
0.0554428
0.0724344
0.0799921
0.0759272
0.0741696
0.072999
0.0695606
0.0723709
0.0719202
0.0743725
0.0781007
0.0775274
0.0861353
0.0800923
0.0825711
0.0369525
0.0498805
0.0562012
0.0679915
0.0746338
0.0747774
0.0694933
0.0724435
0.0724407
0.0750543
0.0787576
0.0788175
0.0739848
0.0661908
0.0673774
0.0322042
0.0415844
0.0437662
0.0606812
0.0726146
0.0738406
0.0692965
0.0721176
0.0723891
0.0747441
0.077623
0.0779932
0.0675513
0.0606875
0.0610694
0.0307928
0.0383431
0.0392619
0.0557239
0.0695471
0.0711468
0.0690333
0.0716137
0.0720017
0.0650696
0.059175
0.0592694
0.0307928
0.0367624
0.0372392
0.0519823
0.0661831
0.0678838
0.0687319
0.0710345
0.0714734
0.0315934
0.0350916
0.0351625
0.0487651
0.0627143
0.0644599
0.0684313
0.0699736
0.0701927
0.0716411
0.0691926
0.0696693
0.0648036
0.0496788
0.0486535
0.0043424
0.0126497
0.0161299
0.0350694
0.0414035
0.0430088
0.0482796
0.058477
0.0609115
0.0681122
0.0694801
0.0697308
0.071241
0.0686502
0.0690603
0.0633882
0.0267561
0.0220022
0.0147018
0.0329685
0.0354932
0.0361708
0.0389277
0.0409942
0.0457669
0.0544627
0.0564403
0.0703908
0.0689996
0.0694221
0.0593987
0.0373788
0.0282648
0.019097
0.0250495
0.0315205
0.0346349
0.0384231
0.0387622
0.0851659
0.087821
0.0911852
0.0402323
0.0362935
0.0331836
0.0640963
0.0557363
0.0614925
0.0687047
0.0701821
0.0778816
0.0315481
0.026958
0.0261762
0.0324361
0.0305911
0.035842
0.0615225
0.0620541
0.0693635
0.0288124
0.0245969
0.0245848
0.0259535
0.0253933
0.0300904
0.0594081
0.0596045
0.0657136
0.0286365
0.0253082
0.0262945
0.0245991
0.0246959
0.028537
0.0296308
0.0280741
0.028368
0.0265066
0.0267297
0.0289028
0.0483829
0.0480612
0.0645607
0.00324535
0.0118688
0.0121932
0.00438398
0.00434963
0.00202788
0.0286743
0.0289951
0.0302254
0.0989062
0.0926494
0.0796673
0.0437647
0.0473806
0.0369845
0.0772676
0.0912992
0.1002
0.0397819
0.041363
0.0823246
0.080718
0.0717587
0.0789236
0.091236
0.08395
0.0767981
0.0759378
0.073114
0.0907935
0.0808692
0.0822245
0.0772941
0.0791665
0.090163
0.0317342
0.0271977
0.0242454
0.0464184
0.0414801
0.0441963
0.0589041
0.0689452
0.0508369
0.0760942
0.0730089
0.0680856
0.0790763
0.0770691
0.0776442
0.0787395
0.0785042
0.0746547
0.0850841
0.0836797
0.0834264
0.0831402
0.0836094
0.0862608
0.0756077
0.077764
0.0843618
0.0471874
0.0546481
0.053592
0.0628326
0.0611983
0.0535708
0.0176193
0.0167213
0.01934
0.0446838
0.048318
0.0360374
0.0637556
0.0557494
0.0529862
0.0633116
0.0591683
0.0668491
0.0783204
0.0785838
0.075051
0.0765782
0.0814926
0.0806761
0.082928
0.0822612
0.0774635
0.0642045
0.0651362
0.07288
0.0382214
0.0448985
0.0446916
0.0469709
0.0465198
0.0394585
0.0396344
0.041015
0.0319045
0.0549098
0.0474868
0.0462689
0.0507608
0.0489586
0.0566308
0.0768238
0.0772285
0.0745735
0.071608
0.0782907
0.0775824
0.0798528
0.0790514
0.0720443
0.0601083
0.0603702
0.0670797
0.0388374
0.0542033
0.0541372
0.0440997
0.0441344
0.0384578
0.0125048
0.0100176
0.0103498
0.0374292
0.0380833
0.0307357
0.0500507
0.0436014
0.0429221
0.0452464
0.0443696
0.0510478
0.0179419
0.0141354
0.0149052
0.014669
0.0148797
0.0164958
0.0352626
0.0353884
0.030852
0.046816
0.0411443
0.0405909
0.0423141
0.0417643
0.0475527
0.0236968
0.0220028
0.0224178
0.0195339
0.0199463
0.0219043
0.0534968
0.0500327
0.0626085
0.0123882
0.0437326
0.0452829
0.0259196
0.0274505
0.00679682
0.0223982
0.0263927
0.0067898
0.034644
0.031384
0.0319917
0.0300242
0.0314434
0.0336506
0.0588544
0.0663539
0.0645527
0.0890158
0.083475
0.0653595
0.0925167
0.0904512
0.0929094
0.0626731
0.0494481
0.0555427
0.0889258
0.0833391
0.0878393
0.0601609
0.0635997
0.0713918
0.0209162
0.0186734
0.0182563
0.0283635
0.0272261
0.0287738
0.0407349
0.0381794
0.0421503
0.0302016
0.0324908
0.0336859
0.0268564
0.02757
0.0247677
0.040719
0.0480161
0.0474687
0.0525831
0.0516367
0.0440809
0.079375
0.07182
0.0736271
0.0381459
0.0335596
0.0343206
0.0290786
0.0292345
0.0338293
0.0349632
0.0355039
0.0398551
0.0283113
0.0272596
0.0321871
0.0161083
0.0182867
0.0185938
0.020763
0.0254792
0.0261588
0.0188335
0.0190344
0.0168697
0.0347268
0.0300687
0.0287096
0.0381474
0.044065
0.0440731
0.0445217
0.044383
0.03801
0.0701154
0.0626727
0.0633871
0.0323673
0.028048
0.027912
0.029633
0.0294662
0.033261
0.0333411
0.02879
0.0289288
0.0278293
0.0277903
0.0322263
0.0247969
0.0246253
0.0289753
0.0147611
0.0146639
0.0123966
0.0297328
0.025241
0.0248843
0.0343323
0.0263861
0.0256351
0.0305381
0.0301927
0.0357512
0.0335968
0.0299599
0.0298038
0.0254067
0.0246343
0.0334076
0.0159331
0.0142133
0.0144482
0.0107384
0.0110868
0.0132665
0.0249829
0.0252231
0.028566
0.0155587
0.019266
0.0190535
0.0205399
0.0203161
0.0178484
0.0126492
0.0148903
0.0148255
0.0188465
0.0186538
0.0143532
0.0285055
0.0247402
0.0249135
0.0388256
0.0340463
0.03371
0.0359244
0.0356273
0.040132
0.0365923
0.0312358
0.0308832
0.0333682
0.0330205
0.0380007
0.0208382
0.0187027
0.0191183
0.0151546
0.0158965
0.0190473
0.0187493
0.0209974
0.0207668
0.0254482
0.0249352
0.0196546
0.0290222
0.026965
0.0272143
0.0435561
0.030587
0.0294964
0.0306981
0.0306735
0.0435733
0.0409966
0.0365287
0.0362257
0.0262992
0.0217104
0.0224971
0.094964
0.096277
0.0936409
0.0839395
0.0957139
0.09079
0.0989359
0.0971385
0.0870144
0.0370354
0.0334874
0.0358859
0.069424
0.0758028
0.0753185
0.0769314
0.0763389
0.0695985
0.05909
0.0591173
0.0649147
0.042209
0.0524604
0.0526122
0.0521877
0.0523182
0.0419797
0.0136541
0.0118336
0.0122313
0.00952537
0.00999686
0.011955
0.0350784
0.0350613
0.031756
0.0644589
0.0586218
0.0629732
0.0348157
0.038178
0.0463603
0.0403001
0.048745
0.0623387
0.0393509
0.0457327
0.0380171
0.054731
0.049054
0.0442167
0.0404192
0.0541731
0.0520638
0.0541224
0.0541607
0.0402104
0.0659859
0.0597281
0.0598966
0.0202643
0.0167934
0.0164893
0.0184529
0.018122
0.0215793
0.0108144
0.00873255
0.00909679
0.0274806
0.0277689
0.0294603
0.0217506
0.0261646
0.0256178
0.0263885
0.0263374
0.0220569
0.0224267
0.0191263
0.0187942
0.0206895
0.0204337
0.0235949
0.0242096
0.027283
0.026829
0.0282633
0.0277612
0.0245207
0.0304552
0.0293339
0.02969
0.102642
0.0997348
0.0911967
0.102093
0.101719
0.101317
0.0809952
0.0978082
0.102423
0.0615105
0.0594284
0.0526188
0.097237
0.0827797
0.0835056
0.0883558
0.0834245
0.0983958
0.0325802
0.0283053
0.0336637
0.0323909
0.0387406
0.0439559
0.0263455
0.0279986
0.025122
0.040692
0.038242
0.0351343
0.0130196
0.0138584
0.0175789
0.0174047
0.0159312
0.016146
0.0163145
0.0148211
0.0151537
0.0126276
0.0130055
0.0146761
0.0143499
0.0176766
0.0171874
0.0186471
0.0181628
0.014652
0.0222609
0.0203592
0.0207703
0.043775
0.0479075
0.0599154
0.0524054
0.038388
0.0422966
0.0321798
0.0398209
0.037953
0.0540198
0.0515665
0.044713
0.0745667
0.0671689
0.0707173
0.0218343
0.0211662
0.0232667
0.0251274
0.0230701
0.0224398
0.0305809
0.0308223
0.0356889
0.0349021
0.0301542
0.0303591
0.0390288
0.0396712
0.0442473
0.0424247
0.0379214