/*--------------------------------*- C++ -*----------------------------------*\
| =========                 |                                                 |
| \\      /  F ield         | OpenFOAM: The Open Source CFD Toolbox           |
|  \\    /   O peration     | Version:  5.x                                   |
|   \\  /    A nd           | Web:      www.OpenFOAM.org                      |
|    \\/     M anipulation  |                                                 |
\*---------------------------------------------------------------------------*/
FoamFile
{
    version     2.0;
    format      ascii;
    class       volScalarField;
    location    "7200";
    object      p;
}
// * * * * * * * * * * * * * * * * * * * * * * * * * * * * * * * * * * * * * //

dimensions      [0 2 -2 0 0 0 0];

internalField   nonuniform List<scalar> 
6584
(
34.2184
32.546
30.8322
29.0962
27.2569
25.2291
22.8981
20.0998
16.6705
12.3139
7.09288
1.05336
-5.4408
-11.8069
-17.548
-22.4336
-26.4222
-29.6717
-32.3785
-34.6984
-36.777
-38.7081
-40.584
-42.4249
34.1639
32.5497
30.8621
29.1697
27.3843
25.4269
23.1851
20.4854
17.1582
12.7077
7.41408
1.19347
-5.55149
-12.1174
-17.9284
-22.9247
-26.8327
-29.9844
-32.6032
-34.8449
-36.8653
-38.7495
-40.5963
-42.3992
34.0488
32.5366
30.9302
29.3559
27.7227
25.9724
24.0048
21.6619
18.7869
15.44
10.2376
3.76307
-3.75541
-11.2793
-17.81
-24.4403
-28.1747
-30.9624
-33.2905
-35.2869
-37.1262
-38.8703
-40.6243
-42.3423
33.8831
32.4979
31.0011
29.5898
28.1709
26.7172
25.1414
23.3243
20.91
17.7681
12.8529
5.5279
-3.79324
-13.0325
-20.272
-25.2467
-29.9862
-32.4091
-34.2739
-35.8915
-37.4673
-39.0088
-40.633
-42.2297
33.6507
32.4121
31.0404
29.8171
28.6542
27.5688
26.5412
25.43
23.7907
21.5191
17.2819
8.53004
-4.26425
-16.6002
-24.8974
-29.3095
-31.8021
-34.168
-35.5174
-36.5899
-37.8259
-39.116
-40.5843
-42.0269
33.3355
32.251
31.0048
29.9723
29.0674
28.3774
27.8753
27.2168
27.4976
27.28
24.7799
17.4577
-2.25934
-22.3943
-32.7241
-35.1178
-35.5521
-36.1329
-36.759
-37.2369
-38.1112
-39.1298
-40.4322
-41.6985
32.9264
31.9871
30.8483
29.9816
29.3014
28.9594
29.0567
29.1325
30.7728
33.6502
36.188
34.8327
-1.65466
-43.6537
-44.9205
-42.5185
-39.5098
-37.9758
-37.774
-37.6919
-38.2216
-38.9813
-40.1296
-41.2141
32.419
31.599
30.5301
29.7694
29.2174
29.0533
29.412
30.1188
32.6437
37.4618
45.7706
65.4809
-92.5169
-61.4095
-49.1852
-42.8758
-39.2401
-38.2993
-37.7958
-38.054
-38.6072
-39.636
-40.5534
31.8183
31.0787
30.0321
29.3015
28.7564
28.5788
28.86
29.8188
32.0542
36.1108
43.3135
55.6702
-112.47
-70.0822
-52.127
-44.3221
-39.4669
-38.0778
-37.4043
-37.5262
-37.9633
-38.9274
-39.7122
31.1396
30.436
29.3647
28.5921
27.9455
27.5891
27.532
28.3283
29.445
31.1111
33.605
33.1131
-94.7208
-65.9262
-49.9319
-43.1267
-38.3919
-37.0023
-36.4517
-36.606
-37.0377
-38.0021
-38.704
30.4054
29.695
28.5614
27.693
26.8734
26.2429
25.7283
26.1257
26.0139
25.5934
24.9606
20.2537
-67.4006
-54.068
-43.9638
-39.672
-36.1409
-35.1769
-34.9927
-35.326
-35.8601
-36.8858
-37.5603
29.6416
28.8885
27.6687
26.6737
25.6521
24.7218
23.7579
23.6913
22.626
20.9782
19.2516
15.6854
-42.843
-40.4841
-36.4302
-34.934
-33.1184
-32.8426
-33.1653
-33.777
-34.4865
-35.6252
-36.3249
28.8741
28.0517
26.7353
25.603
24.3819
23.1672
21.8237
21.3122
19.6095
17.2475
14.9553
11.7538
-26.1253
-28.6984
-29.0468
-29.8741
-29.7882
-30.2832
-31.1378
-32.0763
-33.001
-34.2772
-35.0458
28.1252
27.2165
25.8041
24.5393
23.1436
21.6927
20.0888
18.1574
17.1278
14.2479
11.5146
6.53503
-7.35497
-14.3166
-19.5942
-22.7018
-25.1525
-26.5153
-27.7332
-29.0644
-30.3303
-31.4794
-32.8984
-33.7698
27.4125
26.4086
24.9073
23.5237
21.9844
20.3575
18.5529
16.5186
15.1176
12.0625
9.0543
4.24888
-1.66007
-7.10452
-13.6136
-17.9463
-21.1641
-23.5899
-25.3999
-27.0926
-28.6375
-29.9857
-31.5408
-32.5299
26.7479
25.6465
24.0665
22.5801
20.9242
19.1635
17.2003
14.9884
13.4418
10.5394
7.14069
4.10524
0.377997
-4.88849
-9.99179
-14.606
-18.5904
-21.1113
-23.3253
-25.2813
-27.0582
-28.5847
-30.2581
-31.3727
26.139
24.9424
23.2952
21.7234
19.979
18.1254
16.0768
13.7944
11.244
9.53729
6.43858
3.23842
0.594635
-3.23979
-8.25239
-12.2987
-16.2544
-19.0394
-21.5375
-23.6716
-25.6185
-27.2879
-29.0643
-30.3021
25.5891
24.3029
22.6003
20.9596
19.1519
17.2406
15.1577
12.8955
10.4302
7.77102
5.95139
3.02599
0.121543
-3.9564
-7.8631
-11.5302
-14.6852
-17.527
-20.0789
-22.2977
-24.351
-26.1258
-27.9777
-29.3296
25.0986
23.7299
21.9821
20.2863
18.4335
16.4852
14.3862
12.1456
9.7443
7.18232
4.4437
1.69314
-1.65924
-4.60148
-6.87055
-10.7568
-13.5758
-16.3645
-18.8833
-21.1378
-23.2514
-25.1016
-27.0075
-28.4628
24.6653
23.2219
21.4377
19.6975
17.8132
15.8428
13.7421
11.5286
9.18982
6.73689
4.19671
1.62328
-0.706644
-3.82711
-6.37228
-9.91365
-12.649
-15.4023
-17.8861
-20.1558
-22.3011
-24.2056
-26.15
-27.6975
24.2858
22.7756
20.9622
19.1864
17.2804
15.2983
13.204
11.0179
8.73172
6.3457
3.90158
1.32641
-1.023
-3.92764
-6.25743
-9.3804
-11.9825
-14.6393
-17.068
-19.3305
-21.4857
-23.4276
-25.3978
-27.026
23.9557
22.3864
20.5496
18.7451
16.8242
14.8369
12.7528
10.5917
8.34944
6.01445
3.64112
1.12038
-1.23312
-3.93256
-6.17207
-9.00217
-11.4854
-14.0315
-16.3978
-18.6379
-20.7885
-22.7551
-24.7415
-26.4391
23.6704
22.0492
20.1937
18.3659
16.4352
14.4466
12.3747
10.2372
8.03551
5.75034
3.44304
1.00584
-1.29445
-3.84857
-6.07655
-8.69423
-11.0873
-13.5343
-15.8421
-18.0537
-20.1917
-22.1742
-24.1696
-25.9263
23.425
21.7586
19.8882
18.0416
16.1046
14.1173
12.0586
9.94392
7.77855
5.53942
3.28704
0.924126
-1.33275
-3.7709
-5.98758
-8.44243
-10.7613
-13.1218
-15.3766
-17.5575
-19.6791
-21.6714
-23.6709
-25.4775
23.2151
21.5094
19.6271
17.7653
15.8246
13.8403
11.795
9.70184
7.56829
5.37105
3.16466
0.867167
-1.35196
-3.69558
-5.89579
-8.23138
-10.488
-12.7747
-14.9824
-17.1331
-19.2365
-21.2341
-23.2344
-25.0825
23.0362
21.2966
19.4049
17.5307
15.5882
13.6079
11.5757
9.50281
7.39747
5.2382
3.07102
0.830784
-1.35296
-3.61917
-5.79788
-8.04756
-10.2518
-12.4775
-14.6444
-16.7668
-18.8516
-20.8512
-22.8498
-24.7319
22.8842
21.1156
19.2164
17.3323
15.3892
13.4137
11.3939
9.34004
7.25988
5.13407
3.00152
0.811242
-1.34141
-3.54716
-5.69985
-7.8848
-10.0428
-12.2182
-14.3504
-16.4476
-18.515
-20.5147
-22.5102
-24.419
22.7556
20.962
19.0569
17.1648
15.2221
13.2516
11.2437
9.20749
7.14963
5.05416
2.95288
0.80744
-1.31372
-3.47096
-5.59787
-7.73612
-9.85543
-11.9888
-14.0908
-16.1654
-18.2165
-20.2147
-22.2061
-24.1355
22.647
20.832
18.9222
17.0236
15.0821
13.1167
11.1198
9.09953
7.06186
4.99421
2.92108
0.814578
-1.27648
-3.39218
-5.49223
-7.59512
-9.68248
-11.7816
-13.8578
-15.9125
-17.9484
-19.9436
-21.9302
-23.8747
22.5555
20.7222
18.8086
16.9047
14.9645
13.0042
11.0173
9.01155
6.99274
4.9502
2.90287
0.830649
-1.2319
-3.31155
-5.38459
-7.45881
-9.51965
-11.5907
-13.6453
-15.6827
-17.7047
-19.6957
-21.6767
-23.6314
22.4787
20.6294
18.7125
16.8043
14.8656
12.9097
10.9317
8.94005
6.93845
4.91875
2.89538
0.854012
-1.18109
-3.2285
-5.27511
-7.32511
-9.36423
-11.4122
-13.4488
-15.4713
-17.4805
-19.4662
-21.441
-23.4012
22.4144
20.5511
18.6313
16.7191
14.7811
12.8288
10.8599
8.8813
6.89556
4.89679
2.89604
0.883416
-1.12408
-3.14043
-5.16054
-7.18899
-9.21128
-11.242
-13.2646
-15.2749
-17.2724
-19.2516
-21.2193
-23.1807
22.3606
20.4844
18.5618
16.6457
14.7075
12.7591
10.7989
8.83214
6.8609
4.8811
2.90145
0.91532
-1.06525
-3.05184
-5.04621
-7.0556
-9.06486
-11.082
-13.0927
-15.0914
-17.077
-19.048
-21.0078
-22.9665
22.317
20.4281
18.5023
16.5811
14.6423
12.6973
10.7449
8.78875
6.83073
4.86867
2.91017
0.952575
-0.993524
-2.93886
-4.89784
-6.88827
-8.89592
-10.9158
-12.9277
-14.9217
-16.8971
-18.8574
-20.8068
-22.758
22.279
20.3771
18.4487
16.5227
14.584
12.6427
10.6976
8.75119
6.80439
4.8563
2.91244
0.971939
-0.957166
-2.88388
-4.82646
-6.80202
-8.795
-10.7938
-12.7829
-14.7562
-16.7144
-18.6626
-20.6038
-22.5476
22.2584
20.3399
18.4056
16.4704
14.5275
12.5852
10.6442
8.70519
6.76846
4.8364
2.91881
1.03054
-0.790777
-2.54812
-4.35072
-6.30988
-8.41166
-10.5561
-12.6496
-14.6609
-16.607
-18.5219
-20.4306
-22.349
58.6047
-121.66
-100.123
35.5593
-102.413
-120.625
21.2287
-72.6687
-99.0437
16.0664
-45.6935
-68.8819
12.365
-27.2197
-42.884
6.97734
-4.7744
-10.7144
-14.7569
-25.5247
63.066
5.95471
-91.4633
-41.1197
45.0722
56.5088
61.4936
-175.918
-145.159
-113.112
-76.1895
-66.5858
36.1634
36.0206
53.9393
46.6869
46.2544
62.0723
-133.943
-153.738
-97.7172
-73.6186
-76.942
26.8219
22.3133
33.7666
26.8451
21.0445
29.9499
-96.41
-114.618
-70.8947
-60.5141
-70.9448
20.4734
16.6976
21.3277
17.9978
14.4295
15.8978
-57.9438
-74.7753
-45.415
-44.6666
-56.5224
-33.3157
-43.0849
-27.8737
-31.0037
-40.9103
-19.1886
-24.4843
4.3612
-1.22155
-4.62369
1.86654
-7.32797
-13.4643
64.5241
81.8869
65.5522
84.8063
65.222
88.0479
87.4457
-155.202
-171.001
-120.274
-164.699
-151.669
31.5485
44.2451
43.7384
44.5433
30.416
62.6989
45.4883
-115.435
-132.686
-111.635
-131.496
-114.74
-150.944
-132.748
-114.35
16.2292
20.1934
25.173
19.6278
15.3749
29.7909
19.8116
-75.914
-95.078
-84.3192
-94.6023
-75.686
-113.76
-95.9104
-88.1638
13.7527
13.6802
15.3842
13.8224
-43.7949
-56.9095
-54.7272
-56.9686
-44.266
-74.5287
-57.934
-58.074
13.1989
11.1643
13.6909
13.349
-25.3143
-32.1733
-42.7839
-33.48
-35.3238
6.78312
2.36878
10.8031
7.27956
-11.4772
-18.3847
66.926
84.1551
83.4823
-239.755
-202.087
15.9625
12.7791
16.2669
14.4545
13.4061
13.9542
-21.6088
-24.1645
-16.7558
-20.4241
-28.0798
109.102
117.986
-135.34
-165.488
-117.652
13.972
14.3268
17.4444
11.9662
12.6167
12.5332
10.9603
12.7209
13.2795
-24.6033
-27.8615
-33.1038
-32.3176
-25.5282
10.724
9.16061
-24.6852
-20.2709
-20.7006
2.62614
48.8784
84.3078
-133.651
-59.0786
-4.02309
-237.742
-171.875
-225.749
-189.482
-228.393
-169.062
-144.023
-144.268
-105.217
-106.412
-65.3541
-66.1546
-36.9764
-32.6852
-37.0187
-19.1207
-21.2838
-24.2436
-21.7105
-22.145
95.7898
76.4258
79.4232
94.6136
77.6473
73.5653
97.0096
112.403
92.9218
116.677
98.2071
-164.231
-166.76
37.5216
36.7542
54.3508
53.2163
-123.197
-124.467
-123.716
-116.949
-122.555
-109.144
-114.952
-122.502
-142.828
-131.635
-136.261
-124.439
-129.896
-142.031
17.0853
17.0249
24.2448
23.8278
-85.019
-86.1439
-85.7361
-83.1999
-90.0136
-74.2184
-80.8968
-84.5586
-105.779
-101.033
-107.129
-92.2995
-98.8802
-104.593
11.9891
13.6364
12.1178
11.6988
12.7644
12.1612
13.6458
14.3195
11.7934
14.1582
-49.6023
-50.3987
-66.1971
-65.8057
-72.1074
-58.015
-63.7977
-65.2688
13.4894
12.7494
13.6578
13.2997
12.8498
13.4615
13.3442
13.617
13.338
13.5136
-27.9734
-27.7975
-24.6643
-32.1398
-28.1344
-28.9831
-27.9446
5.50688
1.86476
-3.56796
8.92061
6.63961
-24.7118
-16.3118
-18.7693
-287.377
12.1761
8.55788
12.2081
9.71868
8.00112
10.6859
-3.26581
-7.3922
-11.4505
117.775
11.1742
13.246
14.0013
11.649
10.6504
-4.55287
0.779567
-1.29785
10.5491
9.81759
-11.3188
-15.1526
-6.69692
6.15817
59.7804
106.53
-187.023
-90.0538
-28.0305
52.6362
52.0084
46.5509
-137.972
-159.087
-149.759
24.2636
27.201
23.8488
32.2481
28.0977
25.5437
-100.266
-110.979
-61.2601
-71.281
-19.2675
-19.7923
-21.3905
-21.4297
-19.2401
1.78463
1.36065
-2.0767
93.4368
114.028
107.99
-159.378
-165.6
-161.2
-161.604
-142.872
-140.023
-137.758
-141.925
-159.569
36.6866
38.1747
33.4442
44.8001
39.6477
38.4953
41.4165
40.5733
43.8022
29.0901
31.6433
33.1625
44.9347
48.2882
48.7576
-118.918
-130.316
-128.886
-125.296
-128.039
-112.294
-115.104
-118.123
23.2531
20.7342
18.1181
18.3036
16.6696
17.3407
27.1633
25.4781
28.1831
17.7766
19.0875
21.4793
-78.9208
-91.2487
-90.7958
-89.2695
-92.7485
-75.5223
-77.8617
-78.7881
-110.319
-108.041
-110.914
-94.1826
-97.5612
-99.7085
-46.233
-46.1753
-43.7065
-56.7012
-54.4252
-54.3041
-50.9463
-50.9147
-56.1542
-44.5016
-49.2232
-49.2288
12.5283
12.5211
13.4153
11.0769
12.3237
12.2341
5.73288
2.77017
9.46958
9.24192
10.6243
8.39576
6.62084
-18.3947
-19.0324
-238.685
-258.048
-231.792
-21.2979
-22.716
-22.5999
-21.3502
-22.9181
-23.0906
119.219
137.74
121.468
140.243
120.1
12.0232
12.4875
13.1742
12.0157
11.9083
12.0147
12.8711
10.9271
11.7101
11.6569
13.0454
13.176
-25.7537
-26.2691
10.0174
9.92531
10.7433
9.67673
9.37893
-220.628
-198.711
-199.705
-193.665
-197.52
-216.77
-139.405
-148.149
-101.566
-110.015
-62.3025
-70.1094
-34.6909
-35.0579
-37.1599
-32.7463
-34.5368
-34.2651
-40.6354
-43.0666
-37.8516
-39.7614
-20.0095
-19.8951
-19.2481
-21.3063
-20.2441
-20.3124
-20.3138
-21.1311
85.6423
83.4031
78.0783
91.0875
85.2926
87.7821
69.8423
65.2453
76.3523
71.4408
104.042
96.5577
93.0889
108.693
105.726
-173.177
-167.766
-161.817
-175.937
-186.143
-191.863
-177.909
-183.156
-168.536
-180.496
-175.391
36.4535
39.4865
40.5448
39.2173
36.1156
43.5012
40.3303
31.1171
28.7469
35.2795
32.243
33.8675
32.6469
35.552
58.0448
54.113
63.75
59.5468
48.101
44.7095
52.8577
49.1808
49.7826
49.3976
52.988
-120.215
-127.787
-120.762
-123.759
-127.436
-119.297
-116.495
-119.32
15.5495
16.3706
18.1987
15.703
14.9354
16.5188
15.9482
13.7128
13.5688
14.7444
13.9552
22.2473
24.7108
26.6332
24.2269
21.5115
27.7838
24.9415
18.3468
17.1338
20.9734
18.8948
21.7775
19.6487
21.6002
-81.2926
-89.8207
-84.3569
-87.8813
-89.4506
-80.3022
-79.202
-83.029
-103.635
-106.64
-109.264
-100.985
-99.0126
-102.205
11.9771
12.0692
12.7823
12.8277
12.6801
12.7299
11.6479
12.6119
13.0877
13.0739
12.9057
12.9954
12.4173
13.0972
12.8899
13.5874
13.1678
11.8683
12.7263
12.683
12.8252
12.7438
11.8427
-49.7819
-47.1441
-47.0707
-47.1556
-49.3977
-43.8368
-46.3111
-50.042
-53.3296
-53.5459
-50.0252
13.3003
13.5271
14.0408
13.1222
13.4159
13.2074
13.4533
13.5218
13.919
13.575
-30.4771
-30.5538
-32.1386
-28.2836
-30.0187
-29.9
-29.8223
-30.2867
1.8096
-0.728854
9.35578
8.74976
-17.9629
-18.1852
-85.4848
-61.485
-45.5578
-19.1948
-18.1301
-13.6583
-3.02868
66.1892
108.455
-253.133
-128.735
-45.5644
-65.152
-64.3133
-125.582
59.6335
54.0613
54.893
-135.201
-136.144
-134.943
-97.8571
-113.34
18.3359
17.0366
15.0802
-74.9473
-73.7796
-73.6216
-43.0193
-40.6483
-40.7601
72.1388
67.1257
61.9933
65.1086
69.5589
67.9514
-187.141
-182.359
-171.025
59.0264
59.4689
63.649
-116.52
-133.91
-132.949
-131.538
-113.9
-114.956
-115.824
-130.021
-132.376
-136.527
17.5664
20.3704
18.5395
14.0523
14.3827
16.0899
-77.1811
-76.9936
-75.9315
-93.7678
-93.3135
-92.7596
-94.014
-112.606
-111.757
-112.845
-95.3
-96.5747
-97.2543
14.742
13.5912
13.9733
-71.0386
-71.0668
-73.4615
-38.5155
-38.9534
-43.1304
5.91915
4.60888
6.67551
8.73618
9.02937
8.39369
7.24428
-18.5774
-16.1329
-16.0138
-239.954
-258.184
11.9445
12.5787
12.495
12.4896
12.8162
12.7139
12.6516
13.196
13.1282
13.266
-27.6169
-27.2198
-27.3644
9.32491
9.75109
9.80315
-94.749
-94.2249
-177.633
-237.879
-225.419
-218.422
-217.453
-202.976
-205.873
-199.421
-186.534
-223.181
-145.686
-142.981
-142.432
-145.334
-146.73
-145.065
-104.343
-107.622
-65.6754
-64.6015
-64.4075
-67.4801
-68.1827
-66.1268
-36.462
-37.0766
-32.6561
-33.3115
-33.2345
-37.6474
-38.2232
-40.0394
-39.84
-37.927
93.3724
81.5642
81.0423
79.0065
93.4731
91.3242
92.1143
67.0539
65.375
77.0551
74.998
76.4164
103.884
98.9645
106.375
114.2
116.792
117.944
100.917
-201.046
-200.895
54.2187
58.0951
57.8747
63.7917
62.471
-122.105
-125.752
-139.09
-141.169
-146.325
-137.946
-134.83
-137.183
16.1126
14.5936
15.3278
-83.8067
-87.2862
-105.029
-106.168
-106.958
-103.552
-102.749
-103.846
11.9757
12.043
12.3337
12.3773
11.9994
11.9617
11.5538
13.2819
13.5252
14.5187
12.2164
12.1149
13.0127
12.6924
11.8599
12.0442
12.0307
11.9656
11.8143
-66.4267
-68.7044
-69.8467
-62.2193
-62.4146
-64.3946
13.2007
13.3715
13.4093
13.173
13.2801
13.1099
-26.3323
-26.7278
-27.8158
-25.0342
-25.8534
-25.8724
-31.1663
-31.3521
-31.9856
-28.8384
-27.9142
-31.1627
-2.22175
-2.18538
-2.72739
9.80933
8.08415
8.44599
9.20719
6.47571
8.09412
7.45569
-21.7596
-18.4234
-18.995
-18.2649
-17.2638
137.294
135.067
146.036
11.2809
10.9447
-1.45186
-3.25512
-5.2709
10.1657
10.201
10.6641
9.83092
9.9909
9.95956
-12.0566
-13.1803
-14.9063
-140.771
-132.938
-226.934
-138.964
-137.475
-136.569
-159.192
-157.161
-156.715
-152.7
-154.055
-99.1657
-112.101
-60.6158
-61.4766
-58.4939
-59.5654
-72.4345
-72.5614
-71.4179
-19.5234
-19.4309
-19.2324
-19.6902
-19.6307
-19.7935
-164.01
-162.491
-164.36
-158.937
-160.66
-162.492
-117.631
-129.975
-131.478
-131.493
-116.941
-116.064
-117.167
-79.0637
-78.0208
-78.3787
-92.6972
-90.2531
-91.5243
-92.1271
-109.532
-110.616
-111.433
-98.5275
-97.8364
-99.0308
-55.9893
-56.3823
-56.6768
-54.4865
-55.4453
-55.1709
3.24886
1.79902
9.34244
8.84533
7.93514
8.36109
8.808
-18.6304
-18.5133
-18.5266
-18.7423
-18.6868
-19.0688
-18.9569
-18.7933
-251.287
-253.592
-238.392
-273.927
-273.36
-249.713
-236.329
-266.186
-259.923
-288.329
-22.2609
-22.2613
-22.6573
-21.4693
-21.8592
-21.9485
-23.4486
-23.4967
-24.1787
-23.0483
-23.4487
-23.2516
130.218
129.602
131.102
128.435
125.598
129.129
130.956
11.89
12.3783
12.4111
12.4053
12.7752
12.3858
12.7657
12.5134
12.6124
12.8368
12.7622
12.9159
13.2361
13.2867
13.3133
13.3166
13.3189
12.9306
-25.566
-25.4998
-25.4395
-25.2818
-25.5391
-24.5386
-24.9185
-26.8176
-26.7819
-26.3589
9.54422
9.50887
9.66697
9.28541
9.37643
9.43965
-212.985
-215.767
-223.527
-218.407
-209.486
-209.316
-147.63
-140.776
-141.377
-140.354
-149.714
-151.373
-146.93
-148.338
-102.954
-108.95
-64.3307
-65.2814
-62.4315
-63.3885
-63.3485
-63.4781
-62.4327
-70.3727
-69.252
-68.8106
-66.2423
-34.6932
-35.8482
-33.7422
-33.951
-34.5699
-41.4909
-41.4808
-40.7375
-42.8084
-42.1816
-42.2846
-38.4568
-38.566
-37.8829
-40.0095
-38.7147
-38.9347
-38.7005
-20.9539
-20.9464
-21.2396
-20.563
-20.8512
91.7408
85.0445
83.0549
83.6345
89.5047
89.4642
87.1757
70.2114
68.6661
65.3285
66.9151
66.7633
73.6075
71.7335
110.899
113.723
111.399
123.989
102.562
105.95
107.842
-170.696
-169.031
-170.543
-166.555
-168.76
-171.235
-174.992
-173.745
-188.476
-191.57
-189.903
-195.38
-195.327
-191.429
-180.174
-187.234
-187.226
-183.165
38.0877
36.9445
42.4272
42.3176
43.2167
41.4892
41.0869
30.3699
29.6211
34.3368
33.319
56.6003
56.3982
57.9029
54.0476
55.2286
55.3397
62.3319
62.337
63.7824
59.0984
60.8243
60.9117
61.0963
59.9669
46.9959
46.8833
47.9776
44.5218
45.7163
45.8609
51.6092
51.4773
52.7613
48.976
50.0145
50.309
-120.996
-126.544
15.3802
14.8432
15.3012
14.4866
14.5752
15.1191
16.1998
15.6376
16.0132
16.1087
13.6002
13.0174
13.08
12.9834
13.0315
13.5801
14.5085
14.0882
14.3386
13.3878
13.7833
14.2479
23.3805
22.4435
26.7559
25.6493
18.0297
17.6185
20.3989
19.7325
-82.5177
-88.5239
-108.179
-107.351
-108.432
-100.288
-101.517
-102.282
11.9472
12.3129
12.3029
11.968
11.5093
11.9969
12.1327
12.2204
12.2596
13.0281
12.5701
12.5902
13.4403
12.8821
13.0572
12.6272
12.7681
13.3061
12.455
12.194
11.9674
12.014
11.8804
11.6836
11.9952
-48.9302
-48.8392
-49.6102
-47.085
-47.9791
-48.045
-47.952
-48.6693
-44.0287
-44.027
-43.4722
-45.4791
-52.5909
-52.3922
-53.4837
-50.2299
-51.2821
-51.6506
13.6894
13.6242
13.5333
13.7689
13.7236
13.8904
13.5579
13.3357
13.0467
13.4723
13.4057
13.3519
13.6656
13.4226
13.4542
13.3439
13.4167
13.8699
13.6624
13.6852
13.5264
13.9173
13.9385
-30.4651
-30.9583
-31.0426
-29.3206
-30.7692
0.376641
-1.07766
9.33647
9.72768
9.32125
9.11712
9.30788
9.05454
9.79348
9.75648
-18.771
-18.6374
20.6943
17.6726
13.3891
15.2284
2.7911
2.48895
-1.8953
-16.4483
-10.8781
-19.7358
-24.9976
-21.4222
30.4227
33.1999
26.6644
33.2172
31.8343
20.168
29.0852
5.33654
3.44908
-0.560801
-32.0193
-18.6876
-36.4806
-40.8707
-30.4704
-41.2914
-38.8733
-34.4319
36.1016
41.6576
35.2819
44.2976
59.7004
37.3797
47.1607
44.5717
29.1245
-8.72763
-46.8558
-24.1129
-57.7116
-53.6168
-45.8505
-57.6065
-48.8449
-43.7893
37.4388
42.5076
42.71
46.4414
50.3181
49.5623
67.11
72.0644
70.1283
-107.938
-87.3367
-76.3846
-69.3735
-56.6644
-53.3846
33.8508
35.4818
41.1193
41.1671
43.065
45.8949
52.7111
54.0128
57.4791
-107.845
-92.0423
-92.2205
-68.1011
-57.6056
-58.1073
28.2794
27.364
33.3092
31.1709
30.9396
33.7813
30.8265
29.784
32.2461
-84.9637
-76.6544
-82.8111
-57.5024
-51.8649
-55.3882
23.1587
21.3032
25.6378
23.2979
22.3869
24.1069
19.3841
18.2299
19.0217
-57.3532
-55.1938
-62.8264
-43.8465
-42.6788
-47.4831
19.0178
16.8341
20.0984
15.2855
14.7971
15.1137
-35.7247
-35.5973
-42.7283
-31.4349
-33.105
-37.8003
15.6523
13.1999
15.8722
-21.2571
-23.4729
-26.6496
-21.5635
-24.7778
-28.737
13.083
11.3294
12.4931
9.39636
5.8034
7.50776
5.17304
2.50263
3.12404
-2.18042
-11.5223
-10.7127
-8.36203
-12.9196
-18.3044
-16.0997
-18.246
-21.2465
11.2094
9.47407
10.2845
7.62438
5.0385
5.56467
4.06576
0.719151
0.268781
-0.0162963
-3.92815
-5.74598
-6.72129
-8.85296
-11.5995
-11.3519
-13.816
-15.7496
6.75193
5.0099
5.33436
3.27044
1.41398
0.758195
-0.462974
-3.30186
-4.17026
-3.42476
-6.80095
-8.00551
60.9223
64.185
61.2562
-121.385
-136.405
-133.119
-108.047
-117.318
-107.682
34.9076
37.7517
38.1625
-105.64
-112.544
-107.1
-131.728
-127.897
-118.924
19.948
21.0501
22.3804
-76.5294
-79.9608
-73.624
-105.093
-99.2916
-95.5482
15.4026
15.7534
16.4929
-48.5251
-49.4944
-45.4749
-71.5268
-65.4227
-65.1643
-29.0117
-28.8405
-27.0178
-42.8615
-40.0388
-40.1788
3.83147
6.95041
9.15736
-6.491
-3.86718
-4.64335
-9.61206
-9.90037
-10.8313
-25.2052
-23.469
-23.8761
80.8278
51.8532
51.3007
5.14019
59.9053
106.546
25.015
40.4565
8.1666
-149.802
-82.6711
-82.4697
-87.5824
-98.4327
-28.1136
-51.6894
-57.5031
48.2491
49.798
46.1174
62.0402
54.2329
51.9586
54.2911
55.1314
63.2222
-176.021
-191.061
-188.696
-157.404
-168.876
-155.251
-93.3538
-88.2126
-110.642
-74.1484
-82.0479
-84.4844
-72.0879
-77.9816
-71.0634
36.8322
39.9691
38.7031
43.4534
41.0957
37.2289
48.7427
45.0167
46.1265
47.1805
50.5519
49.665
48.3211
48.4252
46.4451
61.3919
59.1084
59.6734
-155.378
-155.029
-152.858
-85.8213
-89.66
-105.619
-75.5232
-83.1368
-80.5385
-85.3321
-84.8312
-76.7619
26.0894
28.3637
28.8913
26.2674
27.3764
24.9117
33.5792
30.2725
27.8641
25.5684
27.5561
28.7447
22.0112
23.1167
22.1367
30.7729
29.2811
28.398
-65.9935
-73.4012
-81.4847
-64.2794
-68.8877
-64.2827
-77.1658
-73.2507
-67.8578
19.5626
20.8899
21.8163
18.2922
19.6757
18.4251
22.8469
21.1246
18.8893
17.004
17.5702
18.6547
14.8837
16.9334
16.0249
16.7261
16.3635
15.5507
-59.0774
-59.227
-57.9824
-45.1803
-52.3395
-54.1793
-48.5355
-50.172
-45.723
-59.5358
-54.8082
-52.5392
-34.4929
-34.6045
-32.8251
-43.0661
-42.303
-42.301
-30.194
-33.4894
-33.5888
-34.0538
-33.9144
-30.5123
-41.5116
-37.5343
-37.3363
-19.9003
-19.9122
-19.2239
-24.356
-23.5666
-23.6934
2.93784
2.49839
4.62784
-1.84716
1.46551
1.92876
-1.40049
-1.1321
-4.98602
-7.14894
-6.37873
-3.00028
-8.82104
-7.23614
-5.26934
-11.8786
-8.41934
-8.19149
67.035
65.9959
63.7124
73.2183
69.7169
74.696
63.7062
67.2069
69.7095
82.1603
84.2189
89.4953
91.1552
96.5118
92.8493
91.1083
93.7558
89.6208
-157.1
-158.429
-156.8
-177.006
-176.091
-172.105
-131.734
-132.885
-121.685
-164.43
-156.239
-156.239
-147.278
-149.493
-154.91
33.2102
33.8999
32.2948
44.5137
42.6237
42.2884
40.9005
40.7579
43.9032
43.4278
43.2391
44.2899
30.0362
30.9169
31.45
45.3383
46.4218
46.6277
-119.63
-114.496
-108.731
-130.535
-129.896
-130.291
-147.819
-143.395
-145.336
-131.847
-132.579
-133.906
-116.8
-126.213
-121.474
16.6223
17.5303
17.0883
21.2842
20.4781
19.4284
23.6724
22.3334
23.8379
19.0056
18.4695
18.8713
15.004
15.1767
15.7143
28.7587
28.3363
29.2148
19.246
19.7212
20.495
-88.6793
-82.191
-80.4295
-75.4125
-76.472
-76.8638
-91.9124
-97.1643
-90.9109
13.7016
13.0019
13.0132
13.3581
13.3258
13.6823
15.0215
14.7542
14.9013
13.011
13.0991
13.9152
-44.5783
-44.51
-43.7794
-56.8151
-56.1516
-56.0981
-56.0103
-51.0137
-51.5544
-55.0899
-54.6036
-56.3897
-44.3621
-45.9408
-45.8757
-73.3775
-73.1438
-74.245
-58.3074
-60.3527
-61.1591
-61.5559
-63.4428
-57.8251
13.0113
13.0256
13.2007
11.1209
11.52
11.5535
13.6906
13.4756
13.4211
13.3356
13.4332
13.4693
-26.165
-26.0495
-25.1911
-32.2598
-31.3026
-31.0904
-41.3033
-41.4
-42.8743
-34.0602
-37.696
-37.2406
-37.6807
-37.4579
-35.0677
4.72412
2.76522
5.74116
-0.0897189
1.86013
4.29081
10.3685
10.296
10.7275
-15.1135
-15.0493
-11.7288
71.5813
72.1068
67.2731
88.335
74.1707
75.673
75.7788
78.3255
88.7163
-216.847
-230.779
-214.432
14.4217
15.1966
14.1277
17.3038
16.244
14.8839
14.0774
14.4589
14.8893
13.7484
14.0602
13.7384
14.5641
14.3263
13.8122
-21.9589
-21.9118
-21.5639
-24.1061
-23.6589
-23.7589
-17.8656
-20.5836
-19.791
113.701
118.602
112.865
121.458
123.845
119.158
-156.884
-130.261
-113.838
-140.935
-131.941
-160.554
-113.456
-124.271
-129.025
14.0714
15.2986
14.7674
15.9764
15.332
14.1108
16.9334
16.1127
16.529
12.357
12.4095
12.6242
10.9684
11.2041
11.1913
-25.0482
-25.0496
-24.5733
-32.8354
-30.7794
-31.0144
-29.182
-29.5691
-32.9602
-26.445
-28.5429
-28.2276
10.4785
10.4715
10.728
9.20587
9.40632
9.37622
-22.3021
-23.171
-24.863
-20.0512
-21.5815
-21.5594
-22.2649
-21.8015
-20.181
33.0849
50.2317
5.29449
64.4297
56.1532
36.5149
97.0164
64.7201
68.1994
-120.902
-127.318
-143.359
-43.0085
-76.8287
-85.3498
-19.0112
-70.6913
-41.157
-191.328
-191.909
-175.074
-217.177
-184.623
-170.172
-217.561
-216.65
-229.92
-162.953
-176.308
-183.53
-37.2432
-35.1716
-35.7291
-38.5024
-38.7765
-38.7446
-19.4134
-19.4651
-19.1802
-21.2822
-20.989
-20.9997
-23.1252
-23.4385
-24.2081
-21.9635
-22.6887
-22.7579
-22.9032
-22.7877
-22.0323
77.5106
82.4219
79.2994
70.7499
71.1389
75.8284
99.5415
97.7948
95.6537
108.128
108.584
110.927
91.4766
96.0321
98.046
-167.6
-166.421
-164.276
-166.658
-170.659
-169.298
37.2368
38.2065
38.6131
35.6784
35.3805
36.3268
54.3283
55.517
55.5301
52.0353
51.9798
53.1483
-122.708
-123.908
-124.941
-118.826
-121.304
-119.312
-125.361
-123.363
-120.752
-111.067
-113.197
-111.162
-117.254
-115.238
-113.054
-121.382
-120.421
-121.517
-141.607
-141.933
-143.765
-133.19
-137.101
-135.26
-140.774
-139.02
-134.857
-126.25
-129.302
-127.264
-133.407
-131.398
-128.17
-140.856
-139.519
-140.049
16.6396
16.9476
17.5732
16.5751
16.1413
16.4217
23.7061
24.46
25.1784
22.957
22.4015
23.0734
-85.2683
-86.4702
-86.9281
-85.4619
-86.5301
-84.1555
-91.2844
-88.9229
-87.7654
-76.3142
-77.1556
-75.085
-81.7713
-79.4161
-78.6092
-83.2672
-82.7364
-84.0388
-103.082
-104.9
-102.751
-109.099
-107.023
-105.156
-94.511
-95.9856
-93.6582
-100.538
-98.2969
-96.7447
13.1769
13.0323
13.6763
12.6789
12.8318
12.8819
12.4204
12.4635
12.2067
13.6583
13.2623
13.2097
14.0235
13.1074
13.2381
-49.6353
-48.8514
-48.7724
-51.3686
-51.3314
-50.3764
-66.1024
-67.2363
-67.367
-67.8573
-68.306
-66.1529
-72.8386
-70.5442
-69.9797
-59.9066
-60.1172
-58.1461
-64.1162
-62.1278
-61.8566
-64.3175
-64.1157
-65.0803
13.4476
13.5715
13.6186
12.8541
13.0842
12.9529
13.5238
13.5154
13.6864
13.2779
13.3304
13.3591
12.9653
13.0314
12.9303
13.5225
13.4327
13.3588
13.4301
13.447
13.4952
13.5535
13.4876
13.5147
13.4031
13.3969
13.3003
13.617
13.6615
13.5549
-27.8859
-26.9842
-27.0628
-27.3666
-27.4111
-27.8196
-24.6931
-25.1464
-25.1025
-28.2451
-28.769
-28.7097
-30.0541
-29.8289
-28.8424
4.28136
3.19927
5.73078
0.0915876
2.39595
3.06357
8.6641
8.72618
8.98647
-17.2142
-17.9742
-16.9424
-18.8874
-18.6031
-18.43
9.63626
10.8493
9.86182
13.0359
11.9306
10.2821
8.99952
9.43867
8.56912
11.0035
10.2589
9.93419
-5.04149
-7.50519
-6.24831
-8.97917
-7.32323
-6.14757
-10.9929
-9.38499
-10.7239
12.2758
12.3209
11.6847
13.3474
12.8742
12.5611
13.4934
13.1602
13.6503
-2.58611
-4.52263
-6.37649
-0.265867
-1.80045
-0.655225
-2.52039
-2.35091
-0.942564
-12.1373
-10.9066
-10.4703
-15.3005
-13.0091
-13.6528
-12.9401
-10.1733
-11.1356
31.7167
60.1082
-3.77755
72.1188
63.8121
49.707
109.198
71.8489
86.9915
-169.248
-176.821
-197.972
-77.6847
-111.386
-112.88
-32.5474
-105.805
-59.7388
52.5339
50.4607
50.449
50.2347
50.3835
52.3408
46.5421
48.4297
48.3401
-151.324
-153.17
-151.545
25.3227
24.1538
23.0768
25.8255
25.0985
26.2689
23.0992
24.1055
25.0817
30.6499
30.0619
31.5161
27.4271
28.7512
29.5979
26.9347
27.8917
26.5461
-61.4308
-60.4174
-60.2035
-21.2935
-20.6055
-20.6605
-20.5055
-20.6025
-21.2751
-19.1989
-19.8902
-19.871
1.43328
0.0610782
-0.244505
0.209881
-0.013747
1.32956
-2.73489
-1.71275
-1.24358
98.8624
98.4016
92.7119
115.188
105.129
105.139
98.6509
103.165
114.831
-161.904
-160.244
-158.8
-154.5
-155.463
-163.256
-141.125
-148.561
-148.274
-148.37
-149.015
-142.72
-139.016
-144.259
-142.506
-147.26
-145.862
-140.394
-157.488
-151.421
-153.102
37.2402
35.5341
34.9215
36.4512
36.068
37.7203
32.955
34.5158
35.115
43.0179
42.8738
44.6883
39.3769
41.1146
41.4087
40.3704
40.7822
38.9768
41.1944
42.2282
42.5213
41.6639
41.9575
40.9096
44.0518
42.9907
42.7337
29.9614
30.4554
29.5807
32.1868
31.2994
30.7857
32.1102
31.7478
32.6515
46.0579
46.2386
45.1385
48.4431
47.3339
47.1762
47.6065
47.492
48.5932
-127.823
-128.821
-129.375
-126.21
-125.745
-125.307
-113.007
-114.055
-113.048
-116.204
-115.177
-114.388
22.163
21.4186
22.2705
20.0121
20.7317
21.6904
18.7484
19.7792
19.1087
17.8245
18.184
18.8748
16.9388
17.5261
17.2107
18.1525
17.7958
17.0587
26.6983
27.531
28.1664
26.2838
26.9508
26.1291
28.7139
27.8191
27.2426
18.2157
19.0122
18.5592
19.955
19.4591
18.6467
20.734
20.154
20.6886
-90.3259
-90.9575
-89.7324
-93.426
-92.2149
-91.7269
-78.6125
-78.303
-75.8169
-77.9244
-77.6438
-78.6371
-108.79
-109.772
-108.74
-111.943
-110.919
-110.184
-95.1785
-95.9195
-94.708
-98.3501
-97.1879
-96.6206
-46.2019
-45.3161
-45.351
-45.1848
-45.2413
-46.1607
-43.7455
-44.408
-44.2538
-55.2293
-55.321
-54.391
-50.9852
-52.8617
-52.7487
-52.631
-52.6477
-50.9278
-56.2296
-54.3799
-54.3689
-45.9729
-46.0684
-44.5152
-49.2789
-47.6824
-47.6018
-47.5844
-47.6021
-49.2563
12.5461
12.8087
12.7899
13.0948
12.8602
12.585
13.239
13.0755
13.2051
11.5237
11.5101
11.0927
12.2742
11.9115
11.9689
11.9037
11.8927
12.2384
4.77055
4.76375
5.89002
2.3919
3.59522
3.78278
9.3787
9.86203
9.98018
9.70739
9.77225
9.29262
10.668
10.2218
10.1596
6.95232
7.83019
7.37677
-224.779
-243.332
-247.387
-22.6769
-22.2922
-22.3312
-23.4353
-23.3908
-23.0493
124.977
122.376
116.838
116.492
123.767
129.809
120.228
125.973
126.993
11.9362
12.1755
12.1241
12.3191
12.2455
11.9697
11.1648
11.1688
10.9257
11.6908
11.4211
11.4187
11.4317
11.444
11.6861
10.0047
10.2262
10.2444
10.1249
10.1415
9.93733
10.6809