/*--------------------------------*- C++ -*----------------------------------*\
| =========                 |                                                 |
| \\      /  F ield         | OpenFOAM: The Open Source CFD Toolbox           |
|  \\    /   O peration     | Version:  5.x                                   |
|   \\  /    A nd           | Web:      www.OpenFOAM.org                      |
|    \\/     M anipulation  |                                                 |
\*---------------------------------------------------------------------------*/
FoamFile
{
    version     2.0;
    format      ascii;
    class       volScalarField;
    location    "7200";
    object      p_rgh;
}
// * * * * * * * * * * * * * * * * * * * * * * * * * * * * * * * * * * * * * //

dimensions      [0 2 -2 0 0 0 0];

internalField   nonuniform List<scalar> 
6584
(
11.9838
12.2441
12.4636
12.6609
12.755
12.6609
12.2637
11.3989
9.90303
7.47977
4.19214
0.0860205
-4.47472
-8.90742
-12.7151
-15.6672
-17.7223
-19.0382
-19.8111
-20.1969
-20.3412
-20.3384
-20.2809
-20.1893
11.9275
12.2431
12.4874
12.7279
12.8757
12.853
12.5475
11.7831
10.3896
7.87245
4.51213
0.224884
-4.58664
-9.2191
-13.0965
-16.1588
-18.132
-19.3485
-20.0315
-20.3377
-20.4235
-20.3735
-20.2882
-20.1624
11.8116
12.2262
12.5482
12.9051
13.2046
13.389
13.36
12.9563
12.0168
10.1206
6.85142
2.31022
-3.27487
-8.86526
-13.4623
-17.6712
-19.4663
-20.3168
-20.7089
-20.7706
-20.6762
-20.4882
-20.3137
-20.105
11.6455
12.1865
12.6161
13.1329
13.645
14.1245
14.4871
14.611
14.1359
12.4477
9.46559
4.07384
-3.31394
-10.619
-15.918
-18.9523
-21.2628
-21.7505
-21.6817
-21.3665
-21.011
-20.6239
-20.3215
-19.9921
11.4131
12.1003
12.6545
13.3575
14.1227
14.9685
15.8758
16.6996
16.5224
16.1946
13.8924
7.07475
-3.78616
-14.1784
-20.5233
-22.9922
-23.5494
-23.4987
-22.9168
-22.0586
-21.3665
-20.7301
-20.2724
-19.7892
11.0977
11.9389
12.6184
13.5117
14.533
15.771
17.1986
17.9884
20.2043
21.9247
21.1323
15.758
-2.0237
-20.1925
-28.3278
-28.7862
-27.2897
-25.456
-24.1524
-22.7025
-21.6504
-20.7433
-20.12
-19.4607
10.6885
11.6748
12.4614
13.5204
14.7659
16.35
18.3747
19.8981
23.467
28.2723
32.5008
32.9813
-1.54003
-41.4262
-40.7513
-36.1773
-31.2397
-27.2936
-25.1643
-23.1561
-21.7602
-20.5943
-19.8171
-18.9762
10.1811
11.2865
12.143
13.3077
14.6812
16.4426
18.727
20.8793
25.3324
32.0779
42.0724
63.588
-90.3845
-57.2318
-42.8398
-34.6019
-28.5566
-25.6887
-23.2594
-21.5921
-20.22
-19.3234
-18.3154
9.58036
10.7661
11.6449
12.8396
14.22
15.9678
18.1744
20.5773
24.7408
30.7259
39.6141
53.7738
-110.333
-65.9042
-45.7833
-36.0505
-28.786
-25.4685
-22.8679
-21.0641
-19.5759
-18.6147
-17.4742
8.90167
10.1234
10.9774
12.1302
13.409
14.9779
16.8462
19.087
22.1331
25.7279
29.907
31.217
-92.5842
-61.7505
-43.5916
-34.859
-27.7156
-24.3967
-21.9171
-20.1442
-18.6503
-17.6894
-16.466
8.16747
9.38257
10.1743
11.2314
12.3372
13.6322
15.0432
16.8856
18.7044
20.2132
21.266
18.3605
-65.2678
-49.8981
-37.6295
-31.4102
-25.4707
-22.5772
-20.4627
-18.8659
-17.4728
-16.5731
-15.3223
7.40367
8.57616
9.28185
10.2123
11.1163
12.1115
13.0737
14.4531
15.3192
15.6014
15.5611
13.7969
-40.7179
-36.3234
-30.1041
-26.6802
-22.4559
-20.2501
-18.642
-17.3218
-16.1007
-15.3127
-14.087
6.63622
7.73938
8.34857
9.14184
9.8463
10.5572
11.1403
12.0756
12.3046
11.8734
11.2687
9.87055
-24.0127
-24.5505
-22.7314
-21.6304
-19.1354
-17.6996
-16.6226
-15.6278
-14.6184
-13.9651
-12.8079
5.88741
6.90428
7.41748
8.07838
8.60827
9.08309
9.40639
9.40552
9.82461
8.87884
7.83835
4.6864
-7.32653
-12.1131
-15.4633
-16.4023
-16.9214
-15.8748
-15.1603
-14.5588
-13.8887
-13.1015
-12.5883
-11.5321
5.17468
6.09654
6.52093
7.06309
7.44955
7.74878
7.87317
7.77399
7.82287
6.7152
5.40665
2.5349
-1.4363
-4.9324
-9.26425
-11.6626
-12.464
-12.9569
-12.8332
-12.5932
-12.2019
-11.6144
-11.2364
-10.294
4.51016
5.33464
5.68041
6.11995
6.39019
6.55635
6.52465
6.25424
6.16593
5.20188
3.73714
2.39439
0.603987
-2.48337
-5.64784
-8.32632
-9.89351
-10.4809
-10.7619
-10.7822
-10.6253
-10.2179
-9.95823
-9.13868
3.90131
4.63077
4.90956
5.2639
5.44603
5.52065
5.40651
5.06651
4.45679
4.2008
3.03612
1.77063
1.06226
-0.834939
-3.91008
-6.02174
-7.56132
-8.4135
-8.97771
-9.17636
-9.18852
-8.92356
-8.76474
-8.06866
3.35157
3.99155
4.21514
4.50099
4.62042
4.63952
4.49338
4.17245
3.64424
2.91886
2.54946
1.55877
0.589773
-1.55228
-3.0402
-4.77299
-5.99417
-6.90305
-7.52095
-7.80514
-7.9242
-7.76426
-7.68108
-7.09732
2.86114
3.41883
3.59757
3.82851
3.90337
3.88776
3.72738
3.42559
2.95917
2.33114
1.52661
0.710608
-0.707049
-1.71453
-2.04915
-4.0012
-4.88639
-5.74187
-6.32685
-6.647
-6.82639
-6.74184
-6.71314
-6.23177
2.42796
2.91118
3.05375
3.24067
3.28433
3.24816
3.08673
2.81011
2.40523
1.88629
1.28021
0.641053
0.245406
-0.940793
-1.5519
-3.15932
-3.96084
-4.78071
-5.33079
-5.66646
-5.87738
-5.84715
-5.85721
-5.46734
2.04854
2.46524
2.57888
2.73047
2.75273
2.7055
2.55058
2.30029
1.94745
1.49533
0.985187
0.344055
-0.0713122
-1.04195
-1.43786
-2.62701
-3.29535
-4.01858
-4.51366
-4.84222
-5.06298
-5.07032
-5.10635
-4.79644
1.71858
2.07642
2.16694
2.29007
2.29781
2.24546
2.10056
1.87469
1.56567
1.16416
0.724719
0.137863
-0.281782
-1.04737
-1.35311
-2.24946
-2.799
-3.4115
-3.8442
-4.15044
-4.36662
-4.39885
-4.45111
-4.21007
1.43337
1.73956
1.81166
1.91179
1.90989
1.85626
1.7234
1.52098
1.25217
0.9001
0.526558
0.0231613
-0.343391
-0.96377
-1.25805
-1.94204
-2.4014
-2.91482
-3.2891
-3.56678
-3.77051
-3.81875
-3.88014
-3.69777
1.18816
1.44935
1.5068
1.58834
1.58036
1.52799
1.40813
1.22842
0.995621
0.689405
0.370487
-0.0587312
-0.381925
-0.886399
-1.16944
-1.69066
-2.07588
-2.50279
-2.82406
-3.07112
-3.2585
-3.31665
-3.38227
-3.24934
0.978325
1.20049
1.24634
1.31287
1.30139
1.25193
1.1452
0.987013
0.785955
0.521345
0.248028
-0.115832
-0.401351
-0.811344
-1.07796
-1.47994
-1.80292
-2.15612
-2.43028
-2.64709
-2.81636
-2.87994
-2.94637
-2.85465
0.799511
0.988034
1.02468
1.0791
1.06597
1.02051
0.92659
0.788634
0.615789
0.388855
0.154878
-0.151918
-0.402148
-0.734879
-0.980053
-1.29617
-1.56679
-1.85895
-2.09225
-2.2808
-2.43168
-2.49746
-2.5623
-2.50438
0.64766
0.807293
0.836686
0.881354
0.867907
0.827084
0.745453
0.626421
0.47885
0.285852
0.086589
-0.170357
-0.389624
-0.661928
-0.881117
-1.13253
-1.35698
-1.5987
-1.79728
-1.96086
-2.0946
-2.1606
-2.2224
-2.19133
0.519116
0.654016
0.677692
0.714528
0.701666
0.665832
0.595846
0.494436
0.369676
0.207489
0.0394951
-0.172591
-0.360364
-0.584174
-0.777609
-0.982342
-1.1681
-1.36794
-1.53631
-1.67729
-1.79475
-1.85924
-1.91702
-1.90724
0.410607
0.524333
0.543449
0.573995
0.562339
0.531645
0.472587
0.387481
0.283427
0.149072
0.00926231
-0.163884
-0.321553
-0.503822
-0.670419
-0.839819
-0.993664
-1.15926
-1.30191
-1.423
-1.52529
-1.58687
-1.6398
-1.64579
0.319235
0.414801
0.430247
0.455679
0.445563
0.419945
0.37107
0.301045
0.215828
0.106611
-0.00738265
-0.146246
-0.275403
-0.421635
-0.561219
-0.701979
-0.829328
-0.966791
-1.08786
-1.19177
-1.28022
-1.33766
-1.38502
-1.4018
0.242476
0.322306
0.334664
0.355835
0.347437
0.326686
0.28729
0.231098
0.163091
0.0767192
-0.0133141
-0.121314
-0.223028
-0.337026
-0.450207
-0.566742
-0.67238
-0.786898
-0.889929
-0.97898
-1.05464
-1.10679
-1.14797
-1.17096
0.178266
0.244177
0.253774
0.271191
0.264391
0.248239
0.217447
0.173918
0.12174
0.0563034
-0.0110821
-0.0903391
-0.16445
-0.247395
-0.334073
-0.429096
-0.517916
-0.615169
-0.704329
-0.781125
-0.845108
-0.890781
-0.924966
-0.949838
0.124565
0.177761
0.184698
0.198706
0.193271
0.181318
0.158361
0.126342
0.0886129
0.0421866
-0.0041172
-0.0568675
-0.10405
-0.157234
-0.218201
-0.294149
-0.369975
-0.453672
-0.530941
-0.596134
-0.648261
-0.685742
-0.712095
-0.73498
0.0810255
0.121639
0.125563
0.135631
0.131013
0.122379
0.106261
0.0845373
0.0599877
0.0313065
0.00616996
-0.0180438
-0.0307542
-0.0426982
-0.0682732
-0.125271
-0.19951
-0.285938
-0.364419
-0.425019
-0.466963
-0.493794
-0.509765
-0.525786
0.0431208
0.0708054
0.07219
0.0786629
0.075476
0.070439
0.0609353
0.0485449
0.0352153
0.0204823
0.0100059
0.0028915
0.00717635
0.013851
0.0046781
-0.03749
-0.0970458
-0.162482
-0.218188
-0.257975
-0.282767
-0.297578
-0.305346
-0.314741
0.0225747
0.0337822
0.0294011
0.0273757
0.0208794
0.015333
0.00952049
0.00414742
0.000822208
0.00215051
0.0179449
0.0630622
0.175133
0.351179
0.481972
0.456214
0.287819
0.0767983
-0.0833488
-0.161222
-0.173926
-0.155497
-0.130731
-0.115354
56.7084
-119.763
-98.2316
33.663
-100.516
-118.728
19.335
-70.7743
-97.1465
14.1772
-43.8059
-66.9881
10.4812
-25.3434
-40.9975
5.11342
-4.86907
-10.6868
-12.9029
-23.6503
61.1744
5.8263
-89.5737
-39.2646
41.3728
54.3723
59.3603
-174.924
-144.172
-110.976
-72.4921
-62.8896
32.4648
33.8844
51.8028
44.7904
45.1371
60.9559
-132.913
-152.713
-95.5805
-69.9225
-73.2446
23.1263
20.1797
31.6305
24.9497
19.9302
28.834
-95.3735
-113.581
-68.7612
-56.8226
-67.2495
16.7818
14.5686
19.1947
16.1061
13.3161
14.783
-56.9261
-73.7462
-43.2886
-40.9833
-52.8326
-32.3257
-42.0618
-25.7592
-27.3325
-37.2296
-18.2104
-23.5
2.64605
-1.3632
-4.71688
1.96752
-5.64305
-11.6166
63.408
80.772
63.6566
83.8115
64.2261
87.0583
86.4511
-154.176
-169.977
-118.379
-163.585
-150.583
30.4327
43.1282
41.8419
43.5159
29.3915
61.7025
44.4604
-114.4
-131.652
-109.737
-130.405
-113.648
-149.858
-131.659
-112.453
15.1144
19.0788
23.278
18.6053
14.3505
28.7663
18.7896
-74.8816
-94.0435
-82.4231
-93.5115
-74.5961
-112.667
-94.8179
-86.2674
12.7594
12.6886
14.3595
12.8287
-42.7718
-55.8892
-52.8365
-55.8862
-43.1534
-73.4407
-56.8529
-56.1824
12.21
10.1777
12.6997
12.3598
-24.3293
-31.1838
-41.6715
-32.371
-33.4412
5.79978
1.43121
9.8169
6.2959
-10.526
-17.4074
65.0308
83.0405
82.372
-239.234
-201.559
12.275
10.6553
14.1385
12.5679
12.2975
12.8435
-21.0742
-23.6278
-14.6633
-16.7696
-24.4124
108.568
117.45
-134.232
-164.374
-115.757
12.8609
13.2137
15.5533
11.4247
12.0718
11.993
10.4231
12.181
12.7385
-24.0664
-27.3248
-31.2226
-31.2091
-24.4246
10.1862
8.62298
-23.5824
-19.1746
-18.833
2.55767
47.9799
83.32
-132.665
-58.1835
-3.95662
-237.21
-170.883
-225.161
-188.891
-227.806
-168.072
-143.004
-143.244
-104.173
-105.368
-64.3287
-65.1346
-35.9853
-32.0932
-35.9971
-18.5859
-20.7488
-23.6459
-21.1148
-21.1633
95.2445
75.4305
78.8127
94.0122
77.0325
72.5702
96.4109
111.806
91.9287
116.142
97.6687
-163.208
-165.737
36.4991
35.7314
53.3252
52.1904
-122.182
-123.454
-122.643
-115.471
-121.078
-107.666
-113.474
-121.427
-141.744
-130.158
-134.784
-122.961
-128.419
-140.95
16.0587
15.9987
23.2205
22.8038
-84.0076
-85.1291
-84.662
-81.7233
-88.5359
-72.7424
-79.4205
-83.4871
-104.68
-99.5548
-105.651
-90.8215
-97.4016
-103.494
11.4414
12.6437
11.5142
11.1015
12.1609
11.562
12.6534
13.3257
11.1902
13.1651
-48.5783
-49.3759
-65.1155
-64.331
-70.6316
-56.5414
-62.3232
-64.1842
12.9488
12.21
12.6675
12.6991
12.2495
12.8606
12.744
12.6269
12.7983
12.9726
-26.9864
-27.2021
-24.0666
-31.5519
-27.5421
-27.9955
-27.4175
5.00049
1.36128
-3.6958
8.383
6.13222
-24.6006
-15.811
-18.2348
-287.103
8.4931
6.32549
10.0849
7.83736
6.83819
9.52084
-3.17019
-6.56047
-10.5658
117.494
10.0683
12.1378
12.1154
11.3581
10.3687
-4.65475
0.290805
-1.75402
10.2601
9.51571
-10.8602
-14.6631
-6.64597
6.08206
59.3032
105.998
-186.497
-89.5805
-27.9615
51.5197
50.5318
45.0742
-136.955
-158.228
-148.738
23.1483
25.7249
22.3731
30.7716
26.6215
24.4281
-99.2246
-109.937
-60.2394
-70.2645
-18.9781
-19.5064
-20.4097
-20.834
-18.6162
0.908839
0.48825
-2.22359
92.4443
113.43
107.395
-158.357
-164.77
-160.346
-160.49
-141.397
-138.549
-136.282
-140.449
-158.455
35.5716
36.6981
31.9677
43.3234
38.1711
37.3805
40.3925
39.7411
42.9494
28.2536
30.809
32.1386
44.0808
47.4388
47.7301
-117.89
-129.299
-127.805
-124.03
-126.8
-111.025
-113.836
-117.038
21.7775
19.2591
17.0019
17.2779
15.8226
16.5137
26.1385
24.6404
27.346
16.9507
18.2575
20.4566
-77.9049
-90.2217
-89.7113
-88.0024
-91.4796
-74.2851
-76.5963
-77.708
-109.222
-106.77
-109.644
-92.9133
-96.2907
-98.6118
-45.2103
-45.3388
-42.8624
-55.8464
-53.5781
-53.2804
-49.8332
-49.4427
-54.681
-43.0314
-47.7516
-48.1151
11.5403
11.9213
12.8145
10.449
11.6939
11.2465
5.43901
2.48183
8.48457
8.61447
9.99607
8.09283
6.32457
-18.1011
-18.7463
-238.155
-257.718
-231.261
-20.9933
-22.1796
-22.2437
-21.0049
-22.5526
-22.5528
118.685
137.39
121.121
139.889
119.567
11.4941
11.9521
12.8621
11.7192
11.3697
11.6604
12.506
10.5798
11.3602
11.1192
12.5176
12.6467
-25.2186
-25.7367
9.4784
9.56502
10.3902
9.3789
9.09084
-220.034
-197.932
-198.927
-192.883
-196.74
-216.165
-138.392
-147.127
-100.524
-108.972
-61.2787
-69.0963
-34.0778
-34.2794
-36.3811
-31.9676
-33.7568
-33.6519
-39.8625
-42.2797
-37.0711
-38.9883
-19.4747
-19.5445
-18.8967
-20.9523
-19.8962
-19.7777
-20.0311
-20.8279
85.0523
82.6223
77.2949
90.3043
84.5116
87.1952
69.0654
64.4595
75.57
70.665
103.44
95.7743
92.3055
108.152
105.182
-172.338
-166.94
-160.795
-175.155
-185.363
-191.081
-177.135
-182.376
-167.512
-179.656
-174.556
35.6256
38.6591
39.5219
38.4535
35.3482
42.7032
39.5642
30.3418
27.9692
34.5103
31.4688
32.8438
31.8135
34.7228
57.2706
53.3389
62.9617
58.7664
47.3104
43.9114
52.0802
48.3933
48.7556
48.5504
52.148
-119.189
-126.778
-119.497
-122.493
-126.361
-118.213
-115.228
-118.055
14.7007
15.5195
17.1721
14.9071
14.1451
15.7553
15.1566
12.9396
12.796
13.9574
13.1785
21.4111
23.8733
25.6085
23.4479
20.7339
27.0054
24.1623
17.5766
16.3697
20.197
18.1225
20.7545
18.8171
20.765
-80.2855
-88.7967
-83.0925
-86.6149
-88.3687
-79.229
-77.9376
-81.7651
-102.364
-105.369
-108.166
-99.8876
-97.7418
-100.933
11.4232
11.4765
12.0014
12.0448
11.8993
11.9504
11.0619
12.0128
12.3057
12.3214
12.1233
12.2139
11.823
12.3113
12.1129
12.8081
12.3798
11.2513
11.9441
11.9006
12.0503
11.9648
11.2291
-48.9326
-46.3042
-46.0474
-46.3743
-48.597
-43.0491
-45.536
-49.2431
-52.3071
-52.7056
-49.1872
12.764
13.1789
13.6749
12.7589
13.0719
12.6717
13.1385
12.9884
13.5475
13.0406
-29.8781
-29.7743
-31.3601
-27.5054
-29.2398
-29.306
-29.2867
-29.7426
1.52124
-1.01915
9.06565
8.44633
-17.6773
-17.8908
-83.3539
-57.7899
-41.871
-17.3299
-16.9762
-12.5222
-3.07319
65.9271
108.175
-252.868
-128.481
-45.5295
-63.2706
-63.1691
-124.476
58.1572
52.5848
53.7768
-134.175
-135.175
-133.969
-96.8187
-112.301
16.8618
15.5632
13.9661
-73.9742
-72.8116
-72.5966
-42.1749
-39.8115
-39.7381
71.0232
65.6497
60.5171
64.2627
68.7181
66.9564
-186.299
-181.519
-170.001
58.0004
58.627
62.8019
-115.487
-132.931
-131.966
-130.503
-112.749
-113.807
-114.734
-128.783
-131.14
-135.447
16.4505
18.8955
17.0652
13.215
13.5457
15.0654
-76.1473
-76.0122
-74.9538
-92.7354
-92.2245
-91.611
-92.864
-111.512
-110.605
-111.694
-94.1487
-95.4223
-96.1602
13.7467
12.7447
13.1324
-69.9591
-69.8321
-72.2251
-37.4045
-37.4854
-41.6607
5.7444
4.43795
6.04913
8.10898
8.04473
8.2112
7.06568
-17.954
-15.5138
-15.0404
-239.434
-257.712
11.409
12.0892
11.9995
11.9412
12.2815
12.2378
12.1688
12.7129
12.6459
12.7267
-27.1307
-26.7402
-26.8287
8.97287
9.39316
9.26445
-93.7738
-93.6242
-177.044
-237.342
-224.836
-217.772
-216.802
-202.314
-205.22
-198.643
-185.756
-222.589
-144.732
-142.033
-141.418
-144.308
-145.762
-144.098
-103.299
-106.578
-64.7064
-63.631
-63.3801
-66.4657
-67.2341
-65.1709
-35.8093
-36.4171
-32.0028
-32.6545
-32.6355
-36.9806
-37.5505
-39.0176
-39.0033
-37.0863
92.821
80.9605
80.3815
78.3418
92.8119
90.6638
91.5124
66.3903
64.7053
76.3908
74.3459
75.8038
103.132
98.1812
105.774
113.665
116.323
117.475
100.383
-200.373
-200.225
53.3808
57.2567
56.8491
63.1165
61.7913
-121.086
-124.742
-137.854
-139.933
-145.24
-136.868
-133.595
-135.948
15.0877
13.7544
14.4812
-82.7986
-86.2682
-103.873
-105.013
-105.859
-102.453
-101.593
-102.69
11.4224
11.4364
11.6697
11.7145
11.3434
11.3097
10.9621
12.4416
12.6798
13.5239
11.5568
11.4606
12.3355
12.0106
11.251
11.3794
11.3702
11.3163
11.1685
-65.1927
-67.471
-68.7693
-61.1347
-61.1794
-63.1594
12.607
12.6218
12.6586
12.422
12.5306
12.517
-25.7374
-25.9802
-27.0375
-24.2867
-25.1058
-25.2761
-30.5746
-30.6962
-31.3325
-28.3149
-27.4276
-30.6111
-2.35205
-2.35277
-2.90012
9.61509
7.54618
8.08512
8.85391
6.11862
7.7332
6.94752
-21.6036
-18.2563
-18.6452
-17.9111
-16.7297
137.005
134.842
145.736
10.9951
10.6625
-1.72676
-3.5029
-5.34007
9.86309
9.94664
10.4133
9.58421
9.73928
9.65519
-12.0595
-12.9235
-14.6294
-140.253
-132.616
-226.602
-138.006
-136.513
-135.547
-158.333
-156.263
-155.806
-151.805
-153.163
-98.1256
-111.061
-59.7217
-60.5764
-57.6064
-58.6762
-71.4138
-71.5987
-70.4605
-19.2296
-19.1921
-19.0015
-19.4445
-19.3853
-19.4981
-163.173
-161.594
-163.467
-158.029
-159.757
-161.646
-116.6
-128.943
-130.494
-130.514
-115.854
-114.916
-116.02
-78.086
-77.038
-77.3479
-91.6673
-89.1078
-90.3773
-91.0402
-108.378
-109.462
-110.338
-97.4319
-96.683
-97.8766
-55.132
-55.476
-55.7829
-53.583
-54.5383
-54.3175
3.08166
1.63515
9.15107
8.65858
7.63411
8.11862
8.56223
-18.4439
-18.3274
-18.2367
-18.5168
-18.4508
-18.8444
-18.736
-18.507
-250.823
-253.124
-237.864
-273.51
-273.02
-249.309
-235.929
-265.778
-259.52
-287.976
-21.9132
-21.852
-22.2432
-21.059
-21.4512
-21.606
-23.0742
-23.0824
-23.7675
-22.6285
-23.0262
-22.8784
129.871
129.19
130.692
128.024
125.176
128.728
130.554
11.3591
11.8306
11.9118
11.9085
12.4678
12.0838
12.3437
12.0922
12.2497
12.3719
12.2925
12.3857
12.8028
12.8573
12.8826
12.7821
12.8491
12.4673
-25.095
-25.0197
-24.9017
-24.8517
-25.1083
-24.1227
-24.4953
-26.2848
-26.3095
-25.8912
9.25074
9.27339
9.42582
9.05915
9.14627
9.1499
-212.331
-215.116
-222.943
-217.797
-208.833
-208.658
-146.715
-139.765
-140.429
-139.401
-148.806
-150.472
-146.012
-147.424
-101.911
-107.907
-63.4132
-64.3609
-61.5252
-62.4762
-62.3221
-62.5104
-61.4694
-69.42
-68.3028
-67.7986
-65.3251
-34.0402
-35.1993
-33.1353
-33.2895
-33.9071
-40.7141
-40.7631
-40.0266
-42.075
-41.4559
-41.5024
-37.6769
-37.8436
-37.1614
-39.3021
-38.0027
-38.1582
-38.0284
-20.6019
-20.5338
-20.8269
-20.2752
-20.5555
91.1896
84.3918
82.399
83.0382
88.9131
88.8074
86.5226
69.5597
68.0087
64.6023
66.1936
65.9806
72.9618
71.0863
110.414
113.248
110.863
123.562
102.026
105.455
107.348
-169.856
-168.132
-169.644
-165.662
-167.864
-170.405
-174.203
-172.956
-187.697
-190.856
-189.182
-194.657
-194.611
-190.648
-179.405
-186.506
-186.496
-182.393
37.3233
36.1787
41.634
41.5717
42.4703
40.75
40.3105
29.5937
28.8442
33.5659
32.5465
55.8292
55.6902
57.1945
53.3332
54.5181
54.5682
61.543
61.6045
63.0521
58.3821
60.094
60.1253
60.4142
59.2889
46.2024
46.1454
47.2433
43.7774
44.975
45.0647
50.8282
50.7542
52.0426
48.2452
49.2873
49.5246
-119.974
-125.536
14.5847
14.1016
14.5572
13.7524
13.8371
14.3259
15.4344
14.8936
15.2754
15.3334
12.8297
12.3078
12.3663
12.2764
12.3247
12.8103
13.7249
13.3619
13.6083
12.6697
13.061
13.4677
22.6017
21.6651
25.9768
24.87
17.2617
16.8527
19.6237
18.9587
-81.5114
-87.5029
-107.081
-106.196
-107.277
-99.133
-100.361
-101.184
11.3905
11.6558
11.6407
11.3625
10.922
11.3469
11.4809
11.5499
11.5945
12.2452
11.8477
11.8635
12.6547
12.1523
12.3419
11.8967
12.0357
12.5176
11.7751
11.5183
11.3016
11.3466
11.2663
11.0386
11.3428
-48.0811
-47.9331
-48.7048
-46.1835
-47.0749
-47.2001
-47.1632
-47.8734
-43.2517
-43.2892
-42.7334
-44.707
-51.7561
-51.4958
-52.5845
-49.3284
-50.3848
-50.8183
13.3355
13.2117
13.1248
13.3472
13.3064
13.5305
13.2079
12.9215
12.6269
13.0656
12.9971
13.009
13.3543
13.0116
13.0478
12.9203
12.9996
13.4948
13.2386
13.2604
13.1217
13.506
13.566
-29.8069
-30.2998
-30.4417
-28.7926
-30.2181
0.214797
-1.23995
9.04089
9.49531
9.09596
8.86941
9.06221
8.7535
9.59563
9.56096
-18.5972
-18.4567
17.3
15.4911
10.9672
13.5305
2.54335
2.00029
-1.65965
-14.7487
-9.43175
-17.5427
-21.586
-18.0225
25.0512
29.0338
22.2789
29.537
29.6205
17.9831
27.3636
5.2083
3.20103
-0.446945
-30.2905
-16.9773
-34.2631
-37.1868
-26.8064
-37.1249
-33.5016
-29.0671
30.7203
37.4796
31.1113
40.601
57.5682
35.1539
45.2827
43.4325
28.0092
-8.6008
-45.9668
-23.2361
-55.5906
-50.8929
-43.134
-53.4293
-43.4641
-38.4127
32.0536
38.3267
38.5305
42.7422
47.1003
46.3454
65.216
70.4109
68.4759
-105.804
-84.481
-73.5305
-65.1953
-51.2829
-48.0029
28.4666
31.302
36.9386
37.4679
39.8469
42.6767
50.8147
52.3564
55.8228
-105.708
-89.1857
-89.3639
-63.9246
-52.2263
-52.7267
22.8977
23.1871
29.1299
27.4735
27.7232
30.5643
28.9306
28.1279
30.5898
-82.828
-73.7999
-79.9554
-53.3308
-46.4903
-50.011
17.7802
17.1301
21.4618
19.6042
19.1744
20.8932
17.4914
16.5768
17.3681
-55.2227
-52.3455
-59.9754
-39.6832
-37.3118
-42.112
13.6425
12.6649
15.9263
13.3976
13.1488
13.4647
-33.6037
-32.7591
-39.8858
-27.2834
-27.7479
-32.438
10.2795
9.03397
11.7037
-19.1513
-20.7686
-23.941
-17.4276
-19.4339
-23.3859
7.72299
6.94404
8.09386
5.74739
3.60494
5.29242
3.33509
1.38877
2.00679
-2.14892
-11.1245
-10.2707
-6.18847
-9.29028
-14.6554
-11.7422
-12.9227
-15.9115
5.86956
5.10236
5.909
4.21997
2.84331
3.36719
2.35438
0.460386
0.0072549
0.209617
-2.24766
-4.06175
-4.55645
-5.47707
-7.97472
-7.00634
-8.50104
-10.4328
3.34902
2.57427
2.89809
1.8024
0.913785
0.499736
0.00493292
-1.86593
-2.49077
-1.02017
-3.42669
-4.63161
59.2661
62.5289
59.36
-119.489
-134.809
-131.523
-106.396
-115.666
-105.789
33.2511
36.0952
36.2661
-103.742
-110.946
-105.502
-130.131
-126.299
-117.027
18.2939
19.3955
20.4862
-74.6344
-78.3646
-72.0284
-103.495
-97.6937
-93.6512
13.753
14.1032
14.6031
-46.6365
-47.9036
-43.8258
-69.9315
-63.8284
-63.2712
-27.1337
-27.2005
-25.3794
-41.2134
-38.3919
-38.2935
2.70741
5.78806
7.27664
-6.5585
-4.08396
-4.85857
-9.45006
-9.71746
-10.8368
-23.5687
-21.8347
-22.0038
79.7189
50.7053
49.419
5.09114
59.7761
106.398
24.1492
39.5679
8.03261
-149.686
-82.6349
-80.5825
-85.937
-96.7846
-26.9891
-50.5537
-55.6259
45.0309
46.5799
42.418
59.9042
51.4958
49.2214
51.5556
52.3949
61.0866
-175.028
-190.22
-187.854
-156.538
-168.009
-154.263
-90.4973
-85.3565
-108.506
-70.4511
-78.8313
-81.2676
-68.873
-74.7657
-67.3666
33.6147
36.7513
35.0042
41.3168
38.3586
34.4921
46.0054
42.2794
43.9899
45.5239
48.8954
47.7685
47.2039
47.1883
45.2081
60.1556
57.872
58.557
-154.412
-154.067
-151.834
-82.9654
-86.8036
-103.482
-71.8265
-79.9204
-77.3226
-82.1152
-81.6145
-73.0648
22.8747
25.1482
25.1948
24.1325
24.6415
22.1777
30.8429
27.5368
25.7288
23.9128
25.9002
26.8491
20.8966
21.881
20.9012
29.5365
28.0446
27.2822
-63.1418
-70.5473
-79.3495
-60.5864
-65.6745
-61.071
-73.9505
-70.0363
-64.1635
16.3522
17.6783
18.1236
16.1613
16.9449
15.6955
20.114
18.3927
16.7579
15.352
15.9176
16.7625
13.77
15.4603
14.5526
15.4914
15.129
14.4358
-58.0606
-58.2751
-57.029
-42.3366
-49.4922
-52.0497
-44.8497
-46.9658
-42.5192
-56.3258
-51.5999
-48.8512
-33.5025
-33.7639
-31.9851
-42.1029
-41.3402
-41.2781
-27.4815
-30.7732
-31.4691
-30.3791
-30.7194
-27.3208
-38.3105
-34.3361
-33.6584
-18.9213
-19.0514
-18.3637
-23.4902
-22.7016
-22.71
1.70619
1.38546
2.91148
-1.99246
0.59422
1.06039
-1.85539
-1.58435
-5.07568
-6.31865
-5.55069
-2.903
-7.13077
-6.16202
-4.07363
-10.752
-7.3356
-6.36493
65.9192
64.7599
62.4762
71.7432
68.2411
73.5804
61.8103
65.5511
68.0541
81.1654
83.3757
88.6512
90.1645
95.6416
91.9805
90.2342
92.8819
88.6267
-156.075
-157.466
-155.834
-176.043
-175.128
-171.08
-130.079
-131.229
-119.789
-163.315
-155.004
-155.005
-146.041
-148.257
-153.795
32.0947
32.6635
31.0584
43.2769
41.3872
41.1726
39.004
39.1014
42.2466
42.4013
42.2727
43.3218
29.0738
29.9548
30.4257
44.3695
45.453
45.5998
-118.032
-112.898
-106.834
-129.444
-128.747
-129.142
-146.735
-142.158
-144.099
-130.699
-131.432
-132.82
-114.903
-124.616
-119.876
15.5073
16.2953
15.8535
20.0487
19.2424
18.3128
21.7777
20.6784
22.1827
17.9823
17.5089
17.9124
14.0407
14.2139
14.6901
27.734
27.3735
28.2522
18.2879
18.763
19.4731
-87.0821
-80.5945
-78.5339
-74.2641
-75.3239
-75.7738
-90.0156
-95.5664
-89.3134
12.7085
12.1602
12.1707
12.4861
12.4536
12.6905
13.9965
13.7894
13.9372
12.1677
12.2562
12.9214
-43.5555
-43.5477
-42.8163
-55.8567
-55.1883
-55.0751
-54.4177
-49.4224
-49.6647
-54.0056
-53.3694
-55.1556
-43.1302
-44.7085
-44.7629
-72.2922
-71.998
-73.0976
-57.0734
-59.1183
-60.0763
-59.6635
-61.8488
-56.2322
12.0227
12.1563
12.3311
10.2537
10.6525
10.5666
12.6998
12.6048
12.5497
12.4658
12.5632
12.4798
-25.1793
-25.1827
-24.3247
-31.42
-30.4628
-30.1014
-40.1914
-40.169
-41.6428
-32.5946
-36.2286
-36.1301
-35.7967
-35.8122
-33.4233
3.74256
2.14163
5.1153
-0.666429
1.24365
3.31452
9.38276
9.42944
9.86054
-14.1427
-14.4365
-11.1395
69.9264
70.4525
65.3784
87.2216
72.6968
74.1981
74.367
76.9125
87.6035
-216.382
-230.312
-213.902
12.2959
12.4706
11.4029
14.5754
13.5168
12.7575
12.4305
12.8113
13.0021
12.6389
12.6519
12.3308
13.1545
12.9174
12.7023
-21.4246
-21.4401
-21.0913
-23.631
-23.1815
-23.2214
-15.1725
-17.8841
-17.688
113.166
118.129
112.393
120.983
123.373
118.623
-155.773
-128.789
-112.369
-139.46
-130.468
-159.442
-111.563
-122.618
-127.371
12.9593
13.8277
13.3572
14.5044
13.8608
12.9985
15.0429
14.4618
14.8775
11.8167
11.9289
12.1435
10.4932
10.7298
10.6545
-24.5102
-24.5709
-24.0976
-31.1923
-29.1378
-29.1347
-28.0755
-28.1063
-31.4953
-25.0443
-27.0808
-27.1219
9.93996
9.99314
10.2513
8.72891
8.92906
8.83836
-21.202
-21.7741
-23.4641
-18.6586
-20.1867
-20.4602
-20.3949
-20.1694
-18.5512
32.6279
49.7632
5.22099
63.4555
55.5563
35.9347
96.3935
64.1153
67.2213
-119.919
-126.457
-142.495
-42.4235
-76.2348
-84.38
-18.9441
-70.2241
-40.6954
-190.488
-191.068
-174.081
-216.585
-183.877
-169.427
-216.909
-215.998
-229.332
-161.964
-175.44
-182.66
-36.4031
-34.3316
-34.7385
-37.4807
-37.8149
-37.7829
-18.8784
-18.9902
-18.7056
-20.8084
-20.515
-20.4647
-22.5274
-22.6919
-23.461
-21.2185
-21.9429
-22.1609
-21.9206
-21.9235
-21.1689
76.6663
81.5787
78.3042
69.7551
70.2986
74.9849
98.9434
97.1343
94.9931
107.468
107.924
110.329
90.4829
95.1586
97.1732
-166.639
-165.46
-163.253
-165.634
-169.698
-168.337
36.2782
37.2481
37.5908
34.6553
34.4207
35.3676
53.3641
54.5531
54.5047
51.009
51.0143
52.1835
-121.571
-122.771
-123.87
-117.349
-119.947
-117.956
-124.003
-122.006
-119.274
-109.589
-111.839
-109.803
-115.897
-113.88
-111.577
-120.304
-119.28
-120.378
-140.462
-140.787
-142.679
-131.713
-135.744
-133.903
-139.417
-137.663
-133.38
-124.772
-127.945
-125.906
-132.05
-130.041
-126.692
-139.778
-138.377
-138.906
15.6726
15.9801
16.5464
15.5493
15.1758
15.4554
22.744
23.4976
24.1539
21.9333
21.4403
22.1117
-84.1304
-85.3304
-85.8514
-83.985
-85.1733
-82.7994
-89.9262
-87.5653
-86.2881
-74.838
-75.7994
-73.7285
-80.4158
-78.0605
-77.1331
-82.1976
-81.6012
-82.9026
-101.604
-103.541
-101.391
-107.74
-105.664
-103.677
-93.0327
-94.6264
-92.2994
-99.1785
-96.9374
-95.2663
12.3039
12.19
12.6834
12.0738
12.1684
12.2191
11.76
11.8056
11.6117
12.6663
12.3903
12.3372
13.0302
12.2662
12.399
-48.6712
-47.8866
-47.7481
-50.3467
-50.3714
-49.4143
-64.9593
-66.0948
-66.2886
-66.3823
-66.9511
-64.7981
-71.4824
-69.1887
-68.5043
-58.4326
-58.7628
-56.792
-62.7612
-60.773
-60.3823
-63.2314
-62.9699
-63.9355
12.9083
13.0934
13.1379
12.3751
12.6083
12.4151
12.6532
12.6448
12.6959
12.6786
12.6704
12.6983
12.3043
12.3724
12.3333
12.925
12.6826
12.6085
12.6793
12.6969
12.8982
12.5637
12.6174
12.6441
12.866
12.9216
12.8204
13.135
13.1811
13.0151
-27.0179
-26.1167
-26.0764
-26.7707
-26.7542
-27.1633
-24.0351
-24.4883
-24.5045
-27.5904
-28.1156
-28.1203
-29.0658
-28.96
-27.9741
3.77574
2.84702
5.3752
-0.260025
2.04367
2.55822
8.12636
8.24849
8.50932
-16.7104
-17.6198
-16.5926
-18.4132
-18.129
-17.8956
7.39564
8.12788
7.14446
10.3122
9.20794
8.16071
7.83595
8.03599
7.16714
9.5994
8.85554
8.76992
-4.70283
-7.16788
-6.15455
-8.13476
-6.73588
-5.56428
-10.4133
-8.78113
-9.8582
11.1689
10.9154
10.2799
11.9405
11.4679
11.4539
11.6081
11.5146
12.004
-2.74392
-4.66234
-6.45308
-0.738044
-2.14174
-0.99173
-2.85594
-2.68822
-1.403
-11.6677
-10.572
-10.1573
-14.9593
-12.6548
-13.1734
-12.9319
-10.0568
-10.9972
31.5028
59.8522
-3.81799
71.6328
63.4576
49.3606
108.853
71.5177
86.4982
-168.724
-176.361
-197.51
-77.3406
-111.068
-112.399
-32.5113
-105.553
-59.5285
51.2972
49.2239
49.3321
48.758
49.0268
50.9842
45.1853
47.073
46.8634
-150.302
-152.212
-150.587
24.0866
22.918
21.9619
24.3494
23.7424
24.9127
21.7434
22.7495
23.6058
29.1734
28.7054
30.1595
26.0708
27.3948
28.1215
25.8189
26.6554
25.3098
-60.4722
-59.4631
-59.1854
-20.431
-19.7438
-19.6806
-19.8809
-19.8591
-20.5308
-18.4568
-19.1475
-19.2467
0.558588
-0.57253
-0.819738
-0.42093
-0.645936
0.45599
-2.88357
-2.10336
-1.6326
97.9904
97.5304
91.7202
114.591
104.379
104.388
97.9032
102.415
114.234
-160.946
-159.284
-157.777
-153.264
-154.228
-162.141
-139.65
-147.205
-146.918
-147.016
-147.66
-141.245
-137.539
-142.903
-141.15
-145.904
-144.506
-138.918
-156.374
-150.186
-151.867
36.004
34.2978
33.8062
34.9745
34.7114
36.3637
31.5984
33.1592
33.6384
41.5412
41.5171
43.3315
38.0203
39.758
39.9321
39.2555
39.5459
37.7406
40.2331
41.2644
41.496
40.8236
41.0556
40.0126
43.1422
42.0841
41.8854
29.1256
29.5565
28.6814
31.289
30.4011
29.9506
31.086
30.786
31.6901
45.2048
45.3281
44.2277
47.5346
46.4242
46.3248
46.5788
46.5236
47.6253
-126.68
-127.675
-128.287
-124.943
-124.538
-124.102
-111.738
-112.846
-111.838
-114.997
-113.969
-113.119
20.6876
20.0629
20.9148
18.6567
19.3762
20.2151
17.6321
18.5434
17.8729
16.859
17.2209
17.8502
16.0996
16.6251
16.3052
17.2591
16.8994
16.2272
25.7355
26.5681
27.1416
25.4461
26.0506
25.229
27.8142
26.9191
26.405
17.3889
18.1197
17.6669
19.0604
18.5657
17.8185
19.7118
19.1954
19.7294
-89.0581
-89.75
-88.5261
-92.2167
-91.0064
-90.4585
-77.4085
-77.097
-74.5506
-76.8377
-76.498
-77.4952
-107.519
-108.56
-107.528
-110.732
-109.708
-108.914
-93.9087
-94.7087
-93.4979
-97.138
-95.9764
-95.3504
-45.2403
-44.3545
-44.3285
-44.3479
-44.3416
-45.2611
-42.8424
-43.5066
-43.4132
-54.2051
-54.3562
-53.4276
-49.752
-51.6281
-51.6354
-51.1585
-51.2946
-49.5751
-54.8758
-53.0264
-52.8961
-44.5022
-44.7169
-43.1642
-47.9265
-46.3305
-46.1307
-46.4711
-46.3694
-48.0232
11.6775
11.9398
11.8017
12.4965
12.1107
11.8356
12.4888
12.3257
12.6065
10.8955
10.7619
10.3449
11.5251
11.1628
11.3397
10.9164
11.0247
11.3701
4.47895
4.5346
5.65767
2.16788
3.36901
3.49316
8.51293
8.99586
8.99479
9.07943
9.0252
8.54598
9.92031
9.47437
9.53126
6.71667