/*--------------------------------*- C++ -*----------------------------------*\
| =========                 |                                                 |
| \\      /  F ield         | OpenFOAM: The Open Source CFD Toolbox           |
|  \\    /   O peration     | Version:  5.x                                   |
|   \\  /    A nd           | Web:      www.OpenFOAM.org                      |
|    \\/     M anipulation  |                                                 |
\*---------------------------------------------------------------------------*/
FoamFile
{
    version     2.0;
    format      ascii;
    class       surfaceScalarField;
    location    "7200";
    object      phi;
}
// * * * * * * * * * * * * * * * * * * * * * * * * * * * * * * * * * * * * * //

dimensions      [0 3 -1 0 0 0 0];

internalField   nonuniform List<scalar> 
13181
(
0.0333624
0.132799
0.0333551
0.132929
0.0333678
0.132902
0.0334116
0.13287
0.033491
0.132842
0.0335448
0.13286
0.0337187
0.132743
0.0340286
0.132607
0.0344504
0.132495
0.0348958
0.132471
0.0353038
0.132509
0.0355583
0.132662
0.0355665
0.132908
0.0353335
0.13315
0.0349461
0.133304
0.0345066
0.133356
0.0340954
0.133328
0.033756
0.133256
0.0334382
0.133232
0.0332138
0.133146
0.0330138
0.133114
0.0329485
0.13298
0.0329576
0.132912
0.132482
0.0334984
0.13267
0.033789
0.132638
0.0338556
0.132835
0.0339768
0.132749
0.0340808
0.132738
0.0340716
0.13287
0.03416
0.132654
0.0347021
0.132065
0.035571
0.131626
0.0364856
0.0657816
0.0657747
0.0373498
0.0658208
0.0658242
0.0379257
0.0660153
0.0660708
0.0379905
0.0663795
0.066464
0.0375483
0.0667648
0.0668276
0.0367932
0.0670208
0.0670381
0.0357565
0.134393
0.0347446
0.13434
0.0339314
0.134069
0.0332953
0.133868
0.0329998
0.133441
0.0328993
0.133215
0.0328617
0.133017
0.0332499
0.132524
0.132377
0.0331382
0.13268
0.033201
0.132575
0.0335372
0.132499
0.0336843
0.132602
0.0340068
0.132415
0.0344473
0.132429
0.0345453
0.132556
0.035162
0.131448
0.0180701
0.130533
0.0181849
0.0655136
0.0183381
0.065493
0.0189731
-0.0186453
-0.0192664
0.0657399
0.0195418
-0.0197036
0.0662751
0.019808
-0.0197598
0.0668684
0.0196562
-0.0194348
0.0672739
0.0191818
0.0363988
0.0680284
-0.0190425
-0.018966
0.0679739
0.0349325
0.135807
0.0340272
0.134974
0.0335319
0.134363
0.0331792
0.133794
0.0329801
0.133414
0.0332095
0.132788
0.0332413
0.132492
0.132324
0.0328728
0.132804
0.0328052
0.132643
0.03285
0.132454
0.0331992
0.132253
0.0334734
0.132141
0.0340463
0.131856
0.0347585
0.131844
0.0356872
0.13052
0.0182639
0.0650063
0.0183572
0.0645926
0.0646257
0.0187605
-0.0651224
0.0644289
0.0199387
-0.0650397
-0.0193279
-0.0205313
0.0648156
0.0210699
-0.0653541
-0.021448
0.0659521
0.0216343
-0.0661385
-0.0215559
0.0674549
0.021156
-0.067055
-0.0204293
0.0685813
0.0196334
-0.0677854
-0.0189179
0.0684692
0.0184771
0.0356788
0.0685165
-0.0185295
-0.0181921
0.0683331
0.0346363
0.136017
0.0338262
0.135173
0.033256
0.134364
0.0332279
0.133442
0.0331559
0.13286
0.0331176
0.132531
0.13225
0.0326306
0.132976
0.0324922
0.132781
0.0324213
0.132525
0.0325136
0.132161
0.0328858
0.131769
0.0334591
0.131283
0.0349927
0.13031
0.0184012
0.0642935
0.0182216
0.064596
0.0650904
0.0183171
0.0634276
0.0192136
-0.0640703
-0.0185709
0.0627755
0.020888
-0.0636503
-0.0200133
-0.0219561
0.0229969
-0.0640621
0.0315449
0.0314764
-0.0237841
0.0241445
-0.0656982
0.0327646
0.0325732
-0.0238066
0.0226215
-0.0682391
0.0346706
0.0347536
-0.0219712
0.0700113
0.0211781
-0.0692182
-0.0203221
0.0697906
0.0196316
-0.0691
-0.0189781
0.0690098
0.0184848
0.034751
0.137433
-0.0180984
-0.0180689
0.0337559
0.136168
0.033375
0.134745
0.0330847
0.133732
0.0329202
0.133024
0.0329152
0.132536
0.132135
0.0323339
0.133207
0.0321347
0.132981
0.0319822
0.132677
0.0318914
0.132252
0.0319831
0.131677
0.0323483
0.130918
0.0166354
0.129803
0.0162205
0.0642128
0.0167161
0.0635339
0.0184221
-0.0646666
-0.0172894
0.0617436
0.0204076
-0.0627371
-0.0194141
-0.0310157
-0.0105203
0.0308289
0.0107071
-0.0307073
-0.011751
0.0303135
0.0121448
-0.0321852
-0.0134657
0.031994
0.0136569
-0.0348189
-0.0128594
0.0348045
0.0128737
-0.0116638
0.0224935
-0.071062
-0.0118579
0.0360135
0.0360768
-0.0213828
0.071737
0.0202919
-0.070646
-0.0193661
-0.0696832
0.070453
0.0185962
0.0343728
0.138958
-0.017909
-0.0179886
0.0335629
0.136978
0.0330261
0.135282
0.0326915
0.134067
0.0325812
0.133135
0.0326264
0.132491
0.131965
0.0319845
0.133507
0.0316974
0.133268
0.0314398
0.132935
0.0312238
0.132468
0.0310541
0.131847
0.031022
0.13095
0.0156796
0.129744
0.0154013
-0.0641801
0.0641025
0.0157572
-0.0629571
0.0627287
0.0161454
-0.015917
-0.0608898
0.0603887
-0.0164788
0.00863022
0.00834971
-0.0294481
-0.00940711
0.0289432
0.00991208
-0.0141003
-0.00616337
0.0138176
0.00644603
-0.00859317
-0.0152175
0.015125
0.0086857
-0.00768693
-0.0367819
0.014651
-0.00766114
0.0186623
0.0188166
-0.0126332
-0.0370233
0.0376581
0.0119984
-0.0212882
-0.0729502
0.0741966
0.0200418
-0.0190402
-0.0712491
0.0720533
0.018236
0.0335932
0.140222
-0.0172946
-0.0175627
0.0328702
0.137701
0.0323679
0.135784
0.0321333
0.134301
0.0320983
0.13317
0.0322215
0.132367
0.131706
0.0316124
0.133863
0.031242
0.133638
0.030871
0.133306
0.0304825
0.132856
0.0300793
0.13225
0.0296161
0.131413
0.0147738
0.13024
0.0143463
-0.0641943
0.0642894
0.0146787
-0.0627244
0.0628735
0.0144116
-0.0145607
-0.0602988
0.0605747
-0.0142225
0.00713992
0.0068067
-0.0281437
-0.00710437
0.0281959
0.00705211
-0.0116706
-0.00369213
0.0116402
0.00372259
-0.00828733
-0.021104
0.0215369
0.00785441
-0.0119983
-0.0396767
0.0403042
0.0113708
-0.0198975
-0.07542
0.0764181
0.0188994
-0.0181142
-0.0728274
0.0734487
0.0174929
0.0323214
0.14133
-0.016491
-0.0169389
0.0317089
0.138314
0.0314629
0.13603
0.0314078
0.134357
0.0315101
0.133067
0.031748
0.132129
0.131376
0.0312136
0.134274
0.0307814
0.13407
0.0303076
0.13378
0.0297912
0.133372
0.0291953
0.132846
0.0284597
0.132149
0.0138655
0.131216
0.0136182
-0.0644869
0.0647537
0.0135988
-0.0632732
0.0637564
0.0126918
-0.0131749
-0.061244
0.0621231
-0.0120577
0.00567689
0.00550168
-0.029085
-0.00506817
0.0295234
0.00462974
-0.0132315
-0.00123499
0.0135363
0.000930171
-0.00477126
-0.0226249
0.0225536
0.00484254
-0.00919797
-0.0414877
0.041644
0.00904162
-0.0168573
-0.0771083
0.0774234
0.0165421
-0.0162462
-0.073896
0.0741432
0.0159991
0.0306882
0.141578
-0.0152202
-0.015716
0.0304492
0.138553
0.0304233
0.136056
0.0305923
0.134187
0.0308437
0.132816
0.0311807
0.131792
0.130955
0.0308278
0.134717
0.0303343
0.134564
0.0297945
0.13432
0.0291713
0.133996
0.0284479
0.133569
0.0275253
0.133071
0.0132494
0.132425
0.0130669
-0.0651934
0.0656264
0.0128164
-0.0643308
0.0649397
0.0117179
-0.0123267
-0.0631122
0.0640888
-0.010954
0.00501501
0.00496243
-0.0309145
-0.00435344
0.0313357
0.00393224
-0.0153111
-0.0011006
0.0154968
0.000914813
-0.00206639
-0.0212627
0.0210135
0.0023155
-0.00629984
-0.041389
0.0411334
0.00655548
-0.0136413
-0.0773683
0.0769929
0.0140167
-0.0142717
-0.074178
0.0740383
0.0144114
0.0288712
0.141115
-0.0139697
-0.0144385
0.0292946
0.13813
0.0294232
0.135928
0.0297162
0.133894
0.0301317
0.1324
0.030574
0.13135
0.130465
0.0304533
0.13518
0.0299386
0.135078
0.0293579
0.1349
0.0286914
0.134662
0.0278702
0.134391
0.0268741
0.134067
0.0128409
0.133743
0.012715
-0.0661178
0.0665593
0.0123994
-0.0655551
0.0661409
0.0113167
-0.0119025
-0.0649888
0.0658033
-0.0106275
0.0048956
0.0049174
-0.0323691
-0.00440812
0.0326377
0.00413957
-0.0162983
-0.00163929
0.0163588
0.00157876
-0.000679921
-0.0190936
0.0188182
0.000955408
-0.00433486
-0.0399969
0.0395575
0.00477424
-0.0111365
-0.0763697
0.0755849
0.0119213
-0.0125496
-0.0737158
0.0732804
0.0129851
0.0272102
0.140105
-0.0129284
-0.013271
0.0280075
0.137332
0.0286482
0.135287
0.0288455
0.133697
0.0293869
0.131859
0.0299379
0.130799
0.129915
0.0301019
0.135652
0.0295841
0.135596
0.0289901
0.135494
0.0283014
0.135351
0.0274959
0.135196
0.0265198
0.135044
0.0126224
0.135049
0.0125914
-0.0669783
0.0673609
0.0122398
-0.0666948
0.0672063
0.0112791
-0.0117906
-0.0665175
0.0671531
-0.0107047
0.00501933
0.00504972
-0.0332861
-0.00466892
0.0334678
0.00448718
-0.0166206
-0.00198371
0.0166501
0.00195418
-0.000343627
-0.0170359
0.0168118
0.000567751
-0.00343561
-0.0381576
0.0377039
0.00388926
-0.00966272
-0.0746671
0.0736887
0.0106412
-0.0113888
-0.0727449
0.072167
0.0119667
0.0259659
0.138742
-0.0121928
-0.0124101
0.0269696
0.136329
0.0277853
0.134471
0.0284301
0.133052
0.0286956
0.131593
0.0293076
0.130187
0.129322
0.0297856
0.136115
0.0292761
0.136106
0.0286946
0.136076
0.0280335
0.136012
0.0272618
0.135968
0.0263629
0.135943
0.0126172
0.136145
0.0126501
-0.0677303
0.0680733
0.0122743
-0.0676705
0.0680894
0.0114543
-0.0118732
-0.0677081
0.0681991
-0.011
0.00523545
0.00527343
-0.0339573
-0.00496147
0.0341064
0.00481235
-0.0169274
-0.00213709
0.0169859
0.00207855
-0.000444536
-0.0153438
0.0151465
0.00064184
-0.00327497
-0.0364162
0.0360198
0.00367138
-0.00916834
-0.0726759
0.0717569
0.0100874
-0.010829
-0.0715696
0.0709812
0.0114174
0.0251683
0.137317
-0.0118224
-0.0119213
0.0262343
0.135263
0.0271124
0.133593
0.0277418
0.132423
0.0281259
0.131209
0.0287163
0.129597
0.128717
0.0295129
0.13655
0.0290235
0.136595
0.028483
0.136616
0.0278629
0.136632
0.0271587
0.136672
0.0263526
0.136749
0.0254225
0.137075
0.0121213
0.137936
0.012199
-0.068403
-0.068431
-0.0684547
0.0687786
0.0117974
-0.0686151
0.0691439
0.010881
-0.0114097
-0.0345191
-0.00500156
0.0350474
0.00447321
-0.0177193
-0.00152041
0.0175228
0.00171683
-0.0058365
-0.00108137
0.00616634
0.000751529
-0.000910987
-0.0139918
0.0280278
0.00235519
-0.000918769
-0.0145614
-0.0349606
-0.00354872
0.0346764
0.00383298
-0.00940792
-0.0709384
0.0702075
0.0101388
-0.0107556
-0.0704454
0.0700244
0.0111765
0.0247521
0.136054
-0.0117496
-0.0117394
0.0257566
0.134258
0.0266059
0.132744
0.0270632
0.131966
0.0279667
0.130306
0.0282106
0.129353
0.128158
0.0292626
0.136964
0.0288114
0.137046
0.0283103
0.137117
0.0277402
0.137202
0.0271147
0.137298
0.026416
0.137447
0.0255264
0.137964
0.0120934
0.1395
0.0118696
-0.0691869
0.069792
0.0114882
-0.0697264
0.069772
0.011062
-0.0111077
-0.0349211
-0.00560977
0.0349346
0.00559623
-0.0350917
-0.00545209
0.0351134
0.0054304
-0.0146235
-0.00552248
0.0282891
0.00423215
-0.0123753
-0.0263254
-0.0017505
0.0256118
0.00246412
-0.0678714
-0.00364423
0.0670953
0.00837199
-0.00395165
-0.00913609
-0.0695889
0.0689547
0.00977025
0.0226905
0.136509
-0.0106859
-0.0102749
-0.0698395
-0.0683994
0.0239014
0.134843
0.0248607
0.133299
0.0255799
0.132025
0.0268708
0.130675
0.0275321
0.129644
0.0281293
0.128756
0.128029
0.0290544
0.137345
0.0286376
0.137463
0.0281784
0.137577
0.0276734
0.137707
0.0271138
0.137857
0.0264881
0.138073
0.0255046
0.138948
0.0120187
0.14034
0.0126461
-0.0700403
0.0698813
0.0121778
-0.0698003
0.0699388
0.0120582
-0.0121967
-0.0701557
0.0702558
0.0118264
-0.0119265
-0.035145
-0.00584234
0.0351587
0.00582869
-0.0305852
-0.00588017
0.0309627
0.0055026
-0.0246696
-0.00257912
0.0504541
0.00636546
-0.0268544
-0.00271644
-0.0660311
-0.00775784
0.064958
0.00883097
-0.0683915
-0.00956811
0.0678424
0.0101171
0.0230232
0.134926
-0.0108209
-0.010619
0.0242397
0.133626
0.0249248
0.132614
0.0256376
0.131312
0.0262219
0.130091
0.0267866
0.12908
0.0272605
0.128282
0.127487
0.0288669
0.137695
0.0285015
0.137828
0.0280968
0.137981
0.0276483
0.138156
0.027169
0.138336
0.0265451
0.138697
0.0257628
0.13973
0.0256677
0.140435
0.0125707
0.14043
-0.0700135
-0.0699889
0.0126696
-0.070079
0.0702164
0.0124333
-0.0703335
0.0704014
0.0122615
-0.0123294
-0.0703064
-0.012213
0.0703201
0.0121993
-0.060243
-0.0121192
0.061849
0.0105132
-0.0502958
-0.00759012
0.0505725
0.00731342
-0.0639459
-0.00843261
0.0630563
0.00932215
-0.0673279
-0.0101064
0.0668269
0.0106074
0.0232564
0.133886
-0.0111594
-0.0110568
0.0240689
0.132814
0.0248137
0.131869
0.0255349
0.130591
0.0261787
0.129447
0.0266351
0.128623
0.0271295
0.127787
0.127124
0.0287134
0.13801
0.0283837
0.138158
0.0280227
0.138342
0.0276397
0.138539
0.027214
0.138762
0.0265299
0.139381
0.0260605
0.1402
0.0260227
0.140472
0.0257353
0.140717
0.0126719
0.141043
-0.0703191
-0.0703917
0.0127317
-0.0704591
0.0705552
0.0125757
-0.0703627
-0.0125101
0.0703614
0.0125114
-0.0630105
-0.0124596
0.0638168
0.0116533
-0.0512214
-0.00920509
0.0521975
0.00822898
0.0205325
0.124032
-0.0625
-0.0643744
-0.00886525
-0.0088245
0.0225307
0.13114
-0.0663844
-0.0667535
0.023582
0.132834
0.0241869
0.132209
0.024822
0.131234
0.0253773
0.130035
0.0258783
0.128946
0.0263506
0.128151
0.0268822
0.127256
0.126888
0.0285831
0.13829
0.0282851
0.138456
0.0279813
0.138646
0.0276473
0.138873
0.0272881
0.139121
0.0267323
0.139937
0.0265004
0.140431
0.0263865
0.140586
0.0261134
0.14099
0.0258749
0.141281
0.025729
0.141374
-0.0706117
-0.0706168
0.0256112
0.140176
-0.0703241
-0.0697345
0.0221074
0.125392
-0.0638006
-0.0580878
0.0191227
0.11235
-0.0535745
-0.0557905
0.0210179
0.122137
0.0227757
0.129382
0.0238195
0.13179
0.0243991
0.13163
0.024901
0.130732
0.025327
0.129609
0.0256946
0.128578
0.0261481
0.127698
0.0265628
0.126841
0.126639
0.0284728
0.138537
0.0282218
0.138707
0.0279507
0.138917
0.0276666
0.139157
0.027359
0.139429
0.0269658
0.14033
0.0267754
0.140622
0.0266482
0.140714
0.0264517
0.141187
0.0262761
0.141457
0.0261496
0.141501
0.0259597
0.140366
0.0232691
0.128083
0.0203913
0.115227
0.021485
0.121043
0.0230331
0.127834
0.0240325
0.130791
0.0245914
0.131071
0.0249996
0.130324
0.0253376
0.129271
0.025648
0.128268
0.0259993
0.127346
0.0263375
0.126503
0.12642
0.0283795
0.138756
0.028155
0.138932
0.0279246
0.139148
0.0276829
0.139398
0.0274397
0.139672
0.0271821
0.140588
0.0269997
0.140804
0.0268808
0.140833
0.0267302
0.141337
0.0265976
0.141589
0.0264892
0.141609
0.0263209
0.140535
0.0241417
0.130262
0.0214217
0.117947
0.021906
0.120559
0.0232318
0.126508
0.0242024
0.12982
0.0247515
0.130522
0.0251001
0.129975
0.0253653
0.129006
0.0256173
0.128016
0.0258942
0.127069
0.0261688
0.126228
0.126238
0.0283009
0.138946
0.0281067
0.139126
0.0279166
0.139338
0.027715
0.1396
0.0275116
0.139876
0.0273308
0.140769
0.027168
0.140967
0.0270099
0.140991
0.026966
0.141381
0.0268646
0.141691
0.0267817
0.141692
0.0266366
0.14068
0.0248382
0.132061
0.0223061
0.120479
0.0223082
0.120557
0.0233942
0.125422
0.0243258
0.128889
0.0248755
0.129972
0.0252057
0.129645
0.0254055
0.128806
0.0256152
0.127806
0.0258224
0.126862
0.026031
0.12602
0.126086
0.0282271
0.13912
0.0280748
0.139278
0.0279086
0.139504
0.0277463
0.139762
0.0275801
0.140042
0.0274344
0.140914
0.0273057
0.141096
0.0271824
0.141114
0.027167
0.141396
0.0270949
0.141763
0.0270272
0.14176
0.0268973
0.140809
0.0254128
0.133545
0.0230897
0.122803
0.0227098
0.120937
0.0235415
0.12459
0.0244159
0.128014
0.0249784
0.129409
0.025288
0.129335
0.0254671
0.128627
0.0256269
0.127646
0.0257824
0.126707
0.0259457
0.125856
0.125976
0.028179
0.139264
0.028033
0.139424
0.0279002
0.139637
0.0277681
0.139894
0.0276308
0.140179
0.0275272
0.141018
0.0274252
0.141198
0.0273299
0.141209
0.0272823
0.141444
0.0272865
0.141759
0.0272371
0.141809
0.0271186
0.140928
0.0258869
0.134777
0.0237776
0.124912
0.0231082
0.121606
0.0236802
0.124018
0.0244796
0.127215
0.0250457
0.128843
0.0253656
0.129015
0.0255291
0.128464
0.0256412
0.127534
0.0257519
0.126596
0.0258682
0.12574
0.125887
0.0281323
0.139392
0.0280155
0.139541
0.027897
0.139755
0.0277892
0.140002
0.0276855
0.140283
0.0276084
0.141095
0.0275275
0.141279
0.0274557
0.141281
0.0274012
0.141499
0.0274464
0.141714
0.0274127
0.141843
0.027313
0.141028
0.0262829
0.135807
0.0243853
0.126809
0.0235045
0.122487
0.0238294
0.123693
0.0245287
0.126516
0.0250852
0.128287
0.0254044
0.128696
0.0255686
0.1283
0.0256713
0.127431
0.0257512
0.126516
0.0258301
0.125661
0.12583
0.0280931
0.139501
0.0279933
0.139641
0.0278994
0.139849
0.0278121
0.140089
0.0277242
0.140371
0.0276711
0.141148
0.0276141
0.141335
0.0275646
0.141331
0.0275246
0.141539
0.0274509
0.141787
0.0274602
0.141833
0.0273863
0.141102
0.0265534
0.13664
0.0248599
0.128503
0.0238466
0.1235
0.0239394
0.123601
0.0245211
0.125934
0.0250492
0.127759
0.025366
0.128379
0.0255788
0.128087
0.0256777
0.127333
0.0257443
0.126449
0.0258029
0.125602
0.125797
0.0280618
0.139594
0.0279749
0.139727
0.0279059
0.139918
0.0278264
0.140169
0.0277644
0.140433
0.0277223
0.14119
0.0276897
0.141368
0.027653
0.141367
0.0275722
0.141619
0.0275164
0.141843
0.0275009
0.141849
0.0274201
0.141182
0.0267052
0.137355
0.0251945
0.130014
0.0240988
0.124596
0.0239878
0.123712
0.0244475
0.125474
0.0249616
0.127245
0.0253041
0.128037
0.0254804
0.12791
0.0255609
0.127252
0.0255947
0.126416
0.0256304
0.125567
0.125676
0.0280326
0.139677
0.0279596
0.1398
0.0278958
0.139982
0.0278457
0.140219
0.0278005
0.140478
0.0277739
0.141217
0.027751
0.141391
0.0276726
0.141446
0.02761
0.141682
0.0276091
0.141844
0.0276031
0.141855
0.0275338
0.141252
0.0269324
0.137956
0.025593
0.131353
0.0244562
0.125733
0.0241676
0.124
0.0244961
0.125146
0.0249588
0.126782
0.0253154
0.12768
0.0255048
0.127721
0.0255805
0.127176
0.0256146
0.126382
0.0256264
0.125555
0.125567
0.0280096
0.139749
0.0279544
0.139856
0.0279012
0.140035
0.0278642
0.140256
0.0278204
0.140522
0.027808
0.141229
0.0277474
0.141452
0.0276772
0.141516
0.0276771
0.141682
0.0276826
0.141839
0.0276845
0.141853
0.0276273
0.141309
0.0271212
0.138462
0.0259377
0.132536
0.0247964
0.126874
0.0243602
0.124436
0.0245544
0.124952
0.0249637
0.126373
0.0253077
0.127336
0.0255172
0.127512
0.0256098
0.127084
0.0256267
0.126365
0.0256366
0.125545
0.125474
0.027998
0.139806
0.027936
0.139918
0.0278974
0.140074
0.0278619
0.140291
0.0278465
0.140537
0.0277852
0.14129
0.0277176
0.141519
0.0277234
0.14151
0.0277289
0.141677
0.0277406
0.141827
0.0277502
0.141843
0.0277026
0.141356
0.0272768
0.138888
0.0262323
0.133581
0.0251131
0.127993
0.0245581
0.124991
0.0246221
0.124888
0.0249665
0.126028
0.0253009
0.127002
0.0255218
0.127291
0.0256188
0.126987
0.0256509
0.126333
0.0256488
0.125547
0.125389
0.0279745
0.139862
0.0279331
0.139959
0.0279046
0.140102
0.0278762
0.14032
0.0278098
0.140604
0.0276983
0.141402
0.0277442
0.141473
0.027755
0.141499
0.0277682
0.141663
0.0277852
0.14181
0.0277986
0.14183
0.027761
0.141394
0.0274014
0.139248
0.0264834
0.134499
0.0254056
0.129071
0.0247613
0.125636
0.0247047
0.124944
0.0249751
0.125758
0.0252967
0.12668
0.02551
0.127077
0.0256265
0.12687
0.0256597
0.126299
0.0256566
0.12555
0.125304
0.0279693
0.139903
0.0279275
0.140001
0.027895
0.140135
0.0278857
0.140329
0.0276614
0.140828
0.0277209
0.141342
0.0277656
0.141428
0.0277812
0.141484
0.027798
0.141647
0.027817
0.141791
0.0278333
0.141814
0.0278033
0.141424
0.0275005
0.13955
0.0266954
0.135304
0.0256742
0.130092
0.0249655
0.126344
0.024798
0.125112
0.0249914
0.125564
0.0252761
0.126395
0.0255072
0.126846
0.0256216
0.126756
0.0256692
0.126252
0.0256684
0.125551
0.125224
0.0279515
0.139946
0.0279297
0.140023
0.0279012
0.140163
0.0277559
0.140474
0.0276598
0.140924
0.0277233
0.141279
0.0277796
0.141372
0.0277982
0.141465
0.0278155
0.141629
0.0278388
0.141767
0.0278554
0.141797
0.0278304
0.141449
0.0275737
0.139807
0.0268729
0.136005
0.0259144
0.131051
0.0251706
0.127088
0.0249043
0.125378
0.0250173
0.125452
0.025265
0.126148
0.0254853
0.126626
0.0256219
0.126619
0.0256742
0.1262
0.0256855
0.12554
0.125149
0.0279521
0.139978
0.0279187
0.140056
0.0279006
0.140181
0.0277175
0.140657
0.0276807
0.140961
0.027737
0.141223
0.0277854
0.141324
0.0278079
0.141443
0.0278254
0.141612
0.0278462
0.141747
0.0278619
0.141781
0.0278395
0.141472
0.02762
0.140027
0.0270092
0.136616
0.0261284
0.131931
0.0253738
0.127843
0.0250281
0.125724
0.0250582
0.125421
0.0252608
0.125945
0.0254665
0.12642
0.0256028
0.126483
0.0256717
0.126131
0.0256819
0.12553
0.125065
0.0279482
0.140004
0.027925
0.140079
0.0279086
0.140198
0.0277739
0.140792
0.0277072
0.141028
0.0277303
0.1412
0.0277904
0.141264
0.0278092
0.141424
0.0278292
0.141592
0.0278474
0.141729
0.0278606
0.141768
0.0278388
0.141493
0.0276505
0.140215
0.02712
0.137146
0.0263176
0.132734
0.0255649
0.128596
0.0251535
0.126135
0.0250995
0.125475
0.025256
0.125788
0.0254452
0.126231
0.0255898
0.126338
0.0256551
0.126065
0.0256813
0.125503
0.124977
0.0279362
0.0279102
0.027896
0.0278408
0.0278039
0.0277329
0.027788
0.0278094
0.0278235
0.0278353
0.0278332
0.0277884
0.0276025
0.0271501
0.0264689
0.0257929
0.0253566
0.0252237
0.025291
0.025428
0.0255507
0.0256327
0.0256592
-0.00137655
0.001067
-0.012922
0.0227296
0.00520618
-0.022808
-0.0025131
-0.00261472
-0.0212482
-0.00876587
0.0217267
-0.00105039
0.000847041
-0.0151077
0.0208722
0.00232831
-0.0211633
-0.000993393
-0.00104383
0.0225919
-0.00227309
-0.00236041
-0.00157379
0.00150419
-0.0162287
0.0183762
0.000785943
-0.018688
-0.000226701
-0.000247465
0.0205743
-0.00086089
-0.000907557
-0.00195714
0.00192784
-0.0165913
0.0161234
0.000345483
-0.0163846
-8.43157e-05
0.0180711
-0.000178086
-0.00019667
-0.00211102
0.00206302
-0.0168794
0.0143231
0.000426962
-0.0145281
-0.000221968
-8.59728e-05
0.0158658
-0.00146247
0.00117223
-0.017429
0.00101351
0.00848397
-0.0010283
-0.00428236
-0.00418682
0.000558566
-0.00291666
-0.00246489
0.0127297
0.000733473
-0.0129035
-0.000559666
-0.000254645
0.0141332
-0.00410381
0.00426401
-0.0118308
-0.0146705
-0.00830665
0.014384
0.00852236
-0.0207236
-0.00904692
-0.0179262
-0.00799451
0.0182338
-0.00545202
0.00505457
-0.0286876
0.0134365
-0.0131744
-0.00163865
-0.0121928
-0.00365779
0.0121585
0.00571263
0.00359965
-0.0115144
0.00569849
-0.00171263
-0.00178376
0.00556008
-0.0108309
-0.00583261
0.0111035
0.00522952
-0.0226482
0.0422508
0.00998743
-0.0419775
-0.0102608
-0.0402205
-0.0127247
0.0409469
-0.00442964
0.00397712
-0.0304619
0.015293
-0.0151044
-0.00123902
-0.00149497
0.0136964
0.0143911
-0.00101549
0.000744328
-0.0141199
0.00724795
-6.60007e-05
-0.00715935
2.7795e-05
-5.03889e-05
-0.00644999
-0.000139746
1.84312e-05
0.0065713
0.00417297
0.000228023
-0.00431305
-8.79415e-05
-0.00498109
0.000979128
-0.000991284
0.00499325
0.0025669
-0.0215012
0.0419392
0.00696014
-0.0422005
-0.00669888
-0.00932342
0.0423763
-0.00436263
0.00405894
-0.0320654
0.016257
-0.0161832
-0.00164763
-0.00127473
0.0154672
0.0159418
-0.00129402
0.00116286
-0.0158106
0.0083004
0.000249598
-0.0082763
-0.000450191
0.000176485
-0.00790794
5.38618e-05
-0.0001889
0.0079592
8.37743e-05
0.00302734
6.64773e-05
-0.00304513
-4.86896e-05
-0.00339052
7.04411e-05
0.00337197
-5.18873e-05
0.00106533
-0.019373
0.0401874
0.0047351
-0.0407009
-0.00422165
-0.00595573
0.0415951
-0.00460257
0.00440669
-0.0330902
0.0166217
-0.0165878
-0.00199101
-0.00170471
0.0163225
0.016493
-0.00180498
0.00176698
-0.016455
0.000864838
0.00830651
-0.00830648
-0.000864867
-0.0083045
0.000368751
-0.000733191
0.00829189
0.000377049
0.00289263
-0.000261436
-0.00296732
0.000336128
-0.00292391
9.98469e-07
-4.8335e-05
0.00297125
0.000585462
-0.0172759
0.038011
0.00360492
-0.038558
-0.00305796
-0.00380416
0.0396567
0.00452826
-0.000257446
-0.00457078
0.000151411
0.000148546
-0.00253077
-0.000165915
0.000179923
0.00251676
0.000626457
-0.0155433
0.036012
0.00327316
-0.0364896
-0.00279554
-0.00291213
0.0374875
0.00388455
-0.000125768
-0.00392749
0.000168705
-0.00419191
-0.000161705
0.000199618
0.004154
-0.00533768
0.00530334
-0.0350574
0.00269716
0.017112
-0.0170913
-0.00271792
-0.00108362
0.00848622
0.00274027
-0.0146666
0.00158131
0.0215767
-0.0223109
-0.000847019
-0.000749447
0.0125681
-0.000103626
-0.00633718
-9.17756e-06
0.000293087
-0.00531225
-0.000446163
0.00546532
-0.0120677
-0.00207649
0.0123252
0.00181902
-0.00520737
0.00538903
6.5343e-05
4.60859e-05
0.00645916
-0.00636927
-9.61088e-05
-9.74034e-05
-0.0020996
-0.00440631
0.00432479
0.00218112
-0.000418612
0.00024061
-0.00502937
0.000915197
-0.00507285
-0.00082344
0.00170889
-0.00169215
0.00569589
-0.0226626
0.00661082
-0.00672753
0.0227793
-0.0115153
-0.00165917
0.0114431
0.00344031
0.00518392
0.000985465
-0.00525419
6.98479e-05
-0.00785592
-0.000158562
3.6703e-05
-7.55473e-05
3.53434e-05
0.00737839
-9.02412e-05
-0.000994589
0.0146467
0.000739028
-0.00361564
0.00366357
-0.000123484
0.00404377
4.92378e-05
-0.00402316
0.00329962
0.00329861
-0.000122793
-0.000156023
-8.96919e-05
-0.00359195
5.19635e-05
-0.00343178
-1.07092e-05
0.000305717
-0.000139868
0.00400712
-0.0219664
0.00323725
0.0217147
-0.00146031
-0.00152528
-0.00437266
0.00425067
0.000427704
0.00389854
0.000109208
-0.00395579
0.00517414
0.000988901
0.000362783
-0.00450742
0.00358399
-0.0222028
-0.00163953
-0.00170802
0.000369989
-0.0083127
-0.000704974
0.000343185
0.000240027
-0.000510288
0.00826474
0.000305921
-0.00136349
0.0160507
0.00125456
-0.00430041
0.00425893
0.000281507
0.00419864
0.000382928
-0.00421158
0.00404402
5.36157e-05
0.000230915
-0.00428173
-6.1182e-05
-0.00285863
-4.09511e-06
5.92883e-05
0.00300702
-3.89689e-05
-0.0196411
0.00121634
0.0193221
-0.000433309
-0.000463987
-0.00349612
0.00348949
6.59188e-05
0.00311675
-9.9513e-05
-0.00307842
0.00385675
0.000112241
7.0821e-05
-0.00350047
0.00139935
-0.0199573
-0.000524436
-0.000558707
-0.00832254
-0.000875836
0.00833552
0.000420124
0.00044273
0.00829565
-0.000944897
0.000942167
-0.00829292
0.00417357
0.000393821
-0.00831343
0.000428668
0.000427064
-0.000181991
-0.00255166
0.000202882
-0.000290806
0.000396075
0.00278736
-0.0171959
0.00041735
0.016919
-6.92447e-05
-7.11491e-05
-0.00301012
0.00294114
-0.000221827
0.00541879
0.000180088
-0.000288138
-0.00549273
0.00316136
-4.36071e-05
-0.000209372
-0.00306219
0.000460816
-0.0174799
-8.38921e-05
-9.29605e-05
-0.00830306
-0.000955237
0.00831051
0.000947788
0.00839966
-0.000949735
0.000935157
-0.00838508
-0.000952342
0.00830936
0.00093863
-0.000957063
0.000954583
-0.00830058
-0.00016591
-0.00423334
0.000207332
-0.000245659
0.00448128
0.000148003
0.000144641
0.00016032
0.00536658
-0.000274024
0.00499676
-0.000207608
-0.00504659
0.0151674
0.000341354
-0.0153894
-0.000119339
-0.00855108
-0.00100178
0.00857468
0.000978176
0.00876159
-0.000989898
0.00100186
-0.00877356
-0.000953167
0.00841646
0.000936364
-0.0009855
0.000964341
-0.00852992
0.00341466
3.56395e-05
-0.00356121
0.000110909
-0.000134555
0.000175943
0.00384317
-0.00243431
0.00221935
-0.0118527
-0.00516062
-0.000570237
-0.00465934
-0.00203717
0.00459691
0.00559601
0.00216145
-0.00762903
-0.000128427
0.00360843
-0.00547134
-0.00376577
0.00562869
-0.00487341
0.00471771
-0.0338016
0.0169421
-0.0168955
-0.0021576
-0.00201795
0.016656
0.0167513
-0.00204352
0.00200574
-0.0167135
0.00831959
-0.00831358
-0.000963069
-0.00829759
-0.000957398
0.00830265
0.00125416
-0.00013816
-0.00126837
0.000152369
-0.00127861
-0.000151867
0.000165147
0.00126533
0.000794771
-0.0140531
0.00344948
0.0342735
-0.0346773
-0.00304576
-0.00281105
0.035548
-0.00142328
-0.00130736
0.00137786
0.00135278
0.00184866
-0.000133131
4.54561e-05
-0.00176099
-0.0108222
0.0110746
0.00530772
0.00367006
-0.0115857
0.00708285
-0.0224423
-0.00730313
-0.00829902
-0.000943468
-0.000879262
0.00830994
-0.00185191
0.0165283
0.00181661
-0.00366085
-8.43294e-05
0.00374678
-1.60131e-06
0.00402697
-0.000243978
8.95479e-05
-0.00387254
-0.00413529
-0.000467782
0.00411576
0.000487309
0.00425577
-0.000494911
0.000511225
-0.00427209
-0.000186893
0.004159
5.48593e-05
-0.00050017
0.00405568
0.000425927
-0.00398143
-0.000137108
-0.00126191
0.000120409
-0.000212701
-0.00117315
0.000176964
0.00120888
0.000362753
-0.000140675
0.0149453
0.00494811
-0.000197009
0.00464051
-0.000122205
-0.00468421
-0.000475075
0.00420426
0.000526583
0.00423539
-0.000448497
0.000441236
-0.00422813
0.00459916
-0.000120352
0.00436325
-0.000123943
-0.00436508
0.0135243
0.00053498
-0.0137318
-0.000327554
0.00547613
-0.00710211
-0.0052962
0.00692219
-0.00775818
-0.0123309
0.00578311
0.00558563
0.00427019
0.0044502
-0.00247309
0.0025973
-0.00453053
0.0056996
-0.0105194
-0.00601115
0.0104141
-0.0177942
-0.00551308
-0.0055542
0.00917976
0.00926762
-0.00772067
0.0075657
0.0056311
0.00189889
0.0038777
-0.000180578
-0.0115804
0.0045183
0.0116204
-0.00223529
-0.00232304
-0.00582083
0.00549443
0.00222528
-0.00543794
0.00558586
0.0034605
0.00239463
-0.00605402
0.00480471
-0.0114996
-0.00488552
-0.00460675
0.000993593
-0.00122275
0.00483592
0.000904378
-0.00455861
-0.000952526
-0.00319162
5.05565e-05
0.00315622
-1.51565e-05
5.30533e-05
-0.00321715
-2.75229e-05
-0.00283069
-0.000342148
0.000426017
0.00274682
-0.00041863
-0.00302174
0.000609681
-0.00240432
-0.000279876
0.00468388
-0.002331
0.000172544
0.000158766
0.00149189
-0.000109447
-0.0013497
-3.27381e-05
-0.000149244
-0.00243169
0.000176617
0.00120942
-0.000135983
-0.00121084
0.0001374
-0.000135664
0.000145849
0.00124397
-0.00138587
0.00137633
-0.000142328
0.00135011
-0.000129412
-0.00135886
0.00403931
-0.000135699
-0.00407762
0.000174004
9.19203e-05
-0.00235048
0.00217003
8.85308e-05
0.0059055
-2.57866e-05
-0.00573858
-6.34208e-05
-7.77107e-05
0.00243284
-0.00258042
0.000103143
4.4442e-05
-0.00256505
0.000176301
0.00248067
0.000461356
0.00192242
4.90656e-05
4.17114e-05
0.00609471
-0.00011547
-0.000115446
-0.00014004
-0.00258136
0.000156352
7.93447e-06
-0.00193177
-0.000123422
0.00204726
-0.00453406
-0.000965457
0.00468395
0.00081557
0.00201644
-0.000159844
-0.00258375
9.32327e-05
-0.00549117
0.00127762
-0.00121755
0.0054311
0.00129265
-0.00553679
-0.00124702
0.00398628
-2.00016e-05
-7.24986e-06
-0.00395903
1.00157e-05
0.00397542
8.45778e-07
0.00351006
6.09369e-05
-8.35634e-05
-0.00348744
6.60834e-05
0.00351889
-7.49062e-05
-0.00370526
7.8251e-05
0.0036539
-2.68881e-05
0.000111652
-0.00377991
-3.70089e-05
0.00443087
0.000210805
-0.00453003
0.0100261
0.00110555
-0.0101318
-0.00099982
-0.0103918
0.00136691
-0.00127065
0.0102956
0.00957039
0.000801018
-0.00968119
-0.00069022
0.00101739
-0.000903107
0.00991183
0.00434535
0.000163776
0.00489421
0.000856798
-0.00484663
0.0108275
0.00188684
-0.0109155
-0.00179879
-0.0111861
0.00225556
-0.00216975
0.0111003
0.00145352
-0.010509
-0.00133636
0.0017707
-0.00167901
0.0107358
0.0050105
0.000877309
0.00412313
-0.000274042
0.000258817
-0.00410791
-0.000282504
0.00414326
0.000262373
0.00415806
-0.000132007
0.000102891
-0.00412894
-0.000114085
0.00416509
0.000107057
-0.00290264
3.86773e-05
0.00291953
-5.55626e-05
5.02516e-05