/*--------------------------------*- C++ -*----------------------------------*\
| =========                 |                                                 |
| \\      /  F ield         | OpenFOAM: The Open Source CFD Toolbox           |
|  \\    /   O peration     | Version:  5.x                                   |
|   \\  /    A nd           | Web:      www.OpenFOAM.org                      |
|    \\/     M anipulation  |                                                 |
\*---------------------------------------------------------------------------*/
FoamFile
{
    version     2.0;
    format      ascii;
    class       volVectorField;
    location    "7200";
    object      U;
}
// * * * * * * * * * * * * * * * * * * * * * * * * * * * * * * * * * * * * * //

dimensions      [0 1 -1 0 0 0 0];

internalField   nonuniform List<vector> 
6584
(
(14.5019 3.87162 7.5873e-26)
(14.5004 3.86634 5.68647e-24)
(14.4994 3.86683 -1.77138e-29)
(14.4981 3.8701 -3.45127e-24)
(14.4963 3.87808 0)
(14.4941 3.89202 0)
(14.4911 3.91413 0)
(14.4878 3.94609 -1.2711e-23)
(14.4844 3.99133 -2.30582e-23)
(14.4859 4.04491 0)
(14.4881 4.09742 -4.22784e-23)
(14.4936 4.13953 -5.0599e-23)
(14.5016 4.1563 8.9067e-26)
(14.5088 4.14137 -9.75927e-25)
(14.5125 4.10186 -1.19353e-24)
(14.5158 4.05037 2.77802e-23)
(14.5143 3.99911 1.97942e-23)
(14.5113 3.95659 1.74068e-24)
(14.5083 3.92464 7.26437e-24)
(14.5055 3.90238 3.13423e-24)
(14.5033 3.88812 0)
(14.5016 3.88016 0)
(14.5005 3.87634 -3.54706e-24)
(14.4994 3.87693 -2.89554e-24)
(14.5078 3.86098 -3.5491e-24)
(14.5024 3.85087 -2.71251e-23)
(14.4976 3.85104 -2.35162e-23)
(14.4911 3.85619 0)
(14.4827 3.87034 5.80806e-24)
(14.4713 3.89593 7.80503e-24)
(14.4564 3.93773 1.27831e-23)
(14.4378 3.99961 -3.38878e-23)
(14.4159 4.09232 -2.70984e-23)
(14.4061 4.20309 4.23625e-23)
(14.4128 4.31192 2.41046e-26)
(14.4446 4.40402 0)
(14.497 4.44528 5.53435e-23)
(14.5484 4.41928 -9.80466e-24)
(14.5825 4.34329 -8.19605e-23)
(14.5854 4.2396 -2.11981e-23)
(14.5774 4.13086 -2.83801e-23)
(14.5607 4.04127 -3.48777e-23)
(14.5442 3.97388 -4.733e-23)
(14.5295 3.92694 -2.61597e-23)
(14.5181 3.89686 -4.3361e-24)
(14.5093 3.88 -9.7447e-25)
(14.5033 3.87165 0)
(14.4979 3.87251 -2.20907e-24)
(14.5173 3.84691 -9.33587e-24)
(14.507 3.83107 0)
(14.4959 3.82938 1.69514e-24)
(14.4807 3.83375 -3.20359e-23)
(14.4608 3.85031 -1.3801e-23)
(14.4339 3.88244 0)
(14.3978 3.93717 0)
(14.3511 4.02102 7.2947e-23)
(14.2991 4.14615 -4.79454e-23)
(14.3246 4.251 6.46947e-24)
(14.332 4.40339 -6.603e-24)
(14.3796 4.54349 -4.28013e-24)
(14.4731 4.62052 0)
(14.5738 4.59899 0)
(14.6394 4.50255 -3.66278e-24)
(14.7151 4.40183 -4.64457e-23)
(14.6916 4.25398 0)
(14.6535 4.11687 -3.05277e-23)
(14.6121 4.0146 0)
(14.5749 3.94381 -1.32612e-23)
(14.546 3.89902 -6.68687e-25)
(14.5237 3.8744 7.23822e-24)
(14.5084 3.86236 0)
(14.4955 3.86486 -2.23924e-24)
(14.5308 3.82853 -6.61893e-24)
(14.5152 3.8055 0)
(14.4967 3.79992 1.4003e-24)
(14.4713 3.80024 0)
(14.4373 3.81441 0)
(14.3905 3.84659 0)
(14.3263 3.90561 2.86814e-22)
(14.2417 4.00499 8.18929e-23)
(14.1347 4.15966 -6.7222e-23)
(14.1486 4.31035 1.32309e-23)
(14.127 4.58387 -9.51722e-24)
(14.2048 4.86502 -8.88723e-24)
(14.4123 5.04299 -6.86474e-26)
(14.6525 5.01454 0)
(14.8017 4.81581 -8.25144e-23)
(14.825 4.54104 0)
(14.8595 4.32807 0)
(14.7826 4.17027 1.84205e-23)
(14.7075 4.03664 -1.93261e-23)
(14.6375 3.94537 1.63883e-23)
(14.5836 3.88916 1.81275e-23)
(14.5427 3.85948 0)
(14.5142 3.84553 -5.24791e-25)
(14.4909 3.8521 -4.15856e-24)
(14.5493 3.80516 -3.48802e-24)
(14.5288 3.77333 -9.48412e-25)
(14.503 3.76176 -3.84981e-24)
(14.467 3.75427 -4.50359e-24)
(14.4183 3.76031 5.12763e-23)
(14.3499 3.78332 1.3006e-22)
(14.2548 3.83461 4.43208e-22)
(14.1117 3.91744 -7.27935e-23)
(14.0305 4.08393 -4.52934e-23)
(13.8946 4.3195 -1.50944e-23)
(13.772 4.73882 -4.15969e-23)
(13.8599 5.25599 -2.40339e-23)
(14.2953 5.62352 -3.01105e-23)
(14.8256 5.56136 2.0477e-22)
(15.1018 5.18645 0)
(15.1231 4.76194 2.38875e-23)
(15.0042 4.40138 1.71103e-23)
(14.9335 4.15805 1.08252e-22)
(14.8206 4.02449 6.94722e-23)
(14.7112 3.92158 1.71514e-23)
(14.6271 3.86142 4.03202e-24)
(14.5631 3.83146 3.33325e-24)
(14.5184 3.81849 -2.59556e-24)
(14.4823 3.83228 3.50643e-24)
(14.5738 3.77656 2.0135e-24)
(14.5494 3.7346 -5.08017e-24)
(14.5173 3.71519 -2.4136e-24)
(14.4722 3.69639 0)
(14.4107 3.68831 8.4827e-24)
(14.3228 3.69405 8.44389e-23)
(14.197 3.71575 1.0838e-22)
(14.0625 3.81244 -2.73113e-23)
(13.8652 3.92742 1.69821e-22)
(13.5549 4.19134 5.83447e-23)
(13.3236 4.65628 -7.6501e-25)
(13.2651 5.49816 -7.31978e-27)
(13.9891 6.37313 -9.24425e-24)
(15.0568 6.21406 -4.35814e-23)
(15.6187 5.49447 -1.26359e-23)
(15.5607 4.90667 0)
(15.3181 4.45498 1.22363e-26)
(15.1055 4.09707 -8.32998e-23)
(14.9386 3.96883 -3.29441e-23)
(14.7869 3.86707 4.42221e-23)
(14.6699 3.81202 -2.5468e-24)
(14.5808 3.78781 0)
(14.5182 3.77934 3.43829e-24)
(14.4677 3.80377 1.10146e-23)
(14.6047 3.74304 3.23497e-25)
(14.5782 3.69034 1.28056e-24)
(14.5422 3.66189 1.54571e-24)
(14.4913 3.62912 -1.06722e-23)
(14.4219 3.60206 -8.78145e-24)
(14.3226 3.5802 -3.60943e-23)
(14.1774 3.56232 -3.88886e-23)
(14.0216 3.60819 -1.8241e-23)
(13.7338 3.66691 -2.35475e-23)
(13.2485 3.80524 -3.5793e-23)
(12.6822 4.24077 0)
(11.9405 5.49058 1.67652e-23)
(13.1158 8.18272 -1.32424e-25)
(16.1167 7.29154 2.22604e-24)
(16.3492 5.78054 2.32589e-23)
(16.1035 4.84463 0)
(15.6782 4.35968 2.08802e-23)
(15.2788 3.96554 6.72516e-23)
(15.0469 3.86292 4.92514e-23)
(14.8533 3.77918 -1.02545e-23)
(14.7043 3.73941 -7.06654e-24)
(14.5907 3.72768 0)
(14.5104 3.72742 5.17755e-24)
(14.4453 3.76561 1.14068e-23)
(14.6421 3.70549 -4.27353e-24)
(14.6156 3.64245 3.70194e-24)
(14.5788 3.605 2.88546e-24)
(14.5269 3.55765 7.00477e-24)
(14.4569 3.51049 4.88024e-24)
(14.3584 3.45881 2.51776e-24)
(14.2165 3.39617 -1.29216e-26)
(14.0483 3.38953 2.16294e-23)
(13.7275 3.3244 -8.38863e-28)
(13.2018 3.22209 3.36552e-23)
(12.3254 3.21758 2.32914e-23)
(10.1933 3.33964 -5.84189e-24)
(18.7409 7.48582 -6.22536e-24)
(17.5434 5.39629 -1.35834e-23)
(16.6328 4.47765 2.92801e-23)
(16.0079 4.09916 -1.72903e-23)
(15.4193 3.76465 4.44415e-23)
(15.1261 3.70939 4.73769e-23)
(14.8974 3.66079 1.76548e-23)
(14.7221 3.64563 9.12249e-24)
(14.5879 3.65253 0)
(14.4919 3.66361 0)
(14.4137 3.71777 -2.62607e-28)
(14.6853 3.66525 -1.3409e-24)
(14.6609 3.59335 -1.26399e-24)
(14.6266 3.5482 -3.02319e-24)
(14.5783 3.48798 9.34245e-25)
(14.5149 3.42321 -4.87594e-24)
(14.4283 3.34624 9.43347e-24)
(14.3085 3.24594 3.33039e-23)
(14.1541 3.18831 0)
(13.8794 3.01187 0)
(13.4868 2.71113 0)
(12.8359 2.25741 -1.50594e-24)
(11.7576 1.00789 -1.34623e-25)
(19.8707 4.46438 0)
(18.2502 4.20449 0)
(16.9382 3.84489 0)
(16.2091 3.70727 1.88878e-25)
(15.4903 3.51929 0)
(15.1575 3.52357 -3.55058e-23)
(14.9084 3.52188 -3.33752e-23)
(14.7167 3.53686 -2.52587e-24)
(14.5686 3.56624 0)
(14.4608 3.59041 -1.34183e-24)
(14.3723 3.6613 -7.75194e-24)
(14.7329 3.62383 4.94463e-25)
(14.7126 3.54542 -5.62217e-25)
(14.6832 3.4948 6.00191e-25)
(14.6424 3.42509 2.6406e-24)
(14.5908 3.34784 -6.22483e-24)
(14.5234 3.25423 -4.86293e-25)
(14.4357 3.13104 3.38769e-24)
(14.316 3.03797 -3.971e-25)
(14.1282 2.80873 0)
(13.9205 2.45381 2.95597e-24)
(13.6478 1.94117 8.3865e-29)
(13.5479 0.945119 -7.09655e-26)
(18.6173 2.01569 -1.36824e-24)
(18.1206 2.93996 -6.47097e-24)
(16.9134 3.16313 -5.72139e-23)
(16.2287 3.27885 0)
(15.4758 3.26938 -3.68802e-23)
(15.1337 3.33041 0)
(14.882 3.37721 1.95857e-24)
(14.6853 3.42231 0)
(14.5313 3.47459 6.93021e-24)
(14.4165 3.51167 -1.68722e-24)
(14.3216 3.59822 -9.07785e-24)
(14.7833 3.5827 0)
(14.7683 3.50052 -3.49276e-24)
(14.7458 3.44709 -4.11316e-24)
(14.7145 3.37202 9.44461e-24)
(14.6771 3.28834 -7.57408e-24)
(14.6312 3.18755 -1.90824e-23)
(14.5769 3.05628 -3.01217e-23)
(14.4974 2.94779 -4.70752e-24)
(14.3927 2.71719 0)
(14.3143 2.39856 -1.26214e-23)
(14.2513 2.01482 7.38679e-25)
(14.3697 1.52329 1.31535e-25)
(16.7174 0.710027 -1.20068e-24)
(17.4681 2.05618 7.36021e-24)
(16.6322 2.61959 5.00434e-24)
(16.0883 2.90817 3.59179e-23)
(15.3852 3.05085 2.12204e-22)
(15.0609 3.15422 1.22908e-22)
(14.8212 3.24164 -9.18406e-23)
(14.6301 3.31147 -7.46369e-23)
(14.4772 3.38385 1.6931e-23)
(14.3603 3.43171 7.91442e-24)
(14.2629 3.53116 -1.61678e-23)
(14.8348 3.54306 -3.88335e-25)
(14.8257 3.45993 -5.33927e-24)
(14.8107 3.40627 -5.3256e-24)
(14.7898 3.32985 4.01043e-24)
(14.7665 3.24527 4.97537e-32)
(14.7409 3.14506 -1.73283e-23)
(14.7154 3.01727 -3.5755e-23)
(14.672 2.90805 -3.21156e-24)
(14.6297 2.701 0)
(14.6196 2.43855 6.51865e-24)
(14.6246 2.16122 8.12739e-25)
(14.6379 1.87051 2.91872e-25)
(14.9467 0.33826 -1.59855e-24)
(16.6523 1.61728 0)
(16.2275 2.28139 -3.39744e-23)
(15.8491 2.64426 3.69399e-23)
(15.244 2.8841 2.77499e-22)
(14.954 3.01119 2.05952e-22)
(14.7352 3.12558 0)
(14.5565 3.21199 -6.3906e-23)
(14.4103 3.29901 -3.17637e-23)
(14.2949 3.35459 7.95253e-24)
(14.1986 3.46295 -9.1005e-24)
(14.8857 3.50583 0)
(14.8825 3.42424 -6.55492e-25)
(14.8749 3.37253 5.38857e-25)
(14.8639 3.29804 1.15542e-24)
(14.8533 3.21698 0)
(14.8448 3.1227 2.01654e-24)
(14.8404 3.00756 -4.47797e-24)
(14.8285 2.90503 7.15623e-25)
(14.8282 2.72863 -1.9521e-25)
(14.8557 2.52063 -2.93286e-24)
(14.8996 2.29931 -3.36764e-25)
(14.9101 2.00236 0)
(13.4921 0.393807 5.97901e-25)
(15.8836 1.49266 1.11942e-24)
(15.8044 2.12875 2.31175e-23)
(15.5723 2.49307 3.73184e-24)
(15.0798 2.77434 1.29145e-22)
(14.8301 2.90788 1.52526e-22)
(14.6347 3.03444 0)
(14.4717 3.12842 -1.44278e-24)
(14.335 3.22389 2.06805e-23)
(14.2238 3.28332 1.22745e-23)
(14.1312 3.39614 4.70676e-25)
(14.9347 3.47158 0)
(14.9369 3.39352 0)
(14.9362 3.34531 0)
(14.9341 3.2751 0)
(14.9337 3.20041 1.55335e-24)
(14.9381 3.1145 1.2403e-24)
(14.9488 3.01604 3.35409e-24)
(15.0088 2.89959 -9.69794e-23)
(14.9883 2.78456 0)
(15.0332 2.63042 0)
(15.111 2.46961 -8.45378e-24)
(15.2301 2.28456 -1.15318e-23)
(10.3454 2.06692 -2.31082e-24)
(12.4201 0.625685 -3.01271e-23)
(15.2174 1.54828 -7.36595e-24)
(15.4222 2.11494 -1.37064e-25)
(15.2996 2.43619 -8.64702e-25)
(14.9169 2.71567 -5.18525e-23)
(14.7053 2.84336 7.93217e-24)
(14.5309 2.96911 1.51459e-25)
(14.3829 3.06271 -7.644e-23)
(14.2565 3.16048 0)
(14.1507 3.21982 5.03203e-24)
(14.0634 3.33285 -1.39999e-23)
(14.9808 3.44058 0)
(14.9878 3.36748 4.0562e-24)
(14.993 3.32372 -7.40386e-25)
(14.9983 3.25925 0)
(15.0061 3.1923 0)
(15.0196 3.11609 6.88832e-23)
(15.0413 3.0312 2.4341e-25)
(15.102 2.93799 -9.85186e-23)
(15.1079 2.85176 -1.07223e-22)
(15.1577 2.73854 -1.0462e-23)
(15.2353 2.63987 0)
(15.307 2.57659 2.18613e-24)
(12.0716 2.62495 -1.74738e-23)
(11.2256 0.886607 -2.4048e-23)
(14.6922 1.83077 1.61206e-23)
(15.1072 2.18787 -1.2833e-23)
(14.9608 2.51665 1.46045e-23)
(14.7677 2.69657 -2.32448e-24)
(14.5877 2.81155 -1.4745e-25)
(14.4306 2.92666 -2.54826e-25)
(14.2961 3.01429 0)
(14.1797 3.10863 -5.00872e-23)
(14.0794 3.16529 -6.85064e-23)
(13.9979 3.2743 -1.67317e-23)
(15.0233 3.41289 -2.73864e-25)
(15.0342 3.34567 6.08301e-24)
(15.0444 3.30684 -1.61867e-24)
(15.0557 3.24892 -6.78509e-28)
(15.0698 3.19029 1.16978e-23)
(15.0897 3.12452 5.82042e-23)
(15.1182 3.05367 1.34028e-23)
(15.1794 2.97977 -7.5831e-23)
(15.1989 2.91495 3.09947e-23)
(15.2409 2.83241 1.74852e-24)
(15.3097 2.77382 0)
(15.3149 2.72992 -1.21246e-25)
(13.3849 2.76218 1.02325e-23)
(11.0624 1.19522 -1.34589e-24)
(14.2338 1.94651 -1.98478e-24)
(14.8513 2.28855 -8.99226e-24)
(14.8018 2.56563 -1.32038e-22)
(14.6416 2.70108 0)
(14.4846 2.80297 -7.28382e-24)
(14.3401 2.90285 4.01544e-24)
(14.2153 2.98072 -3.6909e-24)
(14.1068 3.06806 4.92991e-24)
(14.0117 3.11975 0)
(13.9363 3.22211 0)
(15.0621 3.38844 4.84846e-25)
(15.0758 3.32753 7.68629e-25)
(15.09 3.29371 -4.74308e-24)
(15.106 3.24262 0)
(15.1246 3.19219 1.14952e-23)
(15.1484 3.13635 0)
(15.1797 3.07832 2.11967e-22)
(15.2369 3.01953 -1.08387e-22)
(15.2918 2.97037 4.7273e-24)
(15.3021 2.90941 -8.91093e-25)
(15.3432 2.86373 4.64039e-24)
(15.3224 2.84079 -1.8842e-24)
(13.299 2.82929 4.95014e-24)
(10.9392 1.52411 2.23455e-24)
(13.8305 2.03617 9.41648e-24)
(14.6252 2.38093 6.00429e-24)
(14.6662 2.63245 -7.85107e-23)
(14.5411 2.72975 6.69546e-23)
(14.399 2.81273 0)
(14.2627 2.89407 3.83282e-23)
(14.1441 2.95984 3.39125e-24)
(14.0411 3.03748 8.47738e-24)
(13.9499 3.08276 0)
(13.8796 3.17605 0)
(15.0968 3.36702 -2.50751e-24)
(15.1126 3.31251 6.57708e-25)
(15.1298 3.28349 -1.55583e-24)
(15.1494 3.23903 -1.05351e-23)
(15.1711 3.1962 0)
(15.1971 3.14915 0)
(15.2291 3.10141 3.49395e-22)
(15.2808 3.05424 -2.13028e-23)
(15.3309 3.01573 7.27872e-24)
(15.3678 2.97692 -1.99842e-23)
(15.373 2.93679 0)
(15.33 2.92257 -1.70956e-24)
(13.818 2.92772 2.32666e-23)
(11.2522 1.84469 1.7319e-23)
(13.6519 2.20285 3.63948e-23)
(14.3946 2.5141 7.28176e-23)
(14.5449 2.6734 3.68073e-23)
(14.4627 2.76298 6.47595e-23)
(14.3313 2.8299 -5.79117e-24)
(14.1996 2.8948 -2.57869e-24)
(14.0838 2.94835 -1.63562e-23)
(13.9839 3.01522 -6.06459e-23)
(13.8953 3.0535 8.81962e-24)
(13.8291 3.1364 1.33035e-24)
(15.1276 3.34838 -4.83942e-24)
(15.1447 3.30011 5.6037e-25)
(15.1641 3.27551 -1.24994e-24)
(15.1863 3.23727 -9.08367e-24)
(15.2103 3.20128 0)
(15.2375 3.16195 0)
(15.2693 3.12279 1.40158e-22)
(15.3162 3.08488 -2.68672e-23)
(15.3622 3.0547 -6.86677e-25)
(15.3947 3.02585 -1.56534e-23)
(15.4064 3.00356 0)
(15.2718 2.99295 -9.08577e-24)
(13.5352 2.95255 -7.43851e-24)
(12.1037 2.17161 3.97608e-24)
(13.3968 2.27013 8.27257e-24)
(14.2015 2.55921 -3.06696e-23)
(14.4305 2.70433 -1.48848e-23)
(14.394 2.79333 1.46045e-23)
(14.2766 2.84918 -9.23655e-24)
(14.1492 2.90119 -5.91439e-23)
(14.0343 2.94355 -1.48084e-23)
(13.9356 2.99961 -8.02175e-23)
(13.8483 3.03086 0)
(13.785 3.10295 -1.16453e-23)
(15.1548 3.33225 -2.614e-24)
(15.1725 3.28986 -3.55107e-24)
(15.1934 3.26924 0)
(15.2175 3.23669 -7.08715e-24)
(15.2429 3.20677 0)
(15.2708 3.17412 -1.22296e-22)
(15.302 3.14213 2.60718e-24)
(15.3446 3.11152 1.86112e-23)
(15.3867 3.08736 -6.51825e-24)
(15.4158 3.06436 -5.38079e-24)
(15.4203 3.04514 -3.49616e-24)
(15.2905 3.02869 -9.7161e-24)
(13.8226 3.00418 -9.35788e-24)
(12.4007 2.37734 -6.93275e-24)
(13.2381 2.35549 -1.27974e-23)
(14.0178 2.59775 -9.94483e-24)
(14.3177 2.73309 -5.10151e-24)
(14.3295 2.8213 -8.89558e-24)
(14.2312 2.86923 -3.07675e-23)
(14.1093 2.91107 -3.54164e-24)
(13.9947 2.94353 -1.15931e-24)
(13.8959 2.98926 -2.32228e-23)
(13.8089 3.01387 -1.12779e-23)
(13.7473 3.07522 -5.14659e-24)
(15.1785 3.31836 0)
(15.1963 3.28141 -5.38096e-24)
(15.2181 3.26429 -8.08023e-25)
(15.2435 3.23685 -5.59449e-24)
(15.2699 3.21222 -2.36102e-25)
(15.2981 3.18535 -1.04669e-22)
(15.3284 3.15936 0)
(15.3675 3.13467 -1.20245e-23)
(15.4062 3.11547 0)
(15.4334 3.0971 0)
(15.4354 3.0828 -4.36023e-25)
(15.3147 3.06526 -4.07771e-25)
(14.0951 3.04797 3.81962e-24)
(12.7168 2.53951 -5.139e-24)
(13.1592 2.43437 -7.31782e-24)
(13.8615 2.62663 -1.32987e-23)
(14.2103 2.75553 4.09247e-24)
(14.2682 2.84413 -3.97381e-24)
(14.1924 2.88793 -1.02886e-23)
(14.078 2.92242 1.92633e-23)
(13.9638 2.94667 -1.47714e-24)
(13.8643 2.98301 0)
(13.7767 3.0016 -1.97124e-28)
(13.7158 3.05267 0)
(15.199 3.30644 0)
(15.2166 3.27444 -4.67563e-24)
(15.2388 3.26035 -2.47121e-24)
(15.265 3.23742 5.27301e-24)
(15.2921 3.2174 0)
(15.3203 3.19548 -1.15291e-24)
(15.3497 3.17459 -4.47581e-23)
(15.3858 3.15479 -1.83991e-23)
(15.4216 3.13987 2.40585e-24)
(15.4472 3.12542 3.16346e-25)
(15.4477 3.11568 5.51045e-24)
(15.334 3.09972 -2.49182e-24)
(14.3139 3.08489 3.87742e-24)
(13.007 2.66909 6.05066e-25)
(13.1369 2.51053 4.38196e-24)
(13.7308 2.651 -5.04872e-24)
(14.1068 2.77196 -3.87966e-24)
(14.2076 2.86115 1.50142e-24)
(14.1576 2.90395 9.06578e-24)
(14.053 2.93375 -2.57189e-28)
(13.9403 2.95169 -8.08845e-25)
(13.8399 2.97986 -1.75738e-23)
(13.7512 2.99318 8.6473e-24)
(13.69 3.03474 7.92362e-24)
(15.2168 3.29626 -1.49742e-24)
(15.2338 3.26869 -4.03884e-24)
(15.256 3.25719 -2.34546e-32)
(15.2826 3.23822 9.03268e-24)
(15.31 3.22215 1.84654e-23)
(15.3381 3.2045 -1.09442e-24)
(15.3667 3.18791 -3.75628e-23)
(15.4002 3.17218 -1.657e-23)
(15.4334 3.16085 7.29566e-24)
(15.4573 3.14963 0)
(15.457 3.14332 1.13702e-24)
(15.35 3.12943 2.31046e-26)
(14.4914 3.11552 -1.06174e-25)
(13.2722 2.77524 1.22691e-24)
(13.1605 2.5854 1.02908e-29)
(13.6267 2.67457 -3.91421e-24)
(14.008 2.78429 -3.27179e-24)
(14.1464 2.8731 -1.59253e-24)
(14.1242 2.91684 5.68137e-24)
(14.0322 2.94415 -1.34616e-23)
(13.9227 2.95766 -1.55033e-23)
(13.8216 2.97899 -7.60736e-24)
(13.7315 2.98786 -7.54931e-24)
(13.6693 3.02083 6.94265e-24)
(15.232 3.28758 -2.07894e-32)
(15.2483 3.26394 -1.73539e-24)
(15.2702 3.25464 1.81908e-24)
(15.2968 3.23909 3.85227e-24)
(15.3244 3.2264 -2.37627e-28)
(15.3523 3.21238 0)
(15.3801 3.19946 8.92859e-25)
(15.4114 3.18713 -1.24371e-23)
(15.4423 3.17877 5.95933e-24)
(15.4647 3.17027 0)
(15.464 3.16655 -1.22658e-28)
(15.3644 3.15496 -1.21669e-25)
(14.6387 3.14134 -1.07525e-24)
(13.5145 2.86244 0)
(13.2205 2.65744 2.14097e-24)
(13.5507 2.69906 5.03752e-24)
(13.9165 2.7941 0)
(14.0847 2.88092 1.23881e-24)
(14.0907 2.92656 1.68159e-24)
(14.0139 2.95309 -2.70836e-23)
(13.9095 2.96389 -6.68118e-24)
(13.8084 2.97975 6.60653e-24)
(13.717 2.98501 -6.37786e-24)
(13.6532 3.01039 0)
(15.2451 3.28021 1.09749e-24)
(15.2604 3.26002 -1.4847e-24)
(15.2817 3.25257 0)
(15.3082 3.23995 3.38535e-25)
(15.3357 3.23012 -7.07459e-25)
(15.3633 3.2192 -9.20855e-25)
(15.3904 3.20936 0)
(15.4198 3.19991 -1.07653e-24)
(15.4488 3.19399 3.45268e-24)
(15.4698 3.18781 0)
(15.4692 3.18604 6.90241e-25)
(15.3772 3.17676 1.51399e-25)
(14.7613 3.16329 -1.39882e-25)
(13.7337 2.93417 -2.79122e-25)
(13.3074 2.72554 1.08119e-24)
(13.5025 2.72543 1.47637e-24)
(13.8346 2.80278 1.15215e-24)
(14.0232 2.8856 -1.1409e-24)
(14.0563 2.93329 1.11581e-24)
(13.9966 2.9603 -1.10492e-23)
(13.8992 2.96987 5.03258e-24)
(13.7993 2.98158 5.34162e-24)
(13.7068 2.98407 8.56612e-26)
(13.6411 3.0029 3.12971e-25)
(15.2562 3.27396 -1.2542e-25)
(15.2705 3.25678 -1.77745e-24)
(15.2911 3.25087 -1.38255e-25)
(15.3171 3.24074 0)
(15.3443 3.2333 2.22682e-23)
(15.3717 3.22501 0)
(15.3982 3.21776 -1.02387e-23)
(15.426 3.21074 0)
(15.4532 3.20683 2.71954e-24)
(15.4731 3.20263 1.20355e-25)
(15.4727 3.20231 0)
(15.3883 3.19519 8.81584e-26)
(14.8634 3.18194 0)
(13.9301 2.9931 -2.71495e-25)
(13.4128 2.78881 3.71815e-25)
(13.4806 2.75389 0)
(13.7643 2.81148 0)
(13.9631 2.8882 -9.93587e-25)
(14.0205 2.93745 1.11383e-24)
(13.9791 2.96569 0)
(13.8908 2.97525 0)
(13.7932 2.98405 2.75112e-24)
(13.7002 2.98454 1.09786e-26)
(13.6324 2.99785 -2.40664e-24)
(15.2656 3.26867 1.0621e-25)
(15.2789 3.2541 1.43275e-25)
(15.2986 3.24945 0)
(15.3239 3.24141 -9.6167e-26)
(15.3508 3.23598 9.19507e-24)
(15.3779 3.22988 -7.24385e-25)
(15.4038 3.22479 -9.06484e-24)
(15.4303 3.21982 -7.986e-25)
(15.456 3.21756 0)
(15.4749 3.21502 1.29908e-24)
(15.4749 3.21581 0)
(15.3979 3.21067 0)
(14.9484 3.19788 0)
(14.1048 3.04152 3.30526e-24)
(13.5296 2.84658 3.11449e-24)
(13.4826 2.784 0)
(13.7074 2.82096 -7.31195e-25)
(13.9057 2.88967 0)
(13.9835 2.93955 0)
(13.9607 2.96938 0)
(13.883 2.97982 0)
(13.7891 2.98681 -8.47369e-25)
(13.6962 2.98601 -2.06468e-25)
(13.6265 2.99478 -5.67242e-30)
(15.2736 3.2642 0)
(15.2858 3.25188 4.55167e-25)
(15.3045 3.24826 -6.55163e-25)
(15.3291 3.24197 9.87379e-25)
(15.3555 3.23817 7.70083e-24)
(15.3822 3.2339 1.51449e-23)
(15.4077 3.2306 0)
(15.433 3.22734 0)
(15.4574 3.2264 3.11802e-25)
(15.4754 3.22526 -1.86639e-24)
(15.4758 3.22687 -2.47544e-32)
(15.406 3.22343 4.84086e-24)
(15.0196 3.21143 5.16391e-24)
(14.2599 3.08154 2.77204e-24)
(13.6527 2.89903 -1.95483e-25)
(13.5055 2.81542 0)
(13.6647 2.83175 -3.33144e-24)
(13.8526 2.89071 -4.07256e-24)
(13.9457 2.94005 0)
(13.941 2.97146 -3.60518e-24)
(13.8751 2.98344 -5.18009e-39)
(13.7862 2.98956 3.64925e-24)
(13.6942 2.98812 6.4193e-25)
(13.6228 2.99327 1.91688e-24)
(15.2804 3.26044 -6.40414e-25)
(15.2915 3.25004 2.84131e-25)
(15.3092 3.24724 -3.97761e-25)
(15.3328 3.24239 1.66284e-24)
(15.3587 3.23991 6.57336e-24)
(15.385 3.23715 2.52039e-23)
(15.41 3.2353 0)
(15.4345 3.23345 0)
(15.4577 3.23357 2.45409e-25)
(15.4749 3.23357 0)
(15.4758 3.23579 0)
(15.4128 3.23377 0)
(15.0796 3.22276 0)
(14.3973 3.11451 -2.29292e-24)
(13.7779 2.94612 -2.31289e-24)
(13.5462 2.84758 -2.00007e-24)
(13.6365 2.8442 -4.42235e-24)
(13.8048 2.89201 -3.54505e-24)
(13.9079 2.93947 0)
(13.9197 2.97215 -1.71584e-24)
(13.8665 2.98603 0)
(13.7838 2.99206 0)
(13.6936 2.99054 3.9348e-25)
(13.6209 2.99294 4.27076e-26)
(15.2861 3.25728 -4.43295e-25)
(15.2962 3.24852 -4.51161e-25)
(15.3128 3.24638 -6.20214e-26)
(15.3355 3.24269 4.72033e-26)
(15.3607 3.24126 -1.62825e-32)
(15.3865 3.2397 1.07251e-23)
(15.4111 3.23901 0)
(15.4348 3.23831 4.29541e-25)
(15.4571 3.23925 1.16405e-24)
(15.4737 3.24015 1.30647e-24)
(15.475 3.24281 3.02769e-24)
(15.4185 3.24195 3.23634e-24)
(15.1301 3.23204 1.70956e-24)
(14.5186 3.14156 0)
(13.902 2.98795 0)
(13.6013 2.87978 2.53631e-25)
(13.6228 2.85838 1.83549e-24)
(13.7637 2.89409 3.16034e-29)
(13.8707 2.93829 -1.5105e-24)
(13.8971 2.9717 0)
(13.8567 2.98758 0)
(13.7813 2.99412 8.49122e-25)
(13.6939 2.993 0)
(13.6203 2.99343 0)
(15.2908 3.25464 0)
(15.3001 3.24728 -5.48915e-25)
(15.3156 3.24565 -3.34548e-25)
(15.3372 3.24289 -6.12242e-25)
(15.3617 3.24225 0)
(15.387 3.24164 0)
(15.4113 3.24184 0)
(15.4344 3.24204 -4.06319e-25)
(15.4558 3.24359 0)
(15.4718 3.24518 -2.00091e-26)
(15.4737 3.24814 1.1856e-24)
(15.4231 3.24817 1.26497e-24)
(15.1726 3.23941 1.33361e-24)
(14.6254 3.16357 2.93302e-24)
(14.0224 3.02473 1.6538e-24)
(13.6677 2.91143 0)
(13.6228 2.87422 -1.52659e-24)
(13.7303 2.89733 -1.4882e-24)
(13.8352 2.93698 0)
(13.8734 2.97037 0)
(13.8456 2.98814 0)
(13.7783 2.99561 7.91145e-25)
(13.6944 2.99526 0)
(13.6206 2.99442 0)
(15.2949 3.25246 2.19242e-26)
(15.3032 3.2463 -3.2201e-25)
(15.3177 3.24506 4.09783e-26)
(15.3383 3.243 0)
(15.362 3.24295 -2.6895e-25)
(15.3869 3.24304 -5.56118e-25)
(15.4108 3.24391 0)
(15.4333 3.24477 -1.67452e-25)
(15.454 3.24675 7.04232e-25)
(15.4696 3.24879 7.9474e-25)
(15.472 3.25189 3.72134e-27)
(15.4267 3.25254 9.24448e-25)
(15.2085 3.24488 1.9353e-24)
(14.7191 3.18116 -7.67961e-26)
(14.1375 3.05666 1.03501e-25)
(13.7424 2.94198 1.26712e-24)
(13.6358 2.89156 1.39596e-25)
(13.7053 2.90207 -3.04466e-25)
(13.8024 2.93598 0)
(13.8491 2.96847 -6.01413e-25)
(13.8331 2.98777 -7.30961e-25)
(13.7744 2.9964 0)
(13.6949 2.99708 7.82266e-25)
(13.6214 2.99562 -6.20675e-25)
(15.2982 3.25071 0)
(15.3058 3.24557 -2.42672e-25)
(15.3193 3.2446 -4.76749e-26)
(15.3389 3.24308 -1.31501e-26)
(15.3619 3.24341 0)
(15.3862 3.24399 3.23134e-24)
(15.4097 3.2453 -3.83772e-25)
(15.4318 3.24663 2.03328e-25)
(15.452 3.24885 -5.03918e-25)
(15.4672 3.25114 -5.54957e-25)
(15.47 3.25421 6.00123e-25)
(15.4296 3.25522 1.20427e-24)
(15.2387 3.24852 6.16785e-25)
(14.8008 3.19489 -8.68234e-26)
(14.2454 3.08406 -1.02704e-24)
(13.8219 2.971 -1.04003e-24)
(13.6597 2.91012 2.9345e-25)
(13.6887 2.90842 -3.01366e-25)
(13.7731 2.9356 0)
(13.8248 2.96622 -3.10809e-25)
(13.8195 2.98654 -5.99057e-25)
(13.7695 2.9964 0)
(13.6949 2.9983 5.53607e-25)
(13.6224 2.99676 -7.70361e-25)
(15.301 3.24936 -1.15108e-25)
(15.308 3.24512 1.72058e-25)
(15.3206 3.24432 -3.83049e-25)
(15.3392 3.24317 -8.36935e-27)
(15.3614 3.24371 -1.5559e-25)
(15.3851 3.24457 2.55369e-24)
(15.4083 3.24613 -3.12094e-25)
(15.43 3.24772 -6.22161e-26)
(15.4497 3.25 -3.18737e-25)
(15.4647 3.25231 -6.52864e-25)
(15.468 3.2551 -2.95615e-25)
(15.4322 3.25602 -2.22559e-25)
(15.265 3.24985 -1.51565e-25)
(14.8734 3.2045 0)
(14.3477 3.10677 -6.42367e-25)
(13.9065 2.99827 -8.93536e-25)
(13.6953 2.93015 1.25457e-25)
(13.6821 2.91717 0)
(13.7485 2.93666 1.41726e-25)
(13.8013 2.96414 1.51602e-25)
(13.8047 2.98459 -4.61287e-25)
(13.7632 2.99549 -2.873e-25)
(13.6941 2.99864 3.61825e-25)
(13.6232 2.99756 0)
(15.303 3.24843 -7.34047e-26)
(15.3097 3.24498 1.52357e-25)
(15.3215 3.24424 -1.54639e-25)
(15.3393 3.2433 0)
(15.3608 3.24386 0)
(15.384 3.24483 -6.87426e-25)
(15.4069 3.24647 1.79381e-25)
(15.4284 3.24817 -3.07688e-25)
(15.4477 3.25039 -3.35816e-25)
(15.4625 3.25261 -1.16337e-26)
(15.4662 3.25507 1.05462e-25)
(15.4339 3.25577 0)
(15.2849 3.25 0)
(14.9309 3.21154 0)
(14.4328 3.12579 0)
(13.9819 3.02321 -2.61856e-25)
(13.7316 2.95007 0)
(13.6809 2.92668 0)
(13.729 2.93801 1.27686e-25)
(13.7806 2.96166 0)
(13.7909 2.98177 0)
(13.7569 2.99367 0)
(13.6931 2.99817 3.3747e-25)
(13.6239 2.99791 0)
(15.3053 3.24803 0)
(15.3118 3.24534 -1.05677e-26)
(15.3227 3.24458 1.96556e-26)
(15.3395 3.24374 1.30513e-26)
(15.3599 3.24415 -7.32762e-26)
(15.3824 3.24501 -6.30088e-25)
(15.4048 3.24651 -6.79776e-26)
(15.4259 3.24812 1.6002e-29)
(15.4451 3.25007 1.16852e-32)
(15.4601 3.25177 -8.56789e-31)
(15.4654 3.25297 -3.71997e-25)
(15.4391 3.25129 0)
(15.3124 3.24261 -1.7876e-24)
(15.0024 3.20836 -1.95275e-24)
(14.5424 3.13672 6.93611e-25)
(14.0903 3.04792 -1.12719e-24)
(13.7993 2.97751 0)
(13.6993 2.94592 0)
(13.7156 2.94622 0)
(13.7572 2.9617 0)
(13.7713 2.97826 0)
(13.7453 2.98984 0)
(13.6886 2.9956 1.98265e-25)
(13.6231 2.99707 0)
(11.4837 1.13915 -2.446e-25)
(20.0418 4.82298 -6.21993e-25)
(18.8992 7.91769 -1.28809e-23)
(13.375 0.890431 -4.30499e-26)
(18.5151 2.03265 4.75658e-25)
(19.9446 4.39103 8.58629e-25)
(14.3117 1.45593 1.51778e-25)
(16.3509 0.550107 -1.32861e-24)
(18.2597 1.7795 -5.8204e-25)
(14.6127 1.84486 -1.05008e-25)
(14.3673 0.156483 2.72576e-24)
(16.0819 0.450675 0)
(14.8679 1.98401 -3.16171e-29)
(12.7804 0.195133 -1.78525e-24)
(14.142 0.137897 4.08919e-24)
(15.2002 2.23877 0)
(14.7949 2.26777 2.2603e-24)
(9.69183 1.88403 3.5941e-24)
(11.35 0.376089 1.09597e-23)
(12.6057 0.212527 -2.11595e-24)
(10.2615 3.78138 4.02956e-24)
(12.6749 7.91419 7.87824e-26)
(18.4435 8.16612 -1.07836e-23)
(15.6561 7.57875 6.35688e-24)
(12.6477 2.44141 -8.90834e-25)
(11.6783 1.40342 -7.24597e-26)
(10.6488 3.30952 -3.45933e-24)
(20.0686 6.64333 0)
(19.3092 10.5655 7.59272e-24)
(19.9121 4.85566 0)
(18.5013 4.68444 5.16173e-25)
(17.8137 5.72249 -2.03895e-23)
(13.4542 1.96853 -7.96631e-25)
(13.3586 1.0721 -1.35359e-25)
(11.9122 1.26776 -6.80159e-26)
(12.5299 0.821698 1.94967e-26)
(12.7099 -0.125355 3.19935e-27)
(11.4444 -0.156504 -1.55235e-25)
(15.2398 1.69944 6.27459e-25)
(17.4357 3.22776 5.29667e-25)
(18.8287 2.25879 -2.13648e-25)
(18.487 3.13786 -7.19586e-24)
(18.5899 4.28032 1.6062e-25)
(14.1267 1.98104 -1.18258e-24)
(14.2639 1.52202 -1.50144e-25)
(13.5196 1.11143 -1.89967e-26)
(13.9657 1.15633 8.17357e-30)
(14.369 0.808128 -1.95347e-25)
(13.849 0.293547 -6.08575e-26)
(11.9549 -0.199348 7.79915e-26)
(13.3498 0.583236 -3.48749e-25)
(16.9592 0.812552 -2.48616e-24)
(17.7754 2.01671 2.5281e-24)
(18.3551 2.80414 -6.5988e-24)
(14.5449 2.12577 -1.19987e-25)
(14.6005 1.87265 -3.06446e-25)
(14.3254 1.58167 0)
(14.4988 1.69282 0)
(14.6466 1.63577 -2.20425e-26)
(14.6063 1.36147 -1.1603e-26)
(9.6411 -0.745272 -1.12789e-25)
(10.6048 -0.630018 4.17113e-25)
(15.1474 0.352441 4.42597e-29)
(16.8264 1.45081 7.69767e-24)
(17.5452 1.82555 8.13737e-24)
(8.06435 -0.556332 -3.03384e-25)
(8.91083 -0.669921 -1.98659e-26)
(13.663 0.379535 1.43352e-24)
(15.9277 1.28719 0)
(16.5899 1.38018 0)
(6.98246 -0.319091 2.36313e-25)
(7.43109 -0.383099 0)
(15.3055 2.52342 0)
(14.8236 2.58748 -2.25304e-24)
(14.7931 2.31875 7.42704e-30)
(12.8896 2.74564 1.1088e-24)
(9.4191 0.552138 0)
(11.1345 0.389806 0)
(11.2271 -0.119893 -2.09265e-25)
(9.46472 0.664461 2.51621e-25)
(10.6947 1.79938 -1.87901e-25)
(9.29825 0.371567 2.20582e-25)
(11.2498 -0.358278 -1.77881e-25)
(7.52277 3.76579 2.17677e-24)
(8.98464 0.588635 -2.63144e-25)
(17.602 3.3707 4.69455e-26)
(19.9995 6.34557 -1.09762e-25)
(19.9927 6.20435 -4.83418e-24)
(20.1801 6.33714 -2.21739e-25)
(18.1921 3.59533 2.83176e-26)
(13.7455 0.230051 -3.45029e-26)
(12.8608 -0.0971283 0)
(12.7632 0.810988 -1.58037e-26)
(12.8756 -0.222626 6.65402e-27)
(13.8301 0.160653 1.45976e-27)
(11.4803 -0.381633 8.56908e-26)
(12.7992 -0.239136 6.70048e-27)
(13.4289 0.652095 -5.39858e-25)
(15.1464 1.61616 1.45309e-24)
(19.2293 2.90701 -1.01743e-24)
(15.7063 1.75043 -1.66801e-25)
(14.0689 0.751282 2.65593e-25)
(18.0092 3.42852 3.81787e-25)
(15.81 1.83314 5.57813e-25)
(19.442 3.24161 -2.1883e-25)
(14.5928 1.31132 0)
(14.4128 0.880823 -1.46683e-25)
(14.0724 1.234 -1.13616e-25)
(14.4546 0.831313 -2.04074e-26)
(14.6232 1.31409 -5.56672e-28)
(13.8828 0.19501 -1.46055e-27)
(14.4342 0.791605 -6.40005e-26)
(10.6994 -0.609353 1.01001e-25)
(11.848 -0.235782 0)
(17.1782 0.95654 0)
(12.4827 -0.149879 1.56058e-26)
(11.2736 -0.556815 -1.33371e-25)
(13.9879 0.688141 -3.08174e-25)
(12.5881 -0.109346 -4.74149e-25)
(17.455 1.13251 -2.68213e-25)
(14.6582 1.66551 0)
(14.6386 1.80107 -2.89221e-31)
(14.6294 1.34007 -4.75954e-27)
(14.6595 1.63558 -5.44482e-26)
(8.95467 -0.676377 -3.60246e-26)
(9.61627 -0.736838 9.36379e-26)
(15.0642 0.202979 0)
(10.1631 -0.684634 7.11412e-26)
(9.64164 -0.611732 -3.93811e-27)
(11.1884 -0.573232 3.11738e-25)
(10.2039 -0.685744 9.60152e-26)
(15.3085 0.244557 -1.78683e-24)
(14.6834 1.81265 -5.58592e-27)
(14.8386 1.79609 2.41955e-26)
(14.6372 1.81025 -1.85758e-26)
(14.6702 1.81652 1.06674e-26)
(7.49541 -0.398041 0)
(7.98959 -0.530616 -2.70802e-25)
(9.54749 -0.59851 -1.66921e-25)
(8.91188 -0.475101 -2.6027e-25)
(13.5181 0.139276 -3.73248e-24)
(15.1444 1.88727 4.8346e-26)
(15.3604 2.14531 0)
(14.8683 1.80014 3.38929e-26)
(15.1047 1.86483 3.52381e-26)
(6.13364 -0.298729 6.34055e-24)
(6.91064 -0.331202 5.13728e-26)
(10.4797 2.12622 -2.30859e-24)
(9.19455 0.895154 -2.36346e-25)
(8.04061 3.68809 1.02592e-24)
(19.1695 8.30766 3.50161e-24)
(18.8533 13.3663 -1.92219e-24)
(14.8358 2.26298 1.35024e-24)
(14.8672 2.02547 -2.31838e-25)
(14.63 1.89937 3.00073e-25)
(14.7218 1.92517 0)
(14.6912 1.82913 -2.61163e-26)
(14.6477 1.81051 -1.7361e-26)
(4.31601 -0.499039 -9.16602e-28)
(4.37533 -0.545476 1.60618e-27)
(12.3385 0.46903 1.78645e-24)
(15.1228 1.34687 3.47494e-24)
(15.7169 1.28533 4.40396e-25)
(4.64087 4.48046 0)
(6.14669 0.287959 0)
(19.2676 10.0882 9.5876e-24)
(20.3005 6.79096 1.31534e-27)
(19.8437 6.69168 0)
(14.6468 1.80007 2.06344e-26)
(14.6479 1.66491 0)
(14.5312 1.7391 -1.38279e-29)
(14.3265 1.75593 0)
(14.3516 1.81035 0)
(14.5531 1.68562 1.36473e-26)
(14.6905 1.67245 -4.00343e-27)