/*--------------------------------*- C++ -*----------------------------------*\
| =========                 |                                                 |
| \\      /  F ield         | OpenFOAM: The Open Source CFD Toolbox           |
|  \\    /   O peration     | Version:  5.x                                   |
|   \\  /    A nd           | Web:      www.OpenFOAM.org                      |
|    \\/     M anipulation  |                                                 |
\*---------------------------------------------------------------------------*/
FoamFile
{
    version     2.0;
    format      ascii;
    class       volScalarField;
    location    "600";
    object      p;
}
// * * * * * * * * * * * * * * * * * * * * * * * * * * * * * * * * * * * * * //

dimensions      [0 2 -2 0 0 0 0];

internalField   nonuniform List<scalar> 
6584
(
32.3036
31.1254
30.0815
29.4292
29.1132
29.2411
29.7869
30.7715
31.856
32.8046
32.6391
30.3196
25.0808
17.1258
7.57617
-2.21906
-11.2073
-19.0978
-25.7434
-31.287
-35.8728
-39.7412
-42.8922
-45.7679
32.077
30.9596
29.8682
29.2018
28.8489
28.976
29.5543
30.7006
32.0403
33.4198
33.7043
31.6957
26.3596
17.913
7.79212
-2.60858
-11.865
-19.8484
-26.4449
-31.8952
-36.3647
-40.1626
-43.2068
-46.1484
31.5874
30.4774
29.294
28.5561
28.1062
28.2063
28.8694
30.471
32.4032
34.6148
37.2499
37.2168
32.6542
23.293
11.3196
-3.97428
-13.8783
-22.0242
-28.4378
-33.5754
-37.7196
-41.269
-44.0814
-46.962
30.9471
29.7726
28.45
27.5612
26.9239
26.8783
27.5744
29.6207
33.0705
36.9628
42.7299
45.982
41.9201
29.1279
12.8505
-2.00996
-17.3121
-25.6138
-31.5758
-36.1184
-39.7267
-42.8454
-45.3235
-47.9973
30.2103
28.9021
27.3864
26.235
25.27
24.8283
25.2554
27.3291
30.9511
38.5947
49.2405
59.5006
57.1274
36.828
12.166
-6.85612
-19.5186
-31.1443
-36.1023
-39.4912
-42.2896
-44.7637
-46.8072
-49.1375
29.4264
27.9179
26.1555
24.6084
23.1259
21.8149
21.4354
22.3998
26.969
35.6235
52.2651
82.0782
92.5444
53.797
6.06912
-17.6526
-29.5157
-38.4449
-41.7609
-43.5297
-45.2574
-46.8846
-48.4069
-50.2693
28.6648
26.9057
24.8663
22.8238
20.689
18.2066
16.4585
16.1325
16.7763
22.5705
44.1956
101.629
183.448
57.4457
-9.74919
-38.4786
-44.0418
-47.7976
-48.2961
-47.9545
-48.3688
-48.9939
-49.9463
-51.2488
28.002
25.9748
23.6711
21.1112
18.2722
14.499
10.7606
8.24639
2.36794
-3.44
-0.536205
30.4146
-27.8212
-67.7061
-70.7814
-63.0171
-58.0571
-54.9314
-52.2327
-51.2297
-50.8129
-51.2138
-51.9222
27.5062
25.2379
22.7368
19.7518
16.324
11.496
5.84939
0.602051
-12.1503
-33.4157
-65.0761
-145.617
-254.675
-148.448
-105.671
-81.7132
-66.9576
-60.2981
-55.5728
-53.3398
-52.0307
-51.9924
-52.1518
27.2216
24.7851
22.2046
19.0056
15.3075
10.0863
3.48037
-3.56598
-19.4383
-47.7125
-95.1689
-204.289
-362.494
-197.489
-125.761
-92.8821
-71.7709
-62.9303
-57.1707
-54.2255
-52.373
-52.0995
-51.8387
27.1558
24.6542
22.1341
18.9897
15.4356
10.6432
4.45339
-2.58852
-16.1109
-38.8426
-76.4288
-150.725
-320.887
-188.832
-121.87
-92.0833
-70.8608
-62.0264
-56.5772
-53.6238
-51.6925
-51.439
-50.9474
27.2758
24.8155
22.4742
19.6181
16.5538
12.8014
8.12638
2.70544
-4.86239
-14.7985
-28.6948
-43.9261
-194.617
-136.901
-98.3957
-80.4786
-64.6658
-57.8665
-53.8859
-51.5933
-50.0244
-50.0323
-49.5189
27.517
25.1815
23.0831
20.6419
18.2277
15.7016
12.9109
9.81356
8.30129
10.2858
17.3149
46.2357
-59.0238
-73.4532
-67.5759
-63.3019
-55.2939
-51.6297
-49.6761
-48.4755
-47.5841
-48.0093
-47.6585
27.8028
25.6382
23.7847
21.7663
19.9685
18.4945
17.2983
18.0187
18.1178
26.9569
41.014
83.0616
177.723
23.2332
-25.5915
-40.8047
-46.2382
-45.2386
-44.7217
-44.7339
-44.7557
-44.6531
-45.567
-45.5064
28.0634
26.0778
24.4238
22.7479
21.3974
20.5693
20.2723
21.5428
23.5264
31.679
44.0485
64.8822
70.2001
31.9253
-5.50848
-23.3329
-32.1003
-36.1223
-38.2094
-39.7545
-40.8834
-41.5204
-42.9115
-43.2082
28.2476
26.4225
24.9015
23.4569
22.3577
21.8235
21.8101
23.2763
25.1575
30.4806
38.2488
43.7966
39.5634
20.8772
1.68983
-13.7823
-24.5061
-29.2605
-32.7342
-35.2204
-37.1923
-38.4454
-40.2323
-40.9011
28.3265
26.6298
25.176
23.8602
22.8464
22.3709
22.2377
23.4666
24.8377
26.9419
29.9039
30.1932
27.4732
16.3047
2.60957
-8.92184
-18.6071
-24.1028
-28.2629
-31.3095
-33.855
-35.5631
-37.656
-38.668
28.2908
26.6865
25.2457
23.9782
22.9293
22.3483
21.9077
22.3838
23.0726
23.714
23.833
23.5212
17.5887
11.3692
-0.333114
-7.92506
-14.6402
-20.4092
-24.7236
-28.0636
-30.943
-32.9659
-35.2626
-36.5723
28.1446
26.5999
25.1337
23.8604
22.7082
21.9464
21.1608
20.997
20.5416
20.7133
17.3401
17.9649
13.0861
4.57967
0.0173598
-7.23408
-12.7798
-17.9575
-22.0566
-25.4561
-28.473
-30.6935
-33.1045
-34.6579
27.9011
26.3895
24.8758
23.5677
22.2859
21.3404
20.2281
19.6625
18.4001
18.1752
15.1455
14.3703
10.2663
3.73026
-0.458778
-6.8169
-11.4765
-16.1951
-20.026
-23.3718
-26.4033
-28.737
-31.1954
-32.9405
27.5774
26.0794
24.5083
23.1533
21.7379
20.6335
19.2376
18.3913
16.646
15.9487
12.9239
11.2715
7.68175
2.62016
-1.11248
-6.55327
-10.5458
-14.8917
-18.4501
-21.6979
-24.6752
-27.0676
-29.5269
-31.4186
27.1911
25.6937
24.063
22.6596
21.1181
19.8833
18.2571
17.1919
15.1454
14.0931
11.0848
9.16123
5.8934
1.606
-1.69432
-6.42697
-9.93072
-13.9318
-17.2233
-20.3522
-23.2356
-25.6512
-28.0809
-30.0814
26.7591
25.2542
23.5671
22.1192
20.466
19.1281
17.3254
16.096
13.8715
12.5884
9.66701
7.61874
4.5954
0.830776
-2.17338
-6.37348
-9.51491
-13.2115
-16.2616
-19.2667
-22.0366
-24.4525
-26.834
-28.9129
26.2966
24.7801
23.0424
21.5564
19.8091
18.3923
16.4604
15.1107
12.7898
11.3475
8.52441
6.41216
3.58225
0.208659
-2.57539
-6.35612
-9.22265
-12.6577
-15.4984
-18.384
-21.0354
-23.4378
-25.7613
-27.8945
25.8163
24.2865
22.5055
20.9885
19.1648
17.6892
15.6663
14.2285
11.8632
10.3102
7.58733
5.45666
2.77753
-0.300993
-2.91296
-6.35806
-9.01251
-12.2235
-14.8852
-17.6599
-20.1955
-22.576
-24.8377
-27.0067
25.3285
23.7856
21.9688
20.4275
18.5441
17.0254
14.9416
13.4399
11.0639
9.43575
6.80666
4.6849
2.12955
-0.716968
-3.19455
-6.36958
-8.85839
-11.8777
-14.3873
-17.0602
-19.4866
-21.8403
-24.0405
-26.2305
24.8417
23.2867
21.4411
19.8815
17.9527
16.4033
14.2817
12.7343
10.3694
8.69315
6.14932
4.05318
1.60811
-1.0608
-3.43128
-6.38715
-8.74388
-11.5979
-13.9781
-16.5587
-18.8846
-21.2089
-23.3499
-25.5489
24.3624
22.7966
20.9284
19.3551
17.3934
15.8224
13.6807
12.1015
9.76
8.05568
5.59196
3.53053
1.17627
-1.35506
-3.62918
-6.40339
-8.652
-11.3639
-13.6341
-16.1317
-18.3671
-20.6604
-22.7463
-24.9448
23.8957
22.3201
20.4347
18.8509
16.8667
15.2806
13.1322
11.5318
9.22026
7.50117
5.11159
3.08678
0.81131
-1.60319
-3.79505
-6.41793
-8.57616
-11.1646
-13.3401
-15.7624
-17.9163
-20.1774
-22.2126
-24.4035
23.4452
21.8604
19.9623
18.3702
16.3716
14.7749
12.6291
11.0148
8.73845
7.01351
4.69217
2.70437
0.498495
-1.81493
-3.93562
-6.43009
-8.51121
-10.9911
-13.0845
-15.4372
-17.5178
-19.7454
-21.7338
-23.9111
23.0137
21.4193
19.5121
17.9123
15.9059
14.3017
12.1645
10.5411
8.30332
6.57867
4.32073
2.36965
0.226457
-1.99836
-4.05599
-6.43913
-8.45319
-10.8362
-12.8574
-15.145
-17.1597
-19.3518
-21.2975
-23.4551
22.604
20.998
19.0851
17.476
15.468
13.8559
11.7339
10.104
7.90678
6.18552
3.98717
2.07158
-0.0143163
-2.15991
-4.16057
-6.44486
-8.39972
-10.6944
-12.652
-14.877
-16.8325
-18.9864
-20.8931
-23.0249
22.2163
20.5945
18.6792
17.0569
15.0528
13.4297
11.3311
9.69364
7.54041
5.82284
3.68261
1.80025
-0.231539
-2.30445
-4.25308
-6.44681
-8.34936
-10.5605
-12.4623
-14.6244
-16.5272
-18.6381
-20.5094
-22.6077
21.8587
20.2144
18.301
16.659
14.6655
13.0263
10.9593
9.30967
7.205
5.48722
3.40319
1.5483
-0.430205
-2.43463
-4.33607
-6.4448
-8.30276
-10.4328
-12.2877
-14.3853
-16.2433
-18.3057
-20.1464
-22.2027
21.5077
19.8223
17.9211
16.2405
14.2763
12.6015
10.5878
8.9082
6.87317
5.14355
3.13177
1.30085
-0.622323
-2.55916
-4.41886
-6.43514
-8.25856
-10.295
-12.1144
-14.1318
-15.9553
-17.9514
-19.7685
-21.7622
21.2683
19.5434
17.6595
15.9405
14.0101
12.2974
10.3365
8.62236
6.64809
4.89245
2.91532
1.06733
-0.786462
-2.65078
-4.47949
-6.42335
-8.22962
-10.1908
-11.9935
-13.9451
-15.7518
-17.6913
-19.4982
-21.436
-130.094
-249.807
-18.2215
-203.191
-388.074
-276.444
-162.296
-359.071
-394.332
-57.3013
-221.97
-344.74
37.2917
-70.592
-202.924
83.3376
199.773
193.691
31.5586
-53.4276
52.0416
184.167
12.0957
79.603
-50.6695
-113.877
23.6747
-190.723
84.8869
-231.117
-144.179
-67.2358
-92.4171
-183.215
-128.061
-180.921
-262.628
-218.276
-482.076
-391.899
-356.964
-217.16
-167.472
-85.1118
-149.414
-184.195
-196.58
-275.251
-289.584
-531.976
-540.161
-332.844
-220.937
-224.891
-41.5758
-55.2922
-139.009
-112.267
-135.936
-202.588
-355.022
-453.15
-212.061
-165.437
-211.144
-151.018
-243.937
-74.5936
-89.0549
-146.69
47.9312
-34.5202
72.0109
72.6477
181.007
68.7632
47.3543
35.3195
-209.683
-115.867
-70.2054
-128.177
-225.897
95.8764
-109.148
-384.314
-215.174
-157.895
-205.673
-374.534
-288.301
-267.019
-188.902
-276.877
-298.921
-234.392
-276.024
-534.358
-486.723
-354.682
-471.405
-528.896
-380.908
-467.198
-338.932
-211.71
-269.015
-190.094
-279.027
-217.378
-298.286
-283.431
-457.753
-527.591
-390.639
-525.027
-446.213
-532.4
-528.781
-396.13
-129.964
-59.4536
-211.651
-140.329
-250.727
-348.367
-277.331
-344.507
-249.597
-440.927
-351.254
-295.297
20.0447
66.9841
-49.9211
12.3069
-47.3149
-138.095
-236.957
-149.663
-144.686
115.397
129.364
72.0873
112.521
97.0944
55.4444
-46.2755
-95.9509
84.666
-77.7789
227.039
7.34708
31.6046
-43.0965
-5.65098
9.38899
-50.2336
31.157
-26.741
20.0028
-27.4565
-71.0575
192.673
-64.1485
67.2432
-177.952
-122.94
-59.2132
-126.145
-98.586
-99.1597
-57.481
60.7669
83.6304
-51.7484
-12.8804
-34.5908
-88.4945
-125.762
-137.126
-50.4494
86.58
114.787
-38.6013
38.8193
-7.14529
307.732
198.384
124.855
117.688
194.931
309.338
-115.485
-79.4636
-125.417
203.564
-86.994
-39.2086
-447.503
-438.668
-547.151
-545.931
-399.323
-407.165
-188.723
-156.089
-197.081
91.9394
39.2001
-28.2315
27.5954
3.62151
-199.818
-180.068
-246.366
-204.946
-249.844
-193.309
-193.187
-74.6804
-30.2038
-92.3983
-188.599
-316.414
-307.083
-290.565
-290.582
-254.976
-256.707
-512.943
-512.283
-507.304
-433.169
-410.163
-453.872
-439.154
-509.472
-429.286
-360.751
-321.218
-401.755
-372.026
-435.493
-254.114
-248.826
-299.557
-297.14
-496.874
-499.644
-497.036
-431.563
-449.496
-400.664
-424.317
-493.161
-540.807
-462.302
-457.147
-454.206
-461.783
-541.296
-104.251
-99.5625
-104.504
-146.358
-57.6737
-99.0168
-89.5154
-181.762
-151.116
-171.445
-296.74
-303.948
-400.19
-363.357
-392.038
-322.07
-353.157
-393.786
31.8428
58.2333
-21.7976
-13.7955
-52.0148
25.0707
-8.68895
-12.9021
-7.49718
27.4135
-86.0388
-88.8717
-35.7204
-150.227
-95.5715
-99.4
-94.2096
150.242
167.595
220.979
118.314
144.189
239.887
136.454
96.7579
432.011
38.1078
69.1964
39.76
68.1046
99.6516
70.0528
115.878
87.8732
99.4497
288.611
63.2054
16.8064
6.0152
79.0973
88.1007
254.761
169.864
165.336
92.866
104.646
144.921
144.257
220.613
468.258
325.246
223.078
266.259
346.517
477.647
-247.386
-205.742
-223.723
-471.558
-419.071
-413.958
-287.452
-241.095
-233.801
-244.41
-244.892
-289.395
-541.083
-542.149
-374.101
-434.405
119.042
104.754
15.6318
35.2067
79.2758
127.415
104.421
119.506
0.509615
-51.2486
179.457
-356.722
-387.259
-414.712
-284.742
-235.724
-169.589
-306.291
-253.646
-306.669
-281.522
-238.867
-245.875
-225.972
-238.429
-278.525
-284.044
-306.921
-298.119
-325.34
-324.024
-295.237
-295.384
-289.056
-267.712
-527.955
-497.808
-487.422
-456.687
-448.082
-492.157
-483.359
-522.093
-227.678
-213.567
-246.293
-269.775
-289.639
-308.04
-300.881
-330.433
-326.729
-312.132
-323.362
-290.212
-476.437
-517.261
-514.468
-477.446
-485.647
-433.802
-438.932
-465.089
-536.804
-498.992
-492.336
-490.365
-495.387
-536.681
-270.133
-280.66
-258.852
-357.425
-343.864
-329.628
-301.024
-278.503
-311.279
-234.483
-267.189
-287.869
41.6103
55.6746
29.2969
79.3558
60.3252
48.1664
164.202
172.882
91.2171
108.035
86.0402
151.813
162
139.977
124.889
34.6661
322.069
84.5231
41.6453
5.24275
9.55823
43.4861
-0.278404
-3.19829
67.2275
60.174
272.139
7.86383
28.7601
-82.4255
-74.0391
71.4083
76.6754
70.5029
76.1573
69.0382
88.0125
78.7627
73.2783
-34.2722
-28.2728
-57.2787
-64.9329
98.1345
103.024
91.3107
109.498
126.108
-185.63
-159.957
-81.6152
-240.008
-182.158
-208.873
-467.775
-420.202
-543.224
-546.394
-379.836
-428.271
-182.326
-178.5
-198.577
-151.851
-171.92
-173.875
-233.79
-255.117
-205.141
-225.69
70.2188
91.3232
110.453
50.6086
82.5512
63.9069
89.359
54.0744
-224.913
-196.517
-218.696
-158.409
-187.97
-216.587
-244.978
-256.434
-224.806
-240.839
-145.357
-109.864
-148.328
-160.039
-175.003
-359.367
-379.43
-349.152
-360.389
-311.4
-258.142
-352.207
-325.592
-269.445
-306.98
-348.98
-316.77
-310.528
-284.589
-314.039
-320.611
-308.774
-309.922
-330.136
-328.613
-319.996
-326.873
-295.438
-322.114
-317.307
-279.01
-289.85
-260.26
-274.374
-299.994
-305.953
-292.328
-299.303
-266.526
-287.566
-280.629
-527.414
-497.93
-470.89
-458.447
-492.583
-519.973
-482.608
-472.119
-270.226
-284.494
-264.828
-294.359
-279.769
-314.573
-299.491
-256.157
-235.825
-274.339
-260.886
-331.395
-330.182
-299.493
-334.699
-338.428
-330.826
-336.01
-329.005
-316.201
-335.438
-331.782
-293.733
-325.689
-329.995
-481.568
-509.631
-461.989
-471.963
-508.94
-473.783
-444.961
-456.327
-501.659
-498.221
-539.279
-538.685
-498.931
-499.623
-121.786
-121.093
-117.505
-101.167
-140.353
-123.297
-129.435
-74.83
-73.1232
-59.5931
-95.697
-78.6977
-81.1916
-207.051
-190.201
-229.149
-212.703
-166.987
-162.421
-145.846
-184.821
-168.012
-174.868
-308.047
-288.632
-277.292
-290.147
-307.702
-261.355
-281.749
-313.665
-322.913
-336.429
-313.63
44.1821
50.2712
40.1497
66.5473
54.3024
48.0259
68.7788
8.43404
34.6977
13.5883
-127.365
-124.107
-145.064
-95.2745
-117.355
-119.321
-119.031
-126.95
177.101
196.909
132.441
147.407
179.271
146.987
-2.35902
-43.7423
1.34872
5.2531
48.1068
77.9762
631.18
471.882
399.858
470.061
526.968
648.725
65.8476
156.192
96.3552
-176.788
-201.418
-241.304
-477.856
-480.43
-485.443
-538.11
-540.18
-178.468
-156.352
-174.969
-454.987
-449.068
-447.559
-252.017
-230.781
-224.492
-177.793
-137.044
-169.833
-250.484
-236.428
-216.042
-246.192
-293.041
-257.907
-241.229
-266.476
-254.436
-530.295
-491.816
-496.494
-491.176
-512.738
-510.039
-525.886
-439.821
-431.098
-455.459
-237.96
-205.904
-187.023
-229.806
-246.659
-231.161
-463.064
-461.136
-457.402
-524.754
-521.823
-503.815
-507.116
-534.004
-517.263
-515.316
-510.727
-514.053
-532.799
-200.626
-209.454
-224.391
-423.621
-409.992
-422.205
-199.006
-189.648
-223.105
171.964
172.793
135.384
115.601
95.9685
171.92
172.295
90.8162
119.869
80.6152
-66.4696
-45.7497
-93.955
-56.6464
-62.2604
-63.3381
-46.0043
-45.2642
-50.9461
-11.3944
-16.6052
-18.1715
-87.3901
-80.7919
-81.2562
123.336
107.716
101.574
180.916
296.377
238.972
-138.025
-155.832
-134.993
-103.514
-256.15
-236.94
-55.9825
22.4189
38.4622
-459.744
-462.101
-454.766
-431.453
-446.198
-452.752
-551.084
-546.499
-406.935
-399.695
-392.11
-415.173
-421.378
-414.911
-195.946
-201.291
-154.766
-161.311
-161.821
-206.568
-212.012
-217.657
-223.409
-203.508
-208.627
-238.053
-238.876
-245.101
-181.827
-192.128
-214.101
-268.16
-273.706
-249.886
-253.027
-250.035
-52.3198
-98.6097
-129.671
-115.6
-107.92
-118.916
-172.743
-288.907
-278.142
-278.293
-269.904
-243.451
-277.795
-278.666
-516.343
-511.667
-398.895
-386.117
-409.835
-451.814
-421.611
-410.793
-236.693
-251.463
-265.215
-491.219
-501.555
-523.542
-523.353
-540.804
-542.586
-523.812
-523.563
-109.448
-110.189
-108.943
-103.148
-145.439
-140.152
-141.899
-188.008
-204.103
-192.025
-201.173
-196.042
-232.001
-227.788
-156.084
-156.132
-150.714
-191.339
-186.734
-387.147
-398.46
-417.676
-376.009
-364.418
-375.734
-29.3326
-28.3404
-18.3877
-49.9017
-38.913
-34.921
-65.6395
-69.585
-88.162
-41.807
-56.4614
-58.1165
-143.305
-141.225
-147.935
-103.396
-95.3457
-146.11
198.833
201.241
213.254
144.213
132.466
143.087
128.872
157.616
147.069
138.185
221.994
185.825
116.865
134.443
117.734
209.018
394.211
118.076
81.7524
84.7418
201.457
210.318
238.498
96.0641
96.0259
91.2715
105.327
100.541
100.091
232.981
195.701
184.347
323.645
471.852
415.024
-476.212
-477.35
-474.568
-421.521
-423.415
-417.074
-435.711
-424.586
-541.405
-539.872
-381.041
-385.027
-365.162
-373.255
-440.814
-441.237
-434.712
111.952
117.594
124.949
106.078
111.777
106.207
-395.858
-394.122
-385.159
-410.502
-402.526
-405.6
-527.681
-494.564
-497.622
-498.014
-523.55
-507.8
-505.668
-470.436
-464.851
-469.983
-524.096
-496.327
-500.421
-519.171
-520.226
-518.551
-534.989
-535.454
-516.769
-518.59
-351.877
-352.519
-358.08
-340.901
-346.424
-347.469
174.482
177.009
163.721
167.467
155.784
162.188
158.162
147.56
139.296
134.711
141.996
146.435
130.056
134.419
129.968
18.4372
-3.64114
-14.495
52.0775
265.616
224.176
297.878
106.211
138.959
188.392
19.8286
18.2387
8.40135
37.6853
28.3272
30.2538
-17.5722
-15.6193
-25.3306
-1.03989
-9.54446
-9.10142
90.355
106.375
48.0412
-52.4569
-84.3614
-8.82276
-16.3153
-88.9946
-69.0866
-67.9923
-75.1048
72.7418
74.4825
65.5382
68.3227
71.379
-33.9019
-39.6431
-40.2193
-15.2866
-9.92735
-21.5674
-22.8222
-20.6929
-28.0271
-54.5208
-48.7732
-50.348
-47.276
-56.0597
-32.8336
-40.0486
-73.2951
-72.9632
-64.5807
114.658
115.861
110.452
127.972
121.684
120.188
-193.551
-164.322
-160.185
-228.948
-237.247
-217.158
-463.707
-461.915
-468.182
-473.877
-444.156
-441.877
-455.179
-448.22
-547.816
-548.404
-398.79
-404.924
-389.055
-393.556
-385.653
-393.522
-388.052
-429.689
-425.144
-422.027
-414.197
-180.61
-189.657
-167.624
-167.884
-174.533
-241.842
-243.23
-234.577
-255.887
-251.142
-249.06
-211.889
-213.035
-206.765
-226.814
-218.419
-218.289
-219.099
60.9148
56.0229
46.123
77.3646
65.4506
-214.841
-225.044
-232.629
-231.143
-220.182
-204.024
-214.028
-261.733
-263.988
-271.033
-266.968
-252.371
-250.234
-258.626
-147.074
-130.83
-141.896
-103.493
-183.285
-172.428
-163.422
-369.447
-352.052
-341.076
-374.919
-364.796
-378.876
-382.881
-370.631
-293.003
-295.378
-313.971
-279.243
-294.327
-276.634
-340.406
-326.605
-332.932
-337.111
-317.989
-321.213
-310.384
-313.762
-313.742
-312.342
-311.5
-329.066
-327.834
-321.21
-323.703
-284.609
-290.092
-284.072
-292.156
-291.377
-287.749
-264.104
-277.165
-274.559
-284.162
-280.458
-268.609
-280.743
-282.924
-301.387
-303.453
-302.337
-309.456
-306.133
-303.482
-294.999
-298.3
-294.892
-303.283
-303.372
-298.001
-520.86
-505.429
-290.12
-292.052
-294.518
-280.713
-287.372
-285.355
-309.973
-297.452
-301.438
-304.722
-250.067
-252.663
-259.462
-238.986
-245.312
-243.017
-269.511
-270.399
-274.862
-263.598
-266.631
-265.07
-335.321
-337.13
-333.79
-337.13
-323.57
-319.273
-332.605
-331.334
-485.692
-504.742
-540.907
-523.147
-521.833
-520.723
-522.597
-541.192
-114.858
-120.545
-114.868
-115.953
-136.514
-134.224
-127.267
-214.005
-207.049
-201.295
-206.715
-212.863
-223.554
-228.759
-233.502
-218.703
-223.602
-217.997
-224.388
-220.682
-167.965
-161.878
-161.317
-181.875
-174.083
-301.982
-297.434
-304.182
-283.671
-290.694
-295.871
-298.165
-303.202
-266.838
-267.284
-260.959
-274.415
-327.936
-326.229
-334.06
-310.807
-318.22
-320.653
46.6997
45.1615
48.9748
37.3094
41.4548
43.6526
64.4846
60.2865
62.8164
52.9515
56.9682
58.6961
63.6806
6.04915
11.2775
-4.66586
0.904799
29.4483
27.6082
32.3028
16.8312
24.0931
23.0961
-126.106
-134.031
-135.579
-111.166
-135.506
181.394
187.461
138.113
145.028
135.142
153.601
148.422
142.498
153.055
159.766
168.817
155.113
52.243
68.9719
54.8299
75.645
84.0215
60.7797
81.8721
61.1444
48.7946
50.3589
24.7466
24.3626
30.3887
40.8361
43.6081
49.0664
85.0375
73.6057
104.251
166.074
94.7596
165.19
85.5282
66.6008
60.1496
9.62726
20.0078
-1.85359
-17.4557
-7.62263
11.145
10.7728
36.1961
14.5335
41.8549
84.6891
100.129
163.703
142.216
266.481
186.573
149.125
56.0324
22.8012
34.6143
-49.2233
-49.3993
-30.7797
-19.2476
-41.6386
-1.37621
-17.2939
-20.972
0.725004
6.10372
9.70997
39.2433
-116.686
-107.701
-53.7609
-129.595
-97.8132
-72.5857
-43.3997
-76.2636
-53.1885
-77.2003
-96.418
-81.755
-159.349
-179.468
-164.827
-311.681
-245.388
-198.973
-190.858
-139.487
-121.313
-45.9775
-71.3501
-78.5917
-94.8643
-115.747
-116.974
-203.759
-226.762
-227.294
-363.825
-291.642
-284.027
-196.574
-151.198
-149.805
-27.824
-36.231
-64.3532
-65.9816
-77.4378
-90.7989
-138.517
-150.487
-164.654
-278.501
-236.482
-263.73
-152.427
-129.743
-143.97
-1.59906
4.72515
-25.5858
-30.7317
-30.4079
-45.1102
-141.481
-132.21
-172.959
-88.796
-89.892
-110.871
19.782
31.7693
13.2377
-16.627
-39.3507
-62.333
-34.9174
-50.4571
-69.1356
30.3707
37.1951
33.8462
45.4824
64.5249
71.96
80.2317
98.3693
115.818
128.754
130.5
138.448
33.4585
1.07535
-17.4247
-12.6843
-23.3165
-35.1872
31.6003
36.9525
37.9187
41.7131
46.7178
59.661
48.2202
48.5481
75.1234
45.8748
32.2855
43.1502
26.0427
10.44
3.34464
-0.165655
-10.3198
-15.5926
33.7854
36.416
41.3422
34.0205
36.9804
42.3003
32.5618
23.3059
28.9981
18.9924
10.1326
11.3799
-147.794
-127.955
-112.213
-219.513
-244.446
-292.034
-2.50081
-40.7548
-51.8281
-225.853
-222.506
-200.051
-379.281
-420.106
-435.327
-305.835
-344.091
-299.918
-178.15
-190.615
-172.743
-371.744
-411.418
-388.487
-438.363
-444.575
-397.914
-59.7667
-74.4676
-70.9582
-240.133
-260.472
-230.765
-379.519
-352.727
-329.165
-88.5791
-86.0164
-66.719
-211.796
-189.877
-183.279
117.279
107
72.2836
222.374
203.017
185.81
182.823
180.151
218.884
-47.9284
-29.3342
-36.799
109.289
165.456
93.9264
742.497
642.885
653.684
157.12
191.721
265.828
743.791
775.978
35.3003
58.6044
32.6386
131.382
153.817
74.6784
-63.7512
-43.0622
-34.3421
-59.8459
-50.7726
-77.2308
6.02049
-22.0952
-39.4188
-157.381
-170.29
-228.176
107.889
62.0737
46.4323
-184.008
-126.133
-146.966
-118.703
-125.609
-157.857
-61.8322
-92.7842
-92.804
-114.171
-107.265
-86.2838
-169.034
-131.055
-139.198
-99.8662
-117.92
-161.688
-202.258
-191.848
-170.921
-257.942
-244.3
-249.241
-203.882
-212.216
-225.272
-401.681
-410.934
-399.47
-282.394
-253.971
-326.232
-204.575
-233.324
-248.362
-187.363
-212.855
-188.032
-102.1
-110.609
-91.3191
-173.075
-133.786
-122.813
-142.331
-140.477
-178.695
-218.749
-223.907
-201.023
-280.405
-262.656
-258.247
-272.637
-272.978
-290.356
-274.096
-286.493
-359.094
-226.649
-258.121
-250.102
-257.52
-260.784
-228.235
-47.1572
-62.6648
-54.1489
-92.4755
-72.9523
-53.7446
-108.385
-91.4554
-104.862
-120.606
-135.725
-125.567
-165.197
-147.435
-123.491
-194.776
-186.179
-194.184
-361.841
-370.021
-361.689
-187.13
-223.238
-262.633
-182.785
-201.671
-180.313
-237.386
-220.984
-198.341
-164.044
-171
-150.958
-247.065
-240.449
-237.735
-88.3557
-112.299
-124.446
-107.903
-112.016
-89.5847
-157.647
-134.343
-127.3
37.8124
46.7887
57.6206
-31.2206
-17.5901
-21.6388
77.9493
92.3708
77.5283
105.897
96.7732
79.6508
156.938
136.443
133.212
69.4126
82.0364
103.07
48.344
72.2676
59.3813
82.0142
75.5904
45.7101
-200.127
-185.031
-194.971
-84.0418
-126.594
-164.793
-92.3607
-105.222
-79.4041
-148.17
-177.632
-150.122
64.7897
71.0344
109.85
-124.717
-100.313
-86.2862
-375.808
-385.316
-393.575
-224.806
-242.047
-232.305
-168.651
-206.03
-190.642
-234.809
-220.191
-193.403
-340.004
-324.931
-344.465
-286.496
-270.56
-271.95
-253.51
-257.548
-271.221
-195.454
-217.495
-210.719
-280.223
-286.545
-283.969
-308.441
-307.407
-296.931
-281.828
-279.298
-272.456
-392.183
-414.48
-368.136
-476.461
-469.669
-463.262
-403.165
-372.367
-357.211
-460.808
-454.391
-462.698
-320.697
-354.746
-384.273
-220.659
-211.547
-203.375
-252.939
-247.219
-261.921
-182.208
-201.802
-211.257
-276.961
-285.863
-289.724
-220.824
-225.848
-221.594
-300.21
-310.198
-309.132
-293.623
-296.709
-285.036
-434.367
-418.601
-382.398
-440.629
-443.017
-450.957
-398.55
-444.139
-438.714
-119.635
-121.449
-138.066
-60.1123
-70.0722
-69.1757
-207.073
-210.156
-215.514
-143.609
-160.203
-150.722
-256.87
-260.25
-253.75
-353.848
-347.22
-342.265
-302.906
-271.546
-258.937
-324.994
-317.411
-329.419
-244.543
-256.65
-262.318
-435.663
-430.863
-434.59
-341.384
-353.064
-370.003
-312.604
-342.827
-313.44
27.5557
30.863
23.1223
71.1678
64.7904
60.7473
-40.3647
-39.8597
-50.0664
15.0774
6.67544
4.18873
-60.2443
-58.5886
-44.8627
-144.227
-123.637
-125.088
-224.262
-220.25
-232.405
-144.867
-178.153
-187.163
-163.887
-168.474
-147.518
126.374
155.499
140.846
154.303
158.205
126.62
79.1715
83.8777
77.2839
84.3753
126.657
129.914
-50.8271
-20.4378
-20.3701
-24.0184
-20.2515
-69.6835
52.9159
16.7625
3.16021
260.639
203.231
181.475
2.57784
1.21265
16.8672
-34.5863
-16.0859
-8.08293
-2.9907
-16.3588
-17.953
-14.9422
-14.0311
0.538329
-46.0607
-29.5807
-23.4109
22.6107
25.4929
34.6755
-25.5662
-17.9874
-18.8759
-4.85419
-20.1116
-5.33081
149.31
163.098
214.627
-100.181
-69.6555
-36.4109
-39.8782
-48.9339
15.4065
-147.05
-73.7651
-77.4478
-87.1791
-83.3079
-126.544
-87.2156
-81.2267
-60.7559
-114.621
-89.8098
-96.8037
-84.8124
-89.8377
-105.241
64.3346
66.5884
63.4903
85.2689
81.8313
79.7934
-42.5809
-41.3153
-33.4802
-126.755
-106.221
-107.017
-99.4691
-100.207
-133.845
-60.8292
-89.5503
-87.0393
90.5995
92.1118
88.5457
117.398
112.71
109.856
-2.54941
-20.4892
-41.6217
16.3302
-1.01907
8.48666
-21.3385
-12.0472
3.65253
267.751
317.743
422.309
190.345
279.061
245.543
209.688
279.429
181.994
144.278
178.962
147.237
247.948
291.25
189.078
427.537
332.609
271.375
-77.9513
-149.391
-119.364
82.0163
85.6689
139.114
-70.751
-36.5374
-48.7169
2.9039
11.7615
-34.6206
-197.149
-177.583
-177.228
-204.404
-206.649
-200.121
84.1067
90.4676
97.2946
43.2044
51.9864
47.4624
-5.14107
-12.9274
-27.2998
16.1506
1.59596
2.79033
-8.96732
-3.96528
9.58728
-207.018
-185.443
-165.238
-205.251
-231.363
-213.238
-176.211
-159.789
-171.498
-58.1391
-80.3647
-94.6701
-59.5922
-70.5066
-40.7897
-329.974
-340.99
-328.835
-293.862
-306.845
-319.015
-298.834
-297.076
-287.924
-293.046
-301.62
-300.048
-262.435
-259.36
-250.411
-261.025
-267.858
-264.969
-491.643
-488.718
-504.504
-426.068
-445.356
-453.071
-429.773
-436.642
-418.374
-449.539
-471.599
-476.552
-459.772
-466.028
-444.843
-512.467
-496.969
-494.064
-418.391
-410.19
-422.578
-348.372
-367.459
-379.829
-340.007
-354.319
-335.415
-392.467
-412.068
-421.27
-391.37
-402.173
-382.788
-441.591
-430.989
-422.929
-259.2
-263.507
-257.096
-245.578
-250.052
-254.418
-310.577
-310.844
-298.852
-297.181
-308.267
-309.375
-479.597
-483.231
-500.42
-438.048
-461.497
-453.867
-474.605
-468.541
-444.273
-408.736
-426.171
-415.322
-445.48
-436.245
-416.866
-487.75
-471.37
-475.658
-461.461
-486.484
-487.795
-480.737
-484.116
-459.911
-457.689
-483.771
-479.812
-487.809
-486.541
-460.431
-101.009
-115.811
-109.329
-63.5529
-63.2717
-57.685
-97.5139
-91.8524
-93.4593
-79.2226
-80.6791
-91.5495
-161.131
-165.888
-182.509
-300.577
-294.304
-290.681
-310.132
-313.591
-307.038
-395.029
-400.434
-406.162
-373.142
-386.03
-375.614
-405.908
-396.182
-382.927
-332.533
-342.706
-331.473
-364.801
-353.84
-343.013
-387.845
-382.163
-387.616
36.1414
38.1917
33.8984
60.6391
57.5746
55.113
-20.4721
-29.9846
-30.9768
-18.9368
-20.0196
-14.7038
-52.3874
-46.645
-46.3228
11.5551
9.95029
18.5984
-8.71295
0.79532
6.73372
-4.18542
-2.09698
-11.1939
-2.11367
-0.52262
-5.97239
29.1949
24.5563
22.9528
-85.3467
-71.9808
-72.9799
-81.3023
-80.9867
-88.3106
-36.5725
-44.5899
-43.4648
-95.3572
-102.862
-103.086
-112.451
-111.852
-99.3908
155.895
169.397
160.196
188.09
172.932
161.364
123.347
126.241
121.751
126.045
140.64
165.595
103.189
109.392
104.344
63.4506
51.1543
56.8571
30.5508
41.8833
59.9313
90.5125
79.8982
87.8338
61.3055
70.8635
79.9787
108.405
116.788
126.76
93.0082
107.98
99.512
125.732
111.666
97.3992
44.3853
39.3024
50.638
14.2888
27.2054
38.0068
17.1313
21.6999
9.69668
230.082
257.484
322.295
174.112
194.755
190.081
176.996
188.392
172.433
149.493
163.03
156.848
169.772
173.24
151.778
305.211
221.866
218.838
428.681
470.427
583.942
325.188
387.85
375.281
339.363
418.643
306.75
298.395
342.032
307.074
398.629
463.039
351.171
597.068
509.09
449.797
-233.243
-239.127
-252.945
-213.594
-225.547
-219.408
-235.628
-230.48
-216.835
-406.489
-419.247
-429.254
-269.23
-266.469
-284.495
-240.644
-254.408
-256.611
-247.004
-250.75
-235.631
-246.556
-260.067
-259.411
-258.725
-259.405
-243.993
-290.277
-272.43
-271.351
-382.807
-377.377
-368.36
22.7697
35.2899
27.237
53.6811
43.6997
30.2561
67.9591
56.1316
66.4117
121.627
130.852
148.24
111.582
121.542
112.909
133.194
123.487
113.603
-6.28947
31.6705
32.6707
37.266
34.5086
-12.4049
128.578
83.0511
71.3065
-368.797
-377.279
-368.073
-266.974
-244.343
-260.927
-213.178
-227.96
-250.045
-180.746
-205.368
-193.405
-290.391
-307.783
-324.248
-270.534
-290.124
-273.354
-327.006
-307.244
-287.861
-266.592
-268.899
-284.224
-243.096
-255.597
-252.938
-258.868
-257.125
-242.63
-231.964
-243.911
-239.628
-250.571
-247.093
-233.315
-275.032
-260.929
-264.095
-291.04
-288.683
-280.922
-304.478
-296.75
-298.576
-292.655
-294.76
-300.942
-324.559
-313.226
-314.059
-311.867
-312.738
-324.479
-297.424
-306.77
-305.569
-292.956
-288.228
-290.514
-283.944
-286.115
-290.83
-271.436
-277.269
-274.841
-476.958
-472.966
-481.279
-450.15
-462.141
-466.919
-488.055
-502.429
-505.232
-497.452
-500.245
-487.601
-224.627
-236.787
-241.89
-224.362
-230.505
-217.646
-254.256
-240.843
-234.212
-277.006
-281.19
-272.166
-295.239
-287.621
-283.608
-295.914
-292.028
-302.183
-311.278
-310.704
-299.326
-330.212
-317.269
-317.669
-315.063
-316.289
-328.465
-315.872
-302.422
-299.288
-308.657
-305.689
-319.687
-289.065
-299.989
-302.463
-479.295
-495.277
-491.849
-501.764
-498.904
-484.337
-449.661
-444.077
-435.858
-457.782
-450.45
-455.849
-495.711
-510.946
-512.835
-507.302
-509.612
-496.058
-491.207
-507.671
-505.155
-511.866
-510.318
-495.339
-273.932
-267.094
-263.816
-272.699
-269.142
-276.33
-255.874
-262.262
-265.325
-335.979
-340.5
-334.152
-293.755
-306.022
-312.639
-289.541
-297.166
-285.591
-320.072
-308.615
-300.517
-244.324
-250.703
-239.511
-273.888
-262.175
-255.699
-275.08
-268.93
-281.264
45.347
38.2391
34.68
45.364
42.1642
49.2229
26.8297
34.7007
41.6283