/*--------------------------------*- C++ -*----------------------------------*\
| =========                 |                                                 |
| \\      /  F ield         | OpenFOAM: The Open Source CFD Toolbox           |
|  \\    /   O peration     | Version:  5.x                                   |
|   \\  /    A nd           | Web:      www.OpenFOAM.org                      |
|    \\/     M anipulation  |                                                 |
\*---------------------------------------------------------------------------*/
FoamFile
{
    version     2.0;
    format      ascii;
    class       volScalarField;
    location    "600";
    object      p_rgh;
}
// * * * * * * * * * * * * * * * * * * * * * * * * * * * * * * * * * * * * * //

dimensions      [0 2 -2 0 0 0 0];

internalField   nonuniform List<scalar> 
6584
(
11.31
11.9567
12.7382
13.9112
15.4207
17.3744
19.746
22.5562
25.4662
28.2403
29.9003
29.4063
25.993
19.8635
12.1394
4.16968
-2.99301
-9.05776
-13.8774
-17.5949
-20.3543
-22.3968
-23.7223
-24.7733
11.0816
11.7864
12.5191
13.6777
15.1501
17.1039
19.5105
22.484
25.6494
28.8544
30.9643
30.7812
27.2706
20.6495
12.3543
3.77964
-3.64996
-9.80622
-14.5749
-18.1978
-20.8406
-22.8123
-24.0322
-25.1528
10.5914
11.3007
11.938
13.0235
14.3984
16.3251
18.8187
22.2513
26.0109
29.5923
34.0528
35.845
33.1079
25.5722
15.4246
2.41701
-5.65603
-11.9728
-16.5585
-19.8692
-22.1878
-23.913
-24.9044
-25.9658
9.95069
10.5947
11.0911
12.0228
13.2087
14.9885
17.5147
21.3937
26.6744
31.9393
39.5316
44.6091
42.3727
31.4067
16.9616
3.93319
-9.07548
-15.55
-19.6864
-22.4041
-24.1889
-25.4867
-26.1457
-27.0008
9.21385
9.72392
10.0266
10.6941
11.5495
12.9313
15.1853
19.086
24.0884
33.5674
46.0402
58.1265
57.5788
39.1146
16.296
-0.891427
-11.7264
-21.0704
-24.205
-25.7711
-26.7488
-27.4039
-27.629
-28.141
8.42984
8.7395
8.79527
9.06648
9.40272
9.9121
11.3546
13.6865
20.0829
30.5671
48.8211
80.4733
92.7669
55.8759
10.22
-11.6743
-21.7145
-28.364
-29.858
-29.8065
-29.7154
-29.5243
-29.2285
-29.2727
7.66808
7.72703
7.50566
7.28137
6.96477
6.30093
6.37264
7.41349
9.87821
17.4927
40.7142
99.8806
183.556
59.5489
-5.81269
-32.4913
-36.2333
-37.7116
-36.3902
-34.23
-32.8262
-31.6332
-30.7676
-30.2521
7.00529
6.79602
6.31025
5.56837
4.54741
2.59218
0.671882
-0.477408
-4.53529
-8.52336
-4.02801
28.6273
-25.8079
-63.7615
-64.7903
-55.2051
-47.9698
-43.0247
-38.5076
-35.6866
-33.4519
-32.0349
-30.9254
6.50944
6.05907
5.37584
4.20869
2.59892
-0.411144
-4.23979
-8.12371
-19.0555
-38.5
-68.569
-147.407
-252.657
-144.503
-99.6817
-73.9033
-56.8728
-48.3925
-41.8477
-37.7965
-34.6696
-32.8134
-31.155
6.22484
5.60623
4.84368
3.46256
1.58232
-1.82102
-6.60895
-12.2915
-26.3421
-52.7952
-98.6605
-206.079
-360.477
-193.546
-119.775
-85.0758
-61.6905
-51.0283
-43.4473
-38.6825
-35.0118
-32.9205
-30.8419
6.15908
5.47543
4.77331
3.4469
1.71074
-1.26369
-5.6354
-11.3129
-23.0124
-43.9224
-79.9172
-152.513
-318.873
-184.894
-115.889
-84.2827
-60.7862
-50.13
-42.8582
-38.0825
-34.3314
-32.26
-29.9506
6.27906
5.63684
5.11362
4.07547
2.8293
0.894956
-1.96146
-6.01711
-11.7614
-19.8752
-32.1793
-45.7092
-192.611
-132.972
-92.4226
-72.6854
-54.5984
-45.9769
-40.1733
-36.0565
-32.6648
-30.8535
-28.5221
6.52029
6.00296
5.72267
5.09957
4.50339
3.79542
2.82379
1.09246
1.40415
5.21173
13.8341
44.4576
-57.0291
-69.5368
-61.6131
-55.5183
-45.2357
-39.7484
-35.9711
-32.9451
-30.2275
-28.8308
-26.6618
6.80618
6.45966
6.4243
6.22408
6.24445
6.5887
7.21211
9.75537
11.2222
21.8875
37.5429
81.3162
177.749
25.3136
-21.6912
-34.8568
-38.4666
-35.192
-32.8505
-31.0379
-29.2317
-27.3009
-26.3905
-24.5099
7.06679
6.89942
7.06358
7.20597
7.67375
8.66434
10.1886
13.2863
16.6388
26.6301
40.6044
63.2639
70.4114
33.9761
-1.40187
-17.3999
-23.8857
-26.0827
-26.3441
-26.0644
-25.3651
-24.1745
-23.7405
-22.2134
7.25099
7.24427
7.54161
7.91544
8.63489
9.92001
11.7303
15.0296
18.2877
25.4409
35.0352
42.1812
39.7767
23.1481
5.79133
-7.8531
-16.2946
-19.2234
-20.8719
-21.5306
-21.6766
-21.1037
-21.0655
-19.9081
7.33004
7.45178
7.81654
8.3194
9.12464
10.4697
12.163
15.2258
18.4293
21.9032
26.6914
28.8073
27.9148
18.5754
6.70951
-2.99523
-10.3992
-14.07
-16.4041
-17.6233
-18.3421
-18.2238
-18.4894
-17.6754
7.29437
7.50877
7.88668
8.43816
9.20885
10.4505
11.8386
14.1476
16.6654
19.1326
20.621
22.1359
18.0308
13.6391
4.22059
-1.54496
-6.4343
-10.3783
-12.8666
-14.38
-15.433
-15.6292
-16.0988
-15.5809
7.14832
7.42252
7.77534
8.32124
8.98902
10.0521
11.0969
12.7637
14.1352
16.1329
14.5859
17.0372
13.9851
7.30548
4.56966
-0.855565
-4.57544
-7.92772
-10.201
-11.7741
-12.9648
-13.3584
-13.9428
-13.6676
6.90493
7.21244
7.51801
8.0293
8.56797
9.44875
10.1674
11.4306
11.9942
13.5953
12.3918
13.4428
11.1652
6.45548
4.09256
-0.439559
-3.27334
-6.1664
-8.1715
-9.69111
-10.8963
-11.4032
-12.0352
-11.9511
6.58125
6.90266
7.15103
7.61587
8.02115
8.74357
9.17887
10.1602
10.2404
11.369
10.1703
10.344
8.58033
5.34479
3.4381
-0.176811
-2.34347
-4.86375
-6.5965
-8.01823
-9.16912
-9.73494
-10.368
-10.4298
6.19508
6.51726
6.70639
7.12305
7.40243
7.99461
8.1994
8.96142
8.74026
9.5135
8.33117
8.23354
6.79165
4.33016
2.85568
-0.05115
-1.7291
-3.90451
-5.37036
-6.67334
-7.73033
-8.3195
-8.92302
-9.09311
5.76326
6.07819
6.2111
6.58346
6.75137
7.24048
7.26861
7.86625
7.46676
8.00886
6.9133
6.69089
5.49339
3.55457
2.37617
0.00184865
-1.31384
-3.18474
-4.40919
-5.58832
-6.53195
-7.12159
-7.67698
-7.92507
5.30088
5.60435
5.68695
6.02145
6.09545
6.50568
6.40432
6.88164
6.38544
6.76815
5.77063
5.48414
4.48001
2.93216
1.97382
0.0187996
-1.022
-2.63135
-3.64649
-4.70614
-5.53134
-6.10754
-6.60498
-6.90705
4.82061
5.1111
5.1506
5.45436
5.4522
5.80347
5.61091
6.00011
5.45944
5.73115
4.83349
4.52851
3.67509
2.42226
1.63597
0.0165598
-0.812207
-2.19755
-3.03368
-3.98241
-4.69186
-5.2463
-5.68206
-6.01946
4.33297
4.61056
4.61441
4.89414
4.83237
5.14056
4.88688
5.21207
4.66075
4.85707
4.05328
3.75704
3.02731
2.00634
1.35437
0.00498872
-0.658146
-1.85177
-2.53577
-3.38268
-3.98316
-4.51095
-4.8853
-5.24361
3.84629
4.11196
4.08718
4.34873
4.24187
4.51921
4.22763
4.507
3.96681
4.11554
3.39707
3.12635
2.50678
1.66339
1.11849
-0.0117579
-0.542822
-1.5712
-2.1257
-2.8805
-3.38067
-3.87916
-4.19443
-4.56183
3.3671
3.62214
3.57499
3.82299
3.68334
3.93904
3.62717
3.87479
3.35847
3.47952
2.84118
2.60519
2.07643
1.3706
0.922041
-0.0265603
-0.449544
-1.33576
-1.7803
-2.45226
-2.86185
-3.32941
-3.58964
-3.9572
2.90041
3.14586
3.08171
3.31946
3.15737
3.39801
3.07921
3.30602
2.82016
2.92646
2.3623
2.16292
1.71295
1.12397
0.757636
-0.0396676
-0.372301
-1.13507
-1.48499
-2.08163
-2.40979
-2.84523
-3.05469
-3.41532
2.45
2.68643
2.60975
2.83927
2.66295
2.89301
2.57712
2.7905
2.33979
2.44026
1.94435
1.78199
1.40161
0.913689
0.61853
-0.0503915
-0.305924
-0.960233
-1.22801
-1.75507
-2.01004
-2.41196
-2.57472
-2.92229
2.01863
2.24559
2.16
2.3819
2.19812
2.42101
2.11419
2.31827
1.90611
2.00689
1.57438
1.44875
1.13106
0.731725
0.499622
-0.0579681
-0.24647
-0.803897
-0.999543
-1.46153
-1.65063
-2.01709
-2.13713
-2.46569
1.60895
1.82454
1.73328
1.9461
1.76151
1.97747
1.68547
1.88263
1.51103
1.6152
1.2423
1.15216
0.891764
0.571654
0.396516
-0.0622688
-0.191564
-0.660698
-0.792774
-1.19219
-1.32209
-1.65041
-1.73143
-2.0348
1.22137
1.42118
1.32777
1.52794
1.34866
1.55393
1.2845
1.47375
1.14611
1.25401
0.939211
0.882315
0.676022
0.428599
0.30546
-0.0627421
-0.139778
-0.525381
-0.601608
-0.938169
-1.01539
-1.30078
-1.34647
-1.61695
0.863854
1.04126
0.949865
1.13141
0.964154
1.15326
0.91447
1.09127
0.812155
0.919843
0.661274
0.631842
0.478839
0.299887
0.22394
-0.0592779
-0.0917305
-0.396314
-0.4256
-0.697715
-0.730115
-0.967065
-0.982251
-1.21136
0.512922
0.649346
0.570262
0.714225
0.577545
0.730934
0.54482
0.69128
0.481812
0.577636
0.391331
0.385873
0.288205
0.176843
0.142637
-0.0481705
-0.0460785
-0.25699
-0.250903
-0.442841
-0.440779
-0.61139
-0.603032
-0.770227
0.273477
0.370661
0.308906
0.415162
0.313203
0.429085
0.295355
0.406956
0.25818
0.328023
0.176361
0.153842
0.125547
0.0867024
0.0834722
-0.0349038
-0.0156937
-0.151428
-0.128633
-0.254712
-0.235963
-0.349999
-0.331334
-0.443359
-131.885
-248.017
-16.4355
-204.981
-386.283
-274.653
-164.084
-357.282
-392.541
-59.0851
-220.188
-342.952
35.513
-68.8204
-201.142
81.5777
199.683
193.717
33.3092
-51.6578
50.2556
184.045
13.8798
81.3546
-54.1624
-115.894
21.6604
-189.785
85.819
-229.1
-140.688
-63.7459
-95.9092
-185.232
-130.079
-182.711
-263.683
-219.33
-481.104
-390.93
-354.947
-213.67
-163.981
-88.6012
-151.429
-186.211
-198.369
-276.303
-290.637
-530.997
-539.182
-330.829
-217.452
-221.402
-45.0613
-57.3024
-141.023
-114.054
-136.988
-203.641
-354.061
-452.178
-210.053
-161.959
-207.66
-150.083
-242.971
-72.5971
-85.5886
-143.215
48.8548
-33.5909
70.3914
72.514
180.919
68.8586
48.9452
37.0641
-210.737
-116.92
-71.9952
-129.116
-226.837
94.942
-110.087
-383.346
-214.207
-156.106
-204.621
-373.509
-289.355
-268.073
-190.693
-277.847
-299.889
-235.333
-276.995
-533.381
-485.747
-352.891
-470.375
-527.866
-379.883
-466.17
-337.141
-212.763
-270.068
-191.883
-279.993
-218.345
-299.254
-284.396
-456.778
-526.614
-388.849
-523.997
-445.184
-531.367
-527.749
-394.339
-130.902
-60.3898
-212.618
-141.267
-249.761
-347.404
-275.546
-343.485
-248.546
-439.9
-350.233
-293.511
19.111
66.0526
-50.857
11.3729
-46.3849
-137.161
-235.907
-148.616
-142.909
114.469
128.479
71.1562
111.593
97.9925
56.3672
-48.0649
-97.0033
83.6177
-77.2864
227.538
3.86547
29.5993
-45.1061
-7.43224
8.34228
-51.2824
31.6618
-26.2343
21.9785
-24.0059
-67.5948
192.169
-64.6543
68.2893
-176.9
-121.152
-60.2623
-127.196
-100.372
-99.6709
-57.9955
60.2569
83.1232
-52.2582
-13.3912
-34.0838
-87.9877
-123.986
-136.08
-49.4074
86.0721
114.28
-37.5602
39.8544
-5.38195
307.667
197.536
123.922
118.618
195.776
309.4
-114.984
-78.5273
-124.861
204.122
-86.4394
-38.2732
-446.54
-437.701
-546.165
-544.945
-398.355
-406.202
-187.787
-155.53
-196.116
92.4444
39.7053
-27.6672
28.1579
4.54843
-200.333
-181.008
-246.942
-205.514
-250.425
-194.248
-193.753
-75.2447
-31.1415
-92.9034
-189.107
-315.448
-306.117
-291.531
-291.548
-255.944
-257.676
-511.984
-511.327
-506.291
-431.774
-408.767
-452.476
-437.758
-508.457
-428.262
-359.356
-319.824
-400.36
-370.632
-434.472
-255.083
-249.795
-300.524
-298.107
-495.919
-498.686
-496.022
-430.168
-448.101
-399.271
-422.923
-492.149
-539.769
-460.906
-455.751
-452.81
-460.387
-540.258
-104.768
-100.5
-105.074
-146.922
-58.2434
-99.5826
-90.4524
-182.7
-151.685
-172.382
-295.773
-302.982
-399.169
-361.964
-390.645
-320.679
-351.765
-392.762
31.3323
57.724
-22.7327
-14.3626
-52.5817
24.5034
-9.25563
-13.8369
-8.0067
26.9027
-85.1069
-88.3096
-35.156
-149.672
-95.0123
-98.4676
-93.7119
149.764
167.12
220.858
117.806
143.71
239.992
136.927
97.2627
432.269
34.6304
67.0886
37.7553
66.3283
98.5536
68.9528
115.968
88.6585
100.285
288.346
62.1613
15.7599
4.23456
78.8227
87.8348
254.665
169.402
164.905
92.593
104.361
145.354
144.719
220.662
468.186
324.795
222.576
266.756
346.964
477.712
-248.44
-207.136
-225.117
-470.598
-418.259
-412.993
-288.505
-242.489
-235.194
-245.804
-246.286
-290.449
-540.099
-541.166
-373.138
-433.445
119.315
105.024
16.5579
35.7691
79.8649
126.588
103.597
119.367
-0.427525
-51.813
178.895
-355.757
-386.475
-413.906
-283.69
-234.331
-168.197
-304.896
-252.252
-305.617
-282.574
-240.262
-247.27
-227.366
-239.823
-279.577
-285.011
-307.707
-298.924
-326.13
-324.812
-296.204
-296.191
-289.858
-268.682
-526.984
-496.848
-486.401
-455.492
-446.913
-490.959
-482.162
-521.068
-229.071
-214.96
-247.347
-270.744
-290.438
-308.821
-301.848
-331.224
-327.52
-312.912
-324.146
-291.177
-475.478
-516.291
-513.444
-476.25
-484.449
-432.634
-437.737
-464.069
-535.768
-497.792
-491.137
-489.167
-494.188
-535.645
-269.168
-279.871
-258.055
-356.618
-343.065
-328.661
-299.973
-277.113
-309.888
-233.095
-265.799
-286.817
40.6775
55.1084
28.7297
78.763
59.7305
47.234
163.925
172.61
90.2871
107.443
85.447
151.527
161.72
140.254
125.159
35.166
322.381
85.024
41.9328
5.7492
9.8945
43.8122
0.0666935
-2.69045
66.7231
59.8436
271.81
7.52902
28.2566
-82.9251
-74.5446
71.1136
76.3955
69.9943
75.8228
68.6935
87.6846
78.4324
72.7706
-34.7706
-28.7727
-56.7734
-64.4302
97.6256
102.684
90.9773
109.217
125.836
-185.07
-159.221
-80.8808
-239.271
-181.421
-208.302
-466.818
-419.236
-542.24
-545.409
-378.869
-427.314
-181.747
-177.765
-197.841
-151.116
-171.183
-173.296
-233.06
-254.374
-204.404
-224.96
70.7237
91.6542
110.784
50.9428
82.8797
64.4117
89.6259
54.3607
-225.47
-197.254
-219.436
-159.148
-188.708
-217.141
-245.711
-257.176
-225.544
-241.572
-145.925
-110.604
-149.067
-160.55
-175.517
-358.575
-378.65
-348.188
-359.651
-310.664
-257.404
-351.476
-324.856
-268.478
-306.187
-348.191
-317.551
-311.309
-285.555
-314.76
-321.336
-309.527
-310.646
-330.868
-329.347
-320.722
-327.604
-296.405
-322.9
-318.09
-279.741
-290.58
-261.004
-275.111
-300.74
-306.707
-293.062
-300.047
-267.495
-288.366
-281.422
-526.446
-496.978
-469.696
-457.252
-491.569
-518.95
-481.411
-470.924
-271.028
-285.298
-265.798
-295.11
-280.515
-315.294
-300.238
-256.887
-236.555
-275.082
-261.619
-332.184
-330.973
-300.461
-335.434
-339.162
-331.561
-336.745
-329.732
-316.922
-336.171
-332.512
-294.699
-326.475
-330.784
-480.617
-508.664
-460.795
-470.767
-507.919
-472.769
-443.768
-455.134
-500.458
-497.021
-538.243
-537.648
-497.731
-498.422
-122.309
-121.653
-118.242
-101.906
-141.09
-124.033
-129.988
-75.3957
-73.8615
-60.3036
-96.4357
-79.4356
-81.7528
-207.793
-190.935
-229.885
-213.448
-167.569
-163.16
-146.585
-185.553
-168.748
-175.447
-307.245
-287.839
-276.326
-289.409
-306.946
-260.612
-281.018
-312.911
-321.948
-335.635
-312.839
43.6758
49.9424
39.8041
66.2043
53.9776
47.52
68.4816
7.93041
34.347
13.0837
-126.799
-123.371
-144.329
-94.5398
-116.619
-118.761
-118.525
-126.436
176.829
196.635
132.167
147.12
179.541
147.265
-0.347052
-40.2534
4.82968
7.01393
49.1963
79.0489
631.138
471.634
399.594
470.31
527.208
648.758
67.6239
157.273
97.3995
-178.182
-202.812
-242.358
-476.888
-479.516
-484.523
-537.13
-539.199
-179.859
-157.743
-176.021
-454.068
-448.154
-446.591
-251.22
-229.991
-223.528
-178.847
-138.438
-171.227
-251.282
-237.222
-216.981
-245.397
-292.247
-256.94
-242.198
-267.271
-255.236
-529.32
-490.892
-495.566
-490.199
-511.652
-508.954
-524.858
-438.652
-429.932
-454.439
-239.014
-207.297
-188.415
-230.596
-247.449
-232.129
-462.088
-460.209
-456.479
-523.779
-520.795
-502.731
-506.03
-532.97
-516.175
-514.228
-509.64
-512.965
-531.766
-201.566
-210.254
-225.185
-422.601
-408.826
-421.037
-197.957
-188.262
-221.717
171.799
172.632
134.792
115.009
95.0388
171.748
172.126
91.4048
120.453
81.5344
-65.9787
-45.3035
-94.4606
-57.1085
-62.7281
-63.8559
-46.5091
-45.7137
-51.4019
-11.8505
-17.0605
-18.6808
-86.931
-80.3391
-80.7505
123.004
107.378
101.065
181.837
296.945
239.528
-137.518
-155.282
-134.379
-102.899
-255.525
-236.323
-55.2482
23.1531
39.0207
-458.843
-461.207
-453.809
-430.484
-445.284
-451.839
-550.098
-545.513
-406.02
-398.778
-391.14
-414.215
-420.482
-414.009
-195.33
-200.668
-154.149
-160.691
-161.256
-205.939
-211.377
-216.692
-222.619
-202.714
-209.148
-238.623
-239.5
-245.729
-182.451
-192.752
-214.669
-268.786
-274.338
-250.513
-253.642
-250.614
-53.0294
-99.3492
-130.238
-116.105
-108.363
-119.359
-173.247
-288.271
-277.509
-279.084
-270.695
-244.42
-278.432
-279.308
-515.381
-510.714
-397.728
-384.949
-408.811
-450.796
-420.445
-409.627
-237.661
-252.255
-266.015
-490.268
-500.594
-522.45
-522.262
-539.766
-541.548
-522.721
-522.472
-109.97
-110.762
-109.57
-103.774
-146.058
-140.767
-142.457
-188.802
-204.901
-192.964
-201.796
-196.659
-232.64
-228.431
-156.659
-156.76
-151.337
-191.952
-187.344
-385.982
-397.295
-416.658
-374.985
-363.252
-374.568
-29.8932
-29.0481
-19.0964
-50.6108
-39.6206
-35.4807
-65.0778
-68.8791
-87.4271
-41.1012
-55.7556
-57.5535
-142.747
-140.606
-147.318
-102.901
-94.8862
-145.589
198.71
201.083
213.091
144.03
131.958
142.746
128.538
157.279
146.728
137.705
222.141
185.983
117.195
134.777
118.238
208.744
393.999
117.792
81.4825
84.4753
201.197
210.084
238.433
95.7784
95.7857
91.0347
105.094
100.303
99.804
232.978
195.943
184.609
324.135
472.156
415.338
-475.308
-476.441
-473.603
-420.711
-422.567
-416.216
-434.866
-423.743
-540.423
-538.89
-380.197
-384.177
-364.324
-372.415
-439.85
-440.328
-433.808
112.229
117.82
125.167
106.31
112.008
106.486
-395.068
-393.275
-384.316
-409.645
-401.673
-404.802
-526.708
-493.59
-496.692
-497.09
-522.523
-506.716
-504.585
-469.513
-463.923
-469.01
-523.124
-495.246
-499.338
-518.145
-519.136
-517.462
-533.955
-534.42
-515.68
-517.5
-351.067
-351.663
-357.236
-340.048
-345.568
-346.664
174.324
176.854
163.54
167.291
155.499
161.959
157.93
147.736
139.471
134.985
142.209
146.658
130.268
134.628
130.239
18.8757
-3.20005
-13.9967
52.4717
265.936
224.557
298.256
106.596
139.339
188.726
20.157
18.6251
8.79234
38.0728
28.7125
30.5772
-17.2187
-15.2282
-24.9423
-0.643501
-9.14549
-8.74902
90.0273
105.986
47.6544
-52.8454
-84.7597
-9.2014
-16.6948
-89.4958
-69.6037
-68.4637
-75.5739
72.4516
74.1974
65.1398
67.9251
71.0365
-34.3409
-40.0867
-40.7199
-15.6957
-10.3329
-21.9741
-23.3268
-21.1365
-28.4646
-54.0761
-48.3199
-49.8402
-46.8699
-55.653
-32.4408
-39.6489
-72.7921
-72.5172
-64.1391
114.381
115.638
110.225
127.759
121.467
119.914
-192.934
-163.707
-159.633
-228.372
-236.631
-216.536
-462.843
-460.96
-467.286
-472.977
-443.299
-441.026
-454.313
-447.357
-546.831
-547.419
-397.924
-404.055
-388.199
-392.694
-384.684
-392.608
-387.142
-428.79
-424.247
-421.072
-413.331
-179.993
-189.045
-167.051
-167.259
-173.907
-241.109
-242.552
-233.906
-255.195
-250.457
-248.322
-211.152
-212.353
-206.084
-226.146
-217.747
-217.556
-218.464
61.2472
56.4124
46.5126
77.6364
65.7298
-215.361
-225.661
-233.248
-231.706
-220.741
-204.644
-214.645
-262.349
-264.608
-271.719
-267.649
-253.11
-250.844
-259.237
-147.532
-131.279
-142.403
-103.896
-183.791
-172.896
-163.888
-368.654
-351.203
-340.227
-374.076
-363.95
-378.093
-382.136
-369.887
-292.267
-294.704
-313.29
-278.561
-293.651
-275.897
-339.68
-325.917
-332.243
-336.382
-318.711
-321.936
-311.133
-314.467
-314.447
-313.04
-312.233
-329.799
-328.567
-321.937
-324.432
-285.337
-290.761
-284.74
-292.831
-292.048
-288.477
-264.848
-277.857
-275.249
-284.838
-281.148
-269.352
-281.387
-283.564
-302.136
-304.149
-303.031
-310.158
-306.833
-304.234
-295.737
-298.983
-295.57
-303.973
-304.059
-298.742
-519.895
-504.478
-290.871
-292.752
-295.22
-281.406
-288.069
-286.104
-310.696
-298.155
-302.135
-305.454
-250.794
-253.333
-260.136
-239.654
-245.979
-243.744
-270.251
-271.085
-275.552
-264.276
-267.313
-265.807
-336.056
-337.865
-334.525
-337.866
-324.295
-319.996
-333.337
-332.065
-484.742
-503.778
-539.87
-522.056
-520.742
-519.632
-521.506
-540.155
-115.384
-121.166
-115.493
-116.525
-137.069
-134.838
-127.883
-214.638
-207.677
-202.034
-207.397
-213.55
-224.295
-229.448
-234.177
-219.392
-224.294
-218.741
-225.03
-221.319
-168.594
-162.508
-161.897
-182.484
-174.699
-301.181
-296.578
-303.327
-282.82
-289.84
-295.073
-297.42
-302.45
-266.104
-266.587
-260.262
-273.686
-327.148
-325.383
-333.211
-309.956
-317.373
-319.867
46.3656
44.772
48.5891
36.9112
41.0608
43.3128
64.1541
59.8954
62.4201
52.5675
56.5823
58.3723
63.3866
5.6611
10.8939
-5.06578
0.510945
29.0941
27.2081
31.9018
16.4491
23.7048
22.7445
-125.485
-133.409
-135.011
-110.667
-134.986
181.242
187.308
137.834
144.809
134.929
153.367
148.19
142.214
152.868
159.581
168.981
155.284
49.0381
66.9122
52.5431
74.0419
83.7876
60.3183
82.0946
62.749
50.1602
52.4296
27.9678
27.5725
25.3171
36.9026
39.4674
45.5916
82.9473
71.5428
102.626
165.953
94.5254
165.298
87.1606
68.2157
62.2434
13.1055
23.4674
2.08042
-12.3838
-2.55725
6.06403
6.82806
32.2582
11.0432
39.8417
82.5876
98.3557
162.628
141.163
266.601
187.413
149.952
58.0351
25.3729
37.1791
-45.2793
-44.3187
-25.7032
-24.3321
-45.5861
-5.32246
-20.7866
-24.0102
-2.31235
4.31545
8.14875
37.6831
-114.67
-105.005
-51.0661
-125.65
-92.732
-67.5044
-48.4834
-80.2101
-57.1359
-80.6931
-99.4565
-84.7936
-161.14
-181.032
-166.391
-309.663
-242.691
-196.276
-186.914
-134.408
-116.233
-51.0588
-75.2939
-82.5377
-98.3553
-118.784
-120.011
-205.549
-228.325
-228.857
-361.808
-288.947
-281.331
-192.635
-146.124
-144.728
-32.9023
-40.1712
-68.2961
-69.4691
-80.471
-93.8332
-140.305
-152.047
-166.216
-276.489
-233.792
-261.038
-148.496
-124.675
-138.898
-6.67433
0.788597
-29.525
-32.5142
-31.9641
-46.6671
-139.478
-129.53
-170.275
-84.8762
-84.8338
-105.808
14.7091
27.8359
9.30183
-14.6387
-36.7973
-59.7755
-31.0124
-45.4115
-64.0833
25.3098
33.0545
29.6925
42.0371
62.4492
69.8683
78.4964
97.3176
114.763
128.784
130.876
138.866
35.5108
4.50215
-13.9793
-8.57001
-18.2903
-30.15
26.5585
32.8247
33.7874
38.4987
44.6451
57.5861
46.6043
48.3038
74.8764
46.0881
33.8722
44.7404
28.0867
13.6275
6.76708
3.93737
-5.30148
-10.5725
30.5725
34.1163
39.0419
32.6344
36.5081
42.0562
33.0036
24.6617
30.5838
21.2628
13.3185
14.5655
-149.358
-129.519
-114.003
-217.723
-242.939
-290.526
-0.942358
-39.1949
-50.0411
-227.417
-224.07
-201.842
-377.49
-418.598
-433.818
-304.327
-342.583
-298.127
-179.712
-192.177
-174.532
-369.955
-409.911
-386.981
-436.854
-443.066
-396.122
-61.3242
-76.0257
-72.7426
-238.35
-258.97
-229.208
-378.012
-351.221
-327.378
-86.8059
-84.4679
-65.1721
-210.24
-188.322
-181.499
116.217
105.902
70.5078
222.31
202.813
185.606
182.976
180.324
218.878
-46.3833
-27.791
-35.0312
108.242
164.372
92.1497
742.451
642.763
653.545
156.302
190.882
265.702
743.901
776.012
37.0821
60.158
34.1948
132.443
154.889
76.4508
-66.7898
-46.1007
-37.835
-61.8627
-53.3569
-79.8153
3.43773
-24.679
-41.4352
-156.443
-169.495
-227.38
108.707
62.893
47.3658
-181.311
-123.437
-144.95
-115.212
-122.572
-154.82
-58.7966
-89.7478
-89.3135
-117.209
-110.304
-89.7763
-171.051
-133.64
-141.782
-102.451
-120.504
-163.706
-203.822
-193.412
-172.712
-258.997
-245.468
-250.409
-205.049
-213.383
-226.326
-400.769
-410.026
-398.504
-279.697
-251.274
-324.215
-201.084
-230.287
-245.326
-184.325
-209.818
-184.541
-105.135
-113.645
-94.8093
-175.09
-136.368
-125.395
-144.915
-143.06
-180.711
-220.312
-225.471
-202.813
-281.457
-263.823
-259.413
-273.805
-274.145
-291.409
-271.404
-283.798
-357.078
-223.163
-255.087
-247.069
-254.485
-257.749
-224.747
-50.1885
-65.6971
-57.6354
-94.4874
-75.5307
-56.3219
-110.966
-94.0348
-106.875
-122.166
-137.286
-127.354
-166.249
-148.826
-124.881
-195.941
-187.345
-195.237
-360.881
-369.123
-360.789
-184.445
-220.55
-260.623
-179.305
-198.643
-177.288
-234.355
-217.955
-194.859
-163.109
-170.206
-150.165
-246.156
-239.54
-236.769
-85.7945
-109.734
-122.445
-104.433
-108.999
-86.5713
-154.625
-131.323
-123.828
38.7368
47.6016
58.4327
-30.4031
-16.7734
-20.7102
76.7864
91.32
75.9077
105.759
95.9505
78.8309
156.508
136.016
133.127
70.1966
82.8182
103.161
49.9399
73.2817
60.5103
83.0779
76.6137
47.4347
-201.18
-186.198
-196.139
-85.4346
-127.988
-165.847
-94.1508
-106.785
-80.9671
-149.109
-178.428
-150.919
63.8543
70.2128
109.03
-125.542
-101.138
-87.2248
-374.841
-384.406
-392.663
-223.896
-241.137
-231.338
-167.088
-204.467
-188.852
-233.757
-219.025
-192.237
-338.837
-323.765
-343.413
-287.549
-271.727
-273.117
-254.678
-258.715
-272.274
-197.245
-219.059
-212.283
-281.192
-287.457
-284.883
-309.349
-308.315
-297.898
-282.743
-280.213
-273.427
-390.675
-412.971
-366.344
-475.431
-468.584
-462.177
-402.141
-371.199
-356.044
-459.724
-453.308
-461.672
-318.906
-353.238
-382.765
-221.712
-212.713
-204.541
-254.106
-248.386
-262.974
-183.997
-203.364
-212.82
-277.928
-286.77
-290.629
-221.734
-226.757
-222.561
-301.177
-311.107
-310.041
-294.528
-297.614
-286.001
-432.859
-417.094
-380.609
-439.545
-441.933
-449.928
-396.759
-442.631
-437.206
-120.573
-122.243
-138.862
-60.9357
-70.8956
-70.1122
-208.041
-211.067
-216.424
-144.405
-160.999
-151.66
-255.904
-259.342
-252.841
-352.943
-346.311
-341.3
-301.402
-270.044
-257.153
-323.97
-316.246
-328.253
-243.38
-255.486
-261.267
-434.639
-429.781
-433.507
-340.219
-351.898
-368.981
-310.817
-341.322
-311.936
26.6223
30.0422
22.3012
70.349
63.9712
59.8155
-41.3002
-40.6819
-50.8891
14.2562
5.85404
3.25449
-59.3136
-57.7701
-44.0447
-143.434
-122.844
-124.154
-223.212
-219.088
-231.242
-143.484
-176.768
-186.115
-162.109
-166.92
-145.966
125.447
154.91
140.255
153.758
157.623
125.698
78.2407
83.0595
76.4654
85.2919
127.236
130.471
-52.3897
-21.9997
-22.159
-25.0697
-21.6431
-71.0761
51.5829
15.4284
2.1095
261.078
203.671
181.975
0.570746
-1.36117
14.2945
-37.1624
-18.6608
-10.0906
-4.54571
-17.9145
-19.7349
-15.9899
-15.3607
-0.790678
-47.3916
-30.911
-24.4588
23.1153
25.9382
35.1217
-25.1176
-17.5367
-18.3683
-2.31139
-17.5628
-3.34512
148.805
162.651
214.181
-100.63
-70.1009
-36.9156
-38.8291
-47.544
16.794
-145.658
-72.3746
-76.3978
-85.3913
-81.747
-124.982
-88.2656
-82.6154
-62.0874
-116.011
-91.1988
-97.8539
-86.5973
-91.3964
-106.8
63.8245
66.1347
63.0365
84.8203
81.3835
79.2866
-42.0729
-40.8633
-33.031
-125.203
-104.671
-105.242
-98.4244
-98.8258
-132.462
-59.5067
-88.1697
-85.9952
90.091
91.6602
88.0956
116.948
112.259
109.349
-1.51075
-19.1703
-40.3009
17.645
0.297839
9.52443
-19.5729
-10.5062
5.19139
267.32
317.301
422.24
189.425
278.497
244.995
209.099
278.858
181.07
145.207
179.775
148.052
248.5
291.811
189.994
427.6
333.05
271.811
-77.1584
-148.597
-118.427
82.5757
86.3735
139.817
-70.1359
-35.9218
-48.1618
3.83836
12.5819
-33.7996
-196.356
-176.79
-176.293
-203.44
-205.741
-199.213
84.6118
90.916
97.7427
43.6517
52.4339
47.9676
-4.57666
-12.2225
-26.5944
16.854
2.30013
3.35401
-8.03957
-3.14927
10.4025
-207.815
-186.24
-166.177
-206.19
-232.157
-214.034
-176.775
-160.412
-172.122
-58.7621
-80.9879
-95.2344
-60.5305
-71.3313
-41.6138
-329.066
-340.082
-327.87
-292.895
-305.937
-318.107
-299.739
-297.981
-288.889
-294.012
-302.526
-300.954
-263.346
-260.27
-251.379
-261.994
-268.77
-265.88
-490.569
-487.645
-503.493
-424.673
-444.075
-451.79
-428.491
-435.36
-416.979
-448.144
-470.317
-475.269
-458.491
-464.746
-443.448
-511.45
-495.891
-492.988
-417.31
-409.108
-421.553
-346.977
-366.178
-378.548
-338.726
-353.038
-334.02
-391.072
-410.787
-419.988
-390.089
-400.892
-381.393
-440.573
-429.911
-421.849
-260.113
-264.421
-258.066
-246.547
-250.963
-255.331
-311.485
-311.753
-299.819
-298.148
-309.175
-310.283
-478.523
-482.155
-499.403
-436.653
-460.216
-452.587
-473.323
-467.259
-442.879
-407.342
-424.891
-414.041
-444.2
-434.965
-415.472
-486.741
-470.298
-474.585
-460.065
-485.2
-486.511
-479.454
-482.833
-458.515
-456.293
-482.488
-478.529
-486.525
-485.258
-459.035
-101.833
-116.606
-110.267
-64.1242
-63.8981
-58.3107
-98.1373
-92.4736
-94.0212
-80.1593
-81.5024
-92.3733
-162.069
-166.682
-183.301
-299.666
-293.393
-289.714
-309.167
-312.684
-306.13
-393.95
-399.356
-405.144
-371.749
-384.751
-374.335
-404.628
-394.902
-381.534
-331.141
-341.427
-330.194
-363.522
-352.561
-341.621
-386.82
-381.081
-386.535
35.6323
37.7403
33.4445
60.1868
57.1253
54.6052
-21.2941
-30.8066
-31.9121
-19.5027
-20.6428
-15.3277
-53.0115
-47.2673
-46.8865
10.991
9.24207
17.8899
-9.42177
0.0870547
6.17003
-5.11995
-2.91859
-12.0158
-2.62073
-0.971347
-6.42544
28.7398
24.1027
22.4431
-84.5272
-71.1618
-72.0486
-80.7397
-80.3665
-87.6908
-35.9512
-43.9685
-42.9002
-94.739
-102.245
-102.529
-111.517
-111.032
-98.571
155.418
169.064
159.86
187.758
172.6
160.887
122.839
125.79
121.3
126.521
140.975
165.925
103.636
109.839
104.849
61.3351
48.5848
54.2914
27.9791
39.3125
57.9283
89.4139
78.5738
86.51
59.9797
69.5385
78.8794
108.725
117.107
126.849
93.8055
108.535
100.063
126.28
112.236
98.2166
43.3401
37.9753
49.3116
12.9604
25.8776
36.9614
15.3513
20.1461
8.1423
229.933
257.352
322.222
173.666
194.432
189.763
176.679
188.073
171.998
149.936
163.346
157.144
170.094
173.574
152.23
305.219
221.976
218.969
428.479
470.185
583.904
324.729
387.515
374.954
339.037
418.33
306.284
298.89
342.466
307.511
398.954
463.34
351.625
597.102
509.328
449.995
-234.41
-240.295
-253.999
-214.989
-226.828
-220.689
-236.909
-231.761
-218.229
-405.524
-418.342
-428.35
-270.397
-267.636
-285.548
-242.038
-255.689
-257.891
-248.284
-252.031
-237.024
-247.95
-261.348
-260.692
-260.006
-260.685
-245.387
-291.33
-273.597
-272.518
-381.902
-376.476
-367.399
23.5841
36.1035
28.1622
54.2709
44.4016
30.9588
68.6598
56.8328
67.0012
120.801
130.253
147.697
110.986
120.946
112.084
133.054
123.119
113.236
-7.11278
30.848
31.7343
36.7028
33.8005
-13.1138
127.872
82.3437
70.7431
-367.893
-376.373
-367.107
-265.808
-243.177
-259.874
-211.785
-226.68
-248.765
-179.467
-204.088
-192.012
-288.997
-306.503
-322.967
-269.254
-288.844
-271.961
-325.954
-306.078
-286.694
-267.759
-270.066
-285.277
-244.49
-256.878
-254.219
-260.149
-258.406
-244.025
-233.358
-245.192
-240.91
-251.852
-248.374
-234.709
-276.085
-262.096
-265.262
-291.948
-289.593
-281.89
-305.271
-297.601
-299.423
-293.514
-295.616
-301.743
-325.348
-314.074
-314.908
-312.714
-313.586
-325.267
-298.391
-307.678
-306.477
-293.762
-289.088
-291.374
-284.802
-286.973
-291.633
-272.407
-278.184
-275.754
-475.879
-471.883
-480.252
-448.954
-461.001
-465.781
-486.857
-501.287
-504.09
-496.313
-499.104
-486.404
-226.021
-238.067
-243.17
-225.642
-231.785
-219.039
-255.31
-242.01
-235.379
-277.917
-282.099
-273.134
-296.031
-288.472
-284.463
-296.758
-292.874
-302.968
-312.187
-311.613
-300.294
-331.003
-318.119
-318.519
-315.913
-317.138
-329.255
-316.652
-303.264
-300.131
-309.502
-306.532
-320.469
-290.03
-300.894
-303.368
-478.098
-494.137
-490.71
-500.622
-497.763
-483.139
-448.524
-442.938
-434.662
-456.755
-449.369
-454.771
-494.512
-509.801
-511.691
-506.159
-508.468
-494.858
-490.008
-506.527
-504.012
-510.722
-509.174
-494.14
-273.024
-266.186
-262.85
-271.909
-268.293
-275.48
-255.021
-261.411
-264.531
-335.012
-339.589
-333.243
-292.591
-304.858
-311.588
-288.151
-295.888
-284.314
-318.793
-307.337
-299.127
-242.935
-249.427
-238.236
-272.611
-260.899
-254.31
-274.028
-267.766