/*--------------------------------*- C++ -*----------------------------------*\
| =========                 |                                                 |
| \\      /  F ield         | OpenFOAM: The Open Source CFD Toolbox           |
|  \\    /   O peration     | Version:  5.x                                   |
|   \\  /    A nd           | Web:      www.OpenFOAM.org                      |
|    \\/     M anipulation  |                                                 |
\*---------------------------------------------------------------------------*/
FoamFile
{
    version     2.0;
    format      ascii;
    class       surfaceScalarField;
    location    "600";
    object      phi;
}
// * * * * * * * * * * * * * * * * * * * * * * * * * * * * * * * * * * * * * //

dimensions      [0 3 -1 0 0 0 0];

internalField   nonuniform List<scalar> 
13181
(
0.000418069
0.412034
0.000415042
0.412518
0.000377498
0.41253
0.00033509
0.412535
0.000260333
0.41259
-6.27208e-05
0.412816
-0.000259659
0.412696
-0.000282429
0.412524
-0.000221442
0.412438
-8.37128e-06
0.412286
0.000378118
0.412115
0.000866455
0.412011
0.00131491
0.412051
0.00158238
0.412234
0.00162115
0.41246
0.00147205
0.412648
0.00120636
0.412767
0.0008846
0.412821
0.000373971
0.413003
-6.33454e-05
0.412952
-0.000625669
0.413055
-0.000852028
0.412719
-0.000894038
0.412557
0.411533
0.000611551
0.41132
0.00166243
0.411467
0.00170362
0.412489
0.00170643
0.412532
0.00146408
0.412832
0.000629065
0.413651
-0.000473763
0.413799
-0.000813
0.412864
-0.000754321
0.41238
-0.000339913
0.20593
0.205941
0.000441384
0.205664
0.20567
0.00146945
0.205482
0.205501
0.00241681
0.20553
0.205573
0.00297614
0.205811
0.205863
0.00304689
0.206169
0.20622
0.0023906
0.413305
0.00139826
0.41376
0.000415384
0.413804
-0.00061545
0.414034
-0.000973219
0.41331
-0.000995382
0.413077
-0.00103448
0.412758
-3.7112e-05
0.41156
0.411331
-9.01427e-05
0.411244
8.50151e-05
0.411292
0.00101987
0.411554
0.000976211
0.412576
0.00107256
0.412736
0.00118133
0.413542
-0.000249599
0.41523
-0.00118912
0.413803
-0.000655006
0.412677
-0.000831652
0.205799
-0.000523075
0.205439
-0.000123475
0.000348353
-0.000176332
0.205135
0.000523273
-0.000904652
0.205168
0.00126685
-0.00157829
0.205578
0.00181174
-0.00193206
0.206172
0.00192906
0.00185925
0.207482
-0.00147486
-0.00198859
0.207427
0.000138677
0.41548
-0.000433668
0.414376
-0.000370813
0.413971
-0.000428694
0.413368
-0.000489524
0.413138
0.000303826
0.411965
0.000352254
0.411511
0.411421
-0.000328369
0.411346
-0.000412368
0.411376
-0.000377938
0.41152
0.000300547
0.411897
0.000165488
0.412871
0.000256202
0.413451
0.000138985
0.415347
-0.000701161
0.414643
-0.00125709
0.207681
-0.00135178
0.206904
0.205584
-0.00110751
-0.205734
0.204839
-0.000579603
-0.205164
0.000904253
8.91951e-05
0.204021
0.000550619
-0.204661
-0.0012796
0.203957
0.00198375
-0.204661
-0.00250753
0.205395
0.00244119
-0.205328
-0.00166693
0.207554
0.000708255
-0.206595
-7.4731e-05
0.207618
-6.19043e-05
0.00135863
0.20758
-0.000563914
-6.02827e-05
0.207166
0.00106641
0.414668
0.00069847
0.414339
0.000225304
0.413841
0.000751464
0.412612
0.000730253
0.411986
0.000503189
0.411738
0.411578
-0.000387328
0.411457
-0.000538411
0.411527
-0.000716249
0.411697
-0.000725415
0.411906
-0.000342026
0.412487
-0.000385014
0.413494
0.00123913
0.413723
0.00129793
0.206436
0.000798964
0.207349
0.208911
6.79451e-05
0.20593
-0.00110708
-0.205628
0.000805049
0.204799
-0.00149978
-0.204572
0.00127291
0.00083204
0.000302778
-0.203169
0.101005
0.10103
-0.00171843
0.00312185
-0.202989
0.100794
0.100791
-0.00356588
0.0019346
-0.206208
0.103645
0.104194
-0.00240209
0.207574
0.00245621
-0.207628
-0.00207776
0.207969
0.00208291
-0.207974
-0.00199182
0.207629
0.001943
0.00219445
0.415914
-0.00184543
-0.00159446
0.00131056
0.415223
0.00140993
0.413742
0.00118081
0.412841
0.00082777
0.412339
0.000578991
0.411987
0.411756
-0.000416002
0.411563
-0.000571674
0.411683
-0.000781945
0.411908
-0.00108955
0.412214
-0.00120937
0.412607
-0.00119581
0.413481
-0.00077133
0.414422
-0.00112307
0.206816
-0.00115042
0.207133
0.000610886
-0.208623
0.000878842
0.206201
0.00152578
-0.206345
-0.00138232
-0.102842
-0.000303946
0.103094
5.21124e-05
-0.100474
0.000440565
0.100589
-0.000554927
-0.0997874
-0.00104045
0.0992243
0.0016036
-0.103178
-0.00128981
0.101904
0.00256417
-0.00186947
0.00469256
-0.207888
-0.00204172
0.103362
0.103745
-0.00451585
0.208687
0.00387287
-0.208044
-0.00315803
-0.208094
0.208701
0.00255061
0.00279208
0.417534
-0.00230111
-0.00211123
0.00220463
0.41581
0.00171458
0.414232
0.00119155
0.413364
0.000844286
0.412686
0.000587209
0.412244
0.411925
-0.000431203
0.411671
-0.000592434
0.411844
-0.00078244
0.412098
-0.00105003
0.412482
-0.00145463
0.413012
-0.00178819
0.413814
-0.00119226
0.414991
-0.00116484
-0.20717
0.207551
-0.00157335
-0.207144
0.207744
-0.00265689
0.00205763
-0.206647
0.207681
0.00345287
-0.00210778
-0.00237858
-0.102558
0.00214927
0.102599
-0.00219063
-0.0501844
0.000729529
0.050021
-0.00056614
-0.000570585
-0.0476746
0.0474371
0.000808088
-0.00211096
-0.102738
0.00414142
-0.00148975
0.050511
0.0516863
-0.00471159
-0.104008
0.104556
0.00416409
-0.00623443
-0.209763
0.21107
0.00492695
-0.00386596
-0.2094
0.21026
0.00300541
0.00317736
0.418924
-0.00226117
-0.00230651
0.00232608
0.416662
0.00153908
0.415019
0.00102764
0.413875
0.000696115
0.413018
0.00047236
0.412468
0.41201
-0.000387141
0.411747
-0.000532402
0.411989
-0.000692798
0.412258
-0.000956442
0.412745
-0.0013082
0.413364
-0.00183047
0.414336
-0.00108212
0.415534
-0.00129189
-0.20794
0.208343
-0.00148475
-0.208517
0.209245
-0.00275427
0.00202622
-0.209105
0.210631
0.00379305
-0.0026085
-0.0027099
-0.104141
0.00379688
0.105011
-0.0046663
-0.0509348
0.00432593
0.051547
-0.00493811
-0.00648391
-0.0521906
0.0528129
0.00586165
-0.00658265
-0.106626
0.107615
0.00559428
-0.00723287
-0.212784
0.214468
0.00554877
-0.00429634
-0.211286
0.212196
0.00338678
0.00292027
0.420977
-0.00233718
-0.00263541
0.00162993
0.417952
0.0010392
0.41561
0.000659064
0.414255
0.000449057
0.413228
0.000345904
0.412571
0.412051
-0.000334771
0.411805
-0.000402023
0.412056
-0.000506657
0.412363
-0.000628484
0.412867
-0.000799139
0.413534
-0.00103778
0.414575
-0.000851428
0.415955
-0.000607083
-0.208377
0.208666
-0.00114036
-0.210103
0.210604
-0.00219521
0.00169408
-0.212063
0.213005
0.00284629
-0.00203997
-0.00174848
-0.107412
0.00297682
0.107997
-0.00356106
-0.0553015
0.00332089
0.0556435
-0.00366294
-0.00551917
-0.0573904
0.0578898
0.00501969
-0.00503517
-0.110393
0.111212
0.00421667
-0.00492386
-0.216049
0.217243
0.00372955
-0.00281917
-0.213004
0.213611
0.00221261
0.00194141
0.421831
-0.00113581
-0.00165983
0.000865076
0.419028
0.000297342
0.416177
0.000158341
0.414394
9.82765e-05
0.413288
8.23418e-05
0.412587
0.411963
-0.000241463
0.41182
-0.000291828
0.412107
-0.000308057
0.412379
-0.000336488
0.412896
-0.000291858
0.41349
-0.000211629
0.414495
-0.000147666
0.415781
0.000110289
-0.208915
0.209159
-0.00039162
-0.210851
0.210838
-0.000394643
0.000406896
-0.213424
0.213279
0.000311822
-0.000258393
9.20344e-05
-0.108886
0.000330269
0.10887
-0.000313847
-0.0567437
0.000216651
0.0567259
-0.000198815
-0.0011217
-0.0598647
0.0599231
0.00106325
-0.00107864
-0.112678
0.112826
0.000930903
-0.000765353
-0.217932
0.218044
0.000653363
-0.000568668
-0.213994
0.214112
0.000450565
0.000264649
0.421649
0.000208776
-0.000291368
0.000407616
0.418885
-0.000287448
0.416872
-0.000456609
0.414564
-0.000295193
0.413126
-0.000183642
0.412475
0.411785
-0.000168397
0.411821
-0.000162625
0.412101
-0.000123092
0.412339
-7.23567e-06
0.41278
0.00013171
0.413351
0.000506782
0.41412
0.000458995
0.415269
0.00055892
-0.209189
0.209129
0.00051829
-0.210588
0.210131
0.00128406
-0.00082684
-0.212631
0.211634
-0.00198063
0.00135782
0.00161977
-0.107994
-0.00204001
0.107493
0.00254074
-0.0554351
-0.00241348
0.0551407
0.00270784
0.00311405
-0.0587993
0.058482
-0.00279677
0.00292417
-0.112185
0.1117
-0.00243954
0.00329532
-0.217609
0.216741
-0.00242753
0.0017221
-0.213918
0.213489
-0.00129273
-0.00139014
0.420617
0.00139007
0.0010321
-0.000661765
0.418157
-0.000229119
0.41644
-0.00105436
0.415389
-0.00074715
0.412819
-0.000467478
0.412196
0.411523
-8.57352e-05
0.411799
-1.76716e-05
0.412033
7.37452e-05
0.412248
0.000242861
0.412611
0.000555713
0.413038
0.00109595
0.413579
0.000810052
0.414673
0.00088194
-0.208833
0.208521
0.00112243
-0.209561
0.208948
0.00218697
-0.00157438
-0.210431
0.209222
-0.00304975
0.0021169
0.00214236
-0.105726
-0.00303764
0.105126
0.00363804
-0.0528726
-0.00318988
0.0525545
0.00350791
0.00505583
-0.055736
0.0553241
-0.00464393
0.00516186
-0.10965
0.108886
-0.00439784
0.00583844
-0.215461
0.213947
-0.00432375
0.00329775
-0.212853
0.21211
-0.00255466
-0.00249867
0.418966
0.00215741
0.00199254
-0.00146461
0.417123
-0.000762302
0.415737
-0.000401209
0.415028
-0.00113973
0.413558
-0.000761561
0.411818
0.411177
-2.65988e-05
0.411768
5.96724e-05
0.411947
0.000170088
0.412138
0.000383286
0.412397
0.000690196
0.412731
0.00121763
0.413052
0.000982879
0.413947
0.000961333
-0.208176
0.207843
0.00131535
-0.208348
0.207826
0.00220557
-0.00168333
-0.208109
0.207215
-0.00288219
0.0019528
0.00182345
-0.103556
-0.00265009
0.10316
0.00304626
-0.0507101
-0.00242874
0.0505399
0.00259898
0.00473869
-0.0524213
0.0520447
-0.00436211
0.00517555
-0.10664
0.105987
-0.00452252
0.00610978
-0.2123
0.210935
-0.004745
0.00373406
-0.211345
0.210609
-0.00299773
-0.0029253
0.417276
0.00229873
0.00231595
-0.00181563
0.416013
-0.00103322
0.414955
-0.000843475
0.414838
-0.00130162
0.414016
-0.00101946
0.411535
0.410772
2.75313e-05
0.411718
8.90262e-05
0.411885
0.000211784
0.412015
0.000378519
0.412231
0.000632228
0.412477
0.000991663
0.412693
0.00142626
0.413512
0.00127953
0.414543
0.000814568
-0.20758
-0.207632
-0.207427
0.207188
0.00151818
-0.206581
0.207086
0.000966139
-0.00147151
-0.102778
0.000196936
0.104007
-0.00142526
-0.0511963
0.00210513
0.0504306
-0.00133937
-0.0200254
0.000726843
0.020125
-0.000826475
0.00177169
-0.0505402
0.101652
-0.00365083
0.0015308
-0.0507633
-0.104594
0.00363202
0.104385
-0.00342295
0.00467126
-0.209887
0.209093
-0.0038773
0.0032038
-0.210054
0.209845
-0.00299547
-0.00275979
0.415989
0.00191873
0.00212853
-0.00180011
0.415054
-0.00109115
0.414246
-0.00154502
0.415292
-0.00026883
0.41274
-0.00111428
0.412381
0.410449
1.06658e-05
0.411706
5.4748e-05
0.411841
0.000125296
0.411944
0.000219627
0.412136
0.000387656
0.412309
0.000507222
0.412573
5.61638e-05
0.413963
-0.000717027
0.417037
-0.00172057
-0.207724
0.208624
-0.00161717
-0.207731
0.206994
-0.000926207
0.00166348
-0.102727
-0.000242736
0.10262
0.000349969
-0.101399
0.000254413
0.101757
-0.000612823
-0.046057
0.00202061
0.0946104
-0.00271185
-0.0478621
-0.102949
0.00311377
0.102705
-0.00286941
-0.207507
0.00338711
0.207974
-0.00617501
0.00232092
0.00575206
-0.208652
0.208096
-0.00519575
-0.00652218
0.415529
0.0033242
0.00476616
-0.210518
-0.206579
-0.00520608
0.414673
-0.00420655
0.414054
-0.00329715
0.413337
-0.000773944
0.412769
-0.000273298
0.412239
0.00012769
0.41198
0.411514
-4.453e-06
0.411713
-9.05456e-06
0.411846
2.07296e-07
0.411935
3.61874e-05
0.4121
4.60263e-05
0.412299
-0.000154272
0.412773
-0.00140966
0.415219
-0.00173682
0.417389
-2.41774e-05
-0.208562
0.207345
-0.000518923
-0.206555
0.206636
-1.23328e-05
-6.84671e-05
-0.205881
0.206342
-0.000747168
0.000286304
-0.102549
0.000688049
0.102715
-0.000853765
-0.0959518
0.00140247
0.0963912
-0.00184184
-0.102674
0.00200909
0.20594
-0.00440933
-0.102792
0.0019263
-0.207562
0.00480809
0.207263
-0.00450944
-0.207748
0.00427696
0.207451
-0.00397974
-0.00497473
0.413797
0.00314812
0.00355868
-0.00359355
0.413292
-0.003055
0.413516
-0.00272639
0.413008
-0.00238721
0.412429
-0.00200649
0.411858
-0.00150083
0.411474
0.411064
-5.67022e-05
0.411766
-6.7968e-05
0.411857
-9.8576e-05
0.411966
-0.000140957
0.412143
-0.000233543
0.412392
-0.000841861
0.413382
-0.00171823
0.416095
-0.000536478
0.416207
-0.000330922
0.414658
-0.207356
-0.207062
-0.000445046
-0.206834
0.206979
-0.000476082
-0.206727
0.207051
-0.00103378
0.000709772
-0.206164
0.00142575
0.206489
-0.00175063
-0.197952
0.00226762
0.198637
-0.00295275
-0.206375
0.00323279
0.206516
-0.00337355
-0.207023
0.00334686
0.206905
-0.00322831
-0.207247
0.00314934
0.20709
-0.00299232
-0.00483733
0.413216
0.00264601
0.00277202
-0.00404682
0.412501
-0.00323653
0.412705
-0.00239905
0.412171
-0.00165025
0.411681
-0.00130072
0.411509
-0.00115782
0.411331
0.411043
-9.50802e-05
0.41184
-0.000157068
0.411919
-0.000246082
0.412055
-0.000335301
0.412232
-0.000602037
0.412659
-0.00169468
0.414474
-0.00177226
0.416173
-0.000942056
0.415377
-0.00130687
0.415023
-0.000946989
0.415027
-0.207155
-0.207194
-0.00103842
-0.207326
0.207567
-0.00118836
-0.206743
0.0015198
0.206759
-0.00153609
-0.199152
0.00197216
0.1997
-0.00252022
-0.206646
0.00242844
0.206766
-0.00254815
-0.0048617
0.413741
-0.206893
-0.206895
0.00237372
0.00253429
-0.00460709
0.413616
-0.206963
-0.206908
-0.00421462
0.412824
-0.00384078
0.412127
-0.00313519
0.412
-0.00251155
0.411547
-0.00198436
0.411153
-0.0015448
0.411069
-0.000951579
0.410738
0.411282
-0.000137329
0.411934
-0.000246489
0.412028
-0.000342212
0.41215
-0.000466857
0.412357
-0.000685014
0.412877
-0.00152833
0.415318
-0.00125372
0.415898
-0.00100808
0.415131
-0.00145861
0.415474
-0.00206315
0.415632
-0.00263751
0.416029
-0.207792
-0.207663
-0.00332641
0.409912
-0.206233
-0.20299
-0.00396422
0.406222
-0.200685
-0.204899
-0.00413215
0.414219
-0.206926
-0.207125
-0.00412327
0.413732
-0.00398154
0.413474
-0.00370515
0.412548
-0.00340617
0.411828
-0.00289494
0.411488
-0.0024437
0.411096
-0.00210833
0.410818
-0.00159918
0.41056
-0.00116674
0.410306
0.411335
-0.000180031
0.412043
-0.00028667
0.412135
-0.000427195
0.412291
-0.000576884
0.412506
-0.000798935
0.413099
-0.00130357
0.415822
-0.00117695
0.415771
-0.00115205
0.415106
-0.00149661
0.415818
-0.00194362
0.416079
-0.00235549
0.416441
-0.00283664
0.410393
-0.00328988
0.406675
-0.00348116
0.41441
-0.00355671
0.413808
-0.00347658
0.413394
-0.00328807
0.412359
-0.00304309
0.411583
-0.00267233
0.411118
-0.00230596
0.410729
-0.00197394
0.410486
-0.00158986
0.410176
-0.00122835
0.409944
0.411338
-0.000221029
0.412165
-0.000365528
0.412279
-0.000521952
0.412447
-0.000688125
0.412672
-0.00085756
0.413268
-0.00107782
0.416043
-0.00112725
0.415821
-0.00121833
0.415197
-0.00150745
0.416107
-0.00186485
0.416436
-0.00216973
0.416746
-0.00252393
0.410747
-0.00286598
0.407017
-0.00301797
0.414562
-0.00311421
0.413904
-0.00306367
0.413343
-0.00292851
0.412224
-0.0027498
0.411404
-0.00247413
0.410842
-0.00217539
0.410431
-0.00188126
0.410192
-0.00154856
0.409843
-0.00123239
0.409628
0.411334
-0.000259117
0.412297
-0.000414535
0.412435
-0.000558792
0.412592
-0.000734795
0.412848
-0.000911209
0.413445
-0.00101964
0.416151
-0.00115297
0.415954
-0.00138797
0.415432
-0.00149237
0.416212
-0.00178393
0.416728
-0.00202433
0.416987
-0.00228024
0.411003
-0.00253497
0.407272
-0.00266754
0.414695
-0.00274999
0.413986
-0.00272174
0.413315
-0.00262788
0.41213
-0.00250198
0.411279
-0.00225897
0.410599
-0.00205861
0.41023
-0.00176978
0.409903
-0.00150402
0.409577
-0.00125087
0.409375
0.411297
-0.000316361
0.412457
-0.000433764
0.412552
-0.000606636
0.412764
-0.000764843
0.413007
-0.000942647
0.413623
-0.00104728
0.416256
-0.00117899
0.416086
-0.00139007
0.415643
-0.00145549
0.416277
-0.00169566
0.416968
-0.00188846
0.417179
-0.00207823
0.411193
-0.00227222
0.407466
-0.00238223
0.414805
-0.00245392
0.414058
-0.00243678
0.413298
-0.00236779
0.412061
-0.00225065
0.411161
-0.00209408
0.410442
-0.00191388
0.41005
-0.00166574
0.409655
-0.00143787
0.40935
-0.00119813
0.409135
0.411291
-0.000325017
0.412598
-0.000491542
0.412719
-0.000644444
0.412917
-0.000803903
0.413166
-0.000979333
0.413798
-0.00105482
0.416331
-0.00118361
0.416215
-0.00137162
0.415831
-0.00152007
0.416426
-0.00161373
0.417062
-0.00176672
0.417332
-0.00190806
0.411334
-0.00205714
0.407615
-0.00214977
0.414897
-0.00221039
0.414119
-0.00220017
0.413288
-0.00214717
0.412008
-0.00205815
0.411072
-0.00191064
0.410295
-0.00176356
0.409903
-0.00159356
0.409485
-0.00139715
0.409153
-0.0012107
0.408949
0.411245
-0.000353029
0.412741
-0.00049853
0.412864
-0.000674092
0.413093
-0.000832282
0.413324
-0.000980486
0.413946
-0.00104793
0.416399
-0.00117621
0.416343
-0.00134286
0.415998
-0.00151687
0.4166
-0.00153131
0.417076
-0.00165844
0.41746
-0.00175372
0.41143
-0.00187997
0.407741
-0.0019442
0.414961
-0.00200478
0.414179
-0.00199943
0.413282
-0.00196287
0.411972
-0.00189682
0.411006
-0.00179535
0.410193
-0.00167447
0.409782
-0.00148692
0.409297
-0.00131674
0.408983
-0.00115633
0.408788
0.411222
-0.000378227
0.412884
-0.000523365
0.413009
-0.000674538
0.413244
-0.000829783
0.41348
-0.000994747
0.414111
-0.00105369
0.416457
-0.00115732
0.416447
-0.00130709
0.416148
-0.00146186
0.416754
-0.00171565
0.41733
-0.00175451
0.417498
-0.00179601
0.411471
-0.00185009
0.407795
-0.00190172
0.415013
-0.00193457
0.414212
-0.00192995
0.413278
-0.00191025
0.411952
-0.00187304
0.410969
-0.00183453
0.410155
-0.00162261
0.40957
-0.00145745
0.409132
-0.00128643
0.408812
-0.00112562
0.408627
0.411196
-0.000401076
0.413025
-0.000544422
0.413153
-0.000670003
0.41337
-0.000843862
0.413653
-0.000979708
0.414247
-0.00105279
0.416531
-0.00113539
0.416529
-0.00127019
0.416282
-0.00152043
0.417005
-0.00173665
0.417546
-0.00182921
0.417591
-0.00188989
0.411532
-0.00196769
0.407873
-0.00202631
0.415072
-0.00206002
0.414246
-0.00205526
0.413273
-0.0020293
0.411926
-0.00196178
0.410902
-0.00189244
0.410086
-0.00180693
0.409485
-0.00168101
0.409006
-0.00157152
0.408702
-0.00142868
0.408485
0.410831
-0.000421933
0.413164
-0.000562535
0.413293
-0.000706876
0.413514
-0.000830969
0.413777
-0.000960225
0.414376
-0.00102522
0.416596
-0.00111299
0.416617
-0.00134344
0.416513
-0.00155885
0.41722
-0.00167888
0.417666
-0.00175174
0.417664
-0.00179791
0.411578
-0.00186134
0.407936
-0.00190623
0.415117
-0.00193582
0.414276
-0.00193343
0.413271
-0.00191119
0.411904
-0.00187123
0.410862
-0.00179033
0.410005
-0.00171692
0.409411
-0.00162716
0.408917
-0.00150908
0.408584
-0.00140292
0.408378
0.410456
-0.000441209
0.413299
-0.000555768
0.413408
-0.000695764
0.413654
-0.00081513
0.413897
-0.00096048
0.414522
-0.00101813
0.416653
-0.00119587
0.416795
-0.00141777
0.416735
-0.00152208
0.417324
-0.0016236
0.417768
-0.00168918
0.417729
-0.00171986
0.411609
-0.00177028
0.407987
-0.00181033
0.415157
-0.00183494
0.4143
-0.00183239
0.413268
-0.00181256
0.411884
-0.001776
0.410825
-0.00172537
0.409954
-0.00163893
0.409325
-0.00153791
0.408816
-0.00147497
0.408521
-0.0013581
0.408262
0.410092
-0.000436534
0.413408
-0.000592465
0.413564
-0.000705228
0.413767
-0.000842528
0.414034
-0.000936622
0.414616
-0.00112336
0.41684
-0.00131316
0.416984
-0.00139499
0.416817
-0.00148957
0.417419
-0.00158013
0.417858
-0.00163178
0.417781
-0.00165433
0.411631
-0.00169223
0.408025
-0.00172654
0.415191
-0.00175181
0.414325
-0.0017466
0.413263
-0.00173072
0.411868
-0.00169598
0.41079
-0.00165157
0.40991
-0.00157212
0.409245
-0.00150189
0.408745
-0.00140241
0.408422
-0.0013167
0.408176
0.409735
-0.000475828
0.413534
-0.000582504
0.41367
-0.000690645
0.413875
-0.000823554
0.414167
-0.00107063
0.414863
-0.00136463
0.417134
-0.00129845
0.416918
-0.00137275
0.416891
-0.00145716
0.417503
-0.00154146
0.417942
-0.00158796
0.417828
-0.0016001
0.411643
-0.00163216
0.408057
-0.00166206
0.415221
-0.00167964
0.414343
-0.00167859
0.413262
-0.00166398
0.411853
-0.00162979
0.410756
-0.00156766
0.409848
-0.00153787
0.409215
-0.00145182
0.408659
-0.00138053
0.408351
-0.00130143
0.408097
0.409362
-0.000468616
0.413634
-0.000593989
0.413796
-0.000720057
0.414001
-0.000803881
0.414251
-0.0014989
0.415558
-0.0013352
0.41697
-0.00128794
0.416871
-0.00135641
0.416959
-0.0014343
0.417581
-0.0015097
0.418018
-0.00155037
0.417868
-0.00155624
0.411649
-0.00157976
0.40808
-0.00160847
0.41525
-0.00162603
0.414361
-0.00162202
0.413258
-0.00160829
0.41184
-0.00157604
0.410724
-0.00153967
0.409811
-0.00146878
0.409145
-0.00143216
0.408623
-0.00134244
0.408261
-0.00126804
0.408022
0.408992
-0.000505029
0.413751
-0.000581613
0.413872
-0.000703098
0.414122
-0.00119167
0.414739
-0.00151958
0.415886
-0.00135253
0.416803
-0.00127718
0.416796
-0.00134156
0.417024
-0.00141388
0.417653
-0.0014848
0.418089
-0.00151851
0.417902
-0.00152209
0.411653
-0.00154309
0.408101
-0.00156693
0.415273
-0.00158271
0.414376
-0.00158033
0.413256
-0.00156735
0.411827
-0.00153375
0.41069
-0.00150017
0.409778
-0.00145359
0.409098
-0.00137599
0.408545
-0.00131073
0.408196
-0.00121724
0.407929
0.408645
-0.000494132
0.413839
-0.000613167
0.413991
-0.000707474
0.414217
-0.00130771
0.41534
-0.0014724
0.41605
-0.00132625
0.416657
-0.00127077
0.41674
-0.00133071
0.417084
-0.00139801
0.417721
-0.00146605
0.418157
-0.00149841
0.417934
-0.00149729
0.411652
-0.00151482
0.408119
-0.00153631
0.415295
-0.00155118
0.414391
-0.00154763
0.413252
-0.0015357
0.411815
-0.00150194
0.410657
-0.00147088
0.409747
-0.00142484
0.409052
-0.00137251
0.408493
-0.00128546
0.408109
-0.00121622
0.40786
0.408275
-0.000502149
0.413922
-0.000597871
0.414087
-0.000686876
0.414306
-0.0011524
0.415805
-0.00140197
0.4163
-0.00134813
0.416603
-0.00126387
0.416656
-0.00132735
0.417147
-0.00138893
0.417782
-0.00145493
0.418223
-0.00148355
0.417963
-0.00148223
0.41165
-0.00149703
0.408134
-0.00151865
0.415316
-0.00153404
0.414407
-0.00152575
0.413244
-0.00151849
0.411807
-0.00150296
0.410641
-0.00145269
0.409696
-0.00140521
0.409004
-0.00133381
0.408421
-0.00128963
0.408064
-0.00120026
0.40777
0.407902
-0.000530007
-0.000625906
-0.000687383
-0.000928572
-0.00108209
-0.00134898
-0.0012611
-0.00132456
-0.00137735
-0.00144469
-0.00147102
-0.001475
-0.00148822
-0.00150565
-0.00152073
-0.0015122
-0.00150728
-0.00146685
-0.00144201
-0.00139228
-0.00134608
-0.00125501
-0.00121192
0.00366879
-0.00405744
-0.0549128
0.0576746
0.00592993
-0.0570488
-0.00322664
-0.00332914
-0.05174
-0.00717449
0.0524306
0.000626833
-0.000649332
-0.0567212
0.0603901
0.00172736
-0.0602609
-0.000866586
-0.000989956
0.0582266
-0.00298987
-0.00308125
-0.00217571
0.00245526
-0.0557146
0.0591318
-0.00269754
-0.0594781
0.00156633
0.00147753
0.0604569
-0.000532267
-0.000656293
-0.00319044
0.00351131
-0.0531934
0.0557364
-0.004967
-0.0561909
0.00542152
0.0587604
0.00178197
0.0017034
-0.00257535
0.00278854
-0.0509233
0.052132
-0.00489567
-0.0525589
0.00532262
0.00553823
0.055254
0.00221225
-0.00294084
-0.0504677
-0.000814048
0.0216338
0.00051454
-0.0108171
-0.0105171
-0.00102799
-0.00942505
-0.0103864
0.050177
-0.00260542
-0.0501262
0.00255466
0.00509343
0.0517772
0.00409603
-0.00456764
-0.0504632
-0.0474075
-3.16752e-05
0.0468686
0.00600077
-0.0511534
-0.00658734
-0.0500957
-0.00237048
0.0503552
0.00346887
-0.004204
-0.106677
0.0550602
-0.0547139
0.00332252
-0.0514201
0.00385166
0.0518943
0.013896
0.00557639
-0.0274354
0.0139524
-0.00296109
-0.00302829
0.00501558
-0.0241838
-0.00544348
0.0246117
0.00537237
-0.0568328
0.111061
0.00575968
-0.109952
-0.00686821
-0.106369
-0.00775564
0.107542
0.00103986
-0.00117645
-0.10875
0.0564142
-0.0563898
0.000602436
0.00300455
0.0553765
0.0563771
0.00222433
-0.00242135
-0.0561801
0.02888
-0.000773882
-0.0288207
0.00143749
-0.00072283
-0.0283886
-0.00246974
0.00237348
0.0284848
0.0148461
0.00048128
-0.0152278
-9.95843e-05
-0.0148758
0.0023308
-0.00255886
0.0151038
0.00160987
-0.0597472
0.113754
0.00217806
-0.113405
-0.00252781
-0.00601931
0.112045
-0.00155002
0.0019705
-0.108415
0.0552944
-0.0555444
-0.00192566
0.000219347
0.0564115
0.0563994
-0.000946061
0.00109323
-0.0565466
0.0294105
0.000620135
-0.029494
-0.000899183
0.000362502
-0.0294673
-0.000119759
0.000140009
0.0294531
-6.05016e-06
0.013923
2.13988e-05
-0.0138985
-4.58188e-05
-0.0139293
5.40051e-05
0.0139481
-7.2776e-05
-0.00240552
-0.0590913
0.113014
-0.00201478
-0.113493
0.00249373
-0.00121148
0.113887
-0.00294223
0.00354989
-0.106334
0.0529464
-0.0532448
-0.002892
-0.00214918
0.0550301
0.0541802
-0.00292939
0.00325977
-0.0545106
0.00228045
0.0272704
-0.0273879
-0.00216292
-0.0282457
0.000987083
-0.00183006
0.0280787
0.00101001
0.0154111
-0.00196259
-0.015788
0.00233948
-0.0146066
-0.000411758
6.86494e-05
0.0149497
-0.00452137
-0.0561816
0.109902
-0.00474451
-0.110808
0.00565088
0.00353984
0.112399
0.0266244
-0.00367312
-0.0267642
0.00192195
0.00189089
-0.0139612
-0.00180271
0.00184294
0.013921
-0.00450596
-0.052811
0.106334
-0.0053482
-0.107171
0.00618613
0.00607251
0.108991
0.024252
-0.00266659
-0.0243595
0.00277413
-0.025359
-0.00336127
0.00351601
0.0252043
3.82935e-06
-0.000419212
-0.100984
-0.00107614
0.0475049
-0.0471175
0.00068869
0.000537933
0.0218227
-0.00163296
-0.0455002
-0.00338781
0.10256
-0.102962
0.00378933
0.00157768
0.050371
-0.00253754
-0.028342
0.00249093
-0.00366374
-0.0271173
0.00342841
0.0273527
-0.0534237
0.00443369
0.0539623
-0.00497222
-0.0271885
0.0274616
-0.0019871
-0.00194978
0.0284554
-0.0285337
-0.00124354
-0.00121574
0.00368106
-0.0244352
0.0247653
-0.00401114
0.00377461
-0.00401869
-0.0269444
0.00207198
-0.0149699
-0.00197792
0.00277968
-0.00286109
0.0139774
-0.0548898
0.00681469
-0.00757586
0.055651
-0.0276869
-0.00274597
0.0280325
0.00517999
0.0149345
0.00207261
-0.0149351
-6.58946e-05
-0.0294859
0.000278266
-0.000193767
-0.000786379
0.00138193
0.0291143
-0.000829863
0.00182764
0.0565369
-0.00198742
-0.0143794
0.0144995
-0.000906421
0.0150346
-8.87169e-05
-0.0150118
0.0143073
0.0143164
-0.00126261
-0.00137531
-0.000791961
-0.0143614
-2.07098e-05
-0.0140059
9.73287e-05
0.000770219
-0.000302301
0.0143782
-0.0594991
0.00347941
0.0598142
-0.0018407
-0.00195376
-0.0149831
0.0146961
0.00105721
0.0152922
0.000102831
-0.0154157
0.0151061
0.00215916
0.000818552
-0.0153204
0.00403497
-0.0591374
-0.00214229
-0.0022544
0.000997165
-0.0284047
-0.0017474
0.00090921
0.000585373
-0.00111216
0.029121
0.000816253
-0.00128887
0.056197
0.00149132
-0.0152201
0.0150338
0.000771669
0.0142698
0.00107626
-0.0143489
0.0149838
-6.89353e-05
0.00059513
-0.0151951
-0.000703364
-0.0141954
0.000292226
-1.13076e-05
0.013936
-1.74325e-06
-0.0602465
-0.00122267
0.0600431
0.000766829
0.000659224
-0.0152974
0.0153773
-9.11943e-05
0.0147768
-0.000957845
-0.0145223
0.0152297
0.000116447
-6.808e-05
-0.015208
-0.00066697
-0.0603847
0.000458908
0.000346271
-0.0272708
-0.00229496
0.0271972
0.00114956
0.00121899
0.0262958
-0.00235648
0.00245583
-0.0263951
0.0141487
0.00110824
-0.0273587
0.00118884
0.00117945
-0.00186507
-0.0140499
0.00195376
-0.00214086
0.00270242
0.0148496
-0.0575261
-0.00438367
0.0570851
0.00242821
0.00239652
-0.0151855
0.0148566
-0.00181195
0.0278844
0.00184114
-0.00346223
-0.0281284
0.0150777
-0.00071269
-0.00173068
-0.0154174
-0.0041303
-0.0579543
0.00230627
0.00225224
-0.0254313
-0.00210161
0.0253402
0.00219266
0.0247963
-0.00176343
0.00183509
-0.0248679
-0.00235154
0.0262294
0.00241797
-0.00214454
0.00224935
-0.0255361
-0.00339927
-0.0255312
0.00357139
-0.00366971
0.0264496
0.00193871
0.00190585
0.00178671
0.0277547
-0.00345976
0.0267005
-0.00351857
-0.026855
0.0538935
-0.00525032
-0.054334
0.00569078
-0.0242787
-0.00107678
0.0242278
0.0011277
0.0243918
1.76615e-05
7.9072e-06
-0.0244174
-0.00169072
0.0247163
0.00177069
-0.00119619
0.00123305
-0.0243156
0.0242527
-0.000855087
-0.0245808
0.00118313
-0.0025429
0.00265819
0.0241367
0.0045267
-0.0051264
-0.052824
-0.0268723
0.00352959
-0.0247857
0.00343436
0.0250324
0.0129329
0.00385442
-0.0169717
0.000184418
0.00352164
-0.0112134
-0.00374832
0.01144
-0.00282725
0.00329465
-0.104023
0.0509355
-0.0511316
-0.00237922
-0.0028941
0.0526506
0.0516725
-0.00304649
0.00332249
-0.0519485
0.0255096
-0.0256036
-0.00205054
-0.0263424
-0.00225556
0.0262464
0.0123309
-0.00197034
-0.0125131
0.00215252
-0.0127486
-0.00212801
0.00229269
0.012584
-0.00258486
-0.0505608
-0.00411962
0.103949
-0.10437
0.00454086
0.00594146
0.105568
-0.0113406
0.00270902
0.0116595
-0.00302801
0.0133166
0.00300551
-0.0030045
-0.0133176
-0.0246265
0.024973
0.00466905
0.00525477
-0.0273653
0.00687557
-0.0540563
-0.00770901
-0.0264559
-0.00224294
-0.00218943
0.0271648
-0.00304195
0.0538507
0.00337142
-0.0118235
-0.000204845
0.0120755
-4.70754e-05
0.012744
-0.000678191
0.000218924
-0.0122848
-0.0123483
-0.00118303
0.0122583
0.00127311
0.0124405
-0.00118317
0.00126379
-0.0125212
-0.000493801
0.0131307
0.000107125
-0.0014269
0.0125894
0.00122679
-0.0123892
-0.0019718
-0.0125845
0.00180765
-0.00259095
-0.0118563
0.0022755
0.0121718
-0.00519801
0.00565925
0.0534323
0.0265426
-0.00351187
0.0254954
-0.00324295
-0.0256517
-0.00110691
0.0122538
0.00129365
0.0120833
-0.000920228
0.000936792
-0.0120999
0.0253464
-0.00321233
0.024452
-0.00258024
-0.0245384
0.0507618
-0.00396889
-0.0510779
0.004285
0.000183719
-0.0238527
0.000261688
0.0234073
0.00195065
-0.0487701
0.0243059
0.0236897
-0.000722881
-0.000453272
0.00337957
-0.00366273
-0.0241521
0.00462439
-0.0238376
-0.00497052
0.00360128
-0.0476948
-0.00161446
-0.00220794
0.0235275
0.0243884
-0.0245881
0.024229
0.000542725
0.00353213
0.00936859
3.21627e-05
-0.0260632
0.00573985
0.0265471
-0.00309626
-0.00312751
-0.0134536
0.0130122
0.00397346
-0.0113848
0.0115541
0.00335237
0.00404651
-0.0136457
0.00567442
-0.0256017
-0.00613587
-0.0151686
0.00287062
-0.00388649
0.0161845
0.00249878
-0.0148005
-0.00286695
-0.0138436
-3.71785e-05
0.0137847
9.61068e-05
-2.3219e-05
-0.0138585
3.80389e-05
-0.0146419
-0.00223966
0.00267146
0.0142101
-0.00261104
-0.0156704
0.00363947
-0.0136524
-0.00361312
0.0272034
-0.0137179
0.00193937
0.00184067
0.0139322
-0.00141371
-0.0124747
-4.38224e-05
-0.00183289
-0.0137014
0.00188186
0.0117551
-0.00158508
-0.0117514
0.00158131
-0.00192259
0.00206075
0.0121927
-0.0126603
0.0125583
-0.00202603
0.0122365
-0.00186244
-0.0123444
0.0247465
-0.00308271
-0.0248964
0.00323256
0.00124599
-0.0127429
0.0115037
-6.75584e-06
0.0280494
0.00324786
-0.0278654
-0.00172064
-0.00171125
0.0114981
-0.0123543
0.000914823
-5.86305e-05
-0.0139533
0.00202159
0.0131777
0.00253039
0.00896551
2.24195e-06
0.00314868
0.0283515
-0.00175794
-0.00169283
-0.00165777