/*--------------------------------*- C++ -*----------------------------------*\
| =========                 |                                                 |
| \\      /  F ield         | OpenFOAM: The Open Source CFD Toolbox           |
|  \\    /   O peration     | Version:  5.x                                   |
|   \\  /    A nd           | Web:      www.OpenFOAM.org                      |
|    \\/     M anipulation  |                                                 |
\*---------------------------------------------------------------------------*/
FoamFile
{
    version     2.0;
    format      ascii;
    class       volVectorField;
    location    "600";
    object      U;
}
// * * * * * * * * * * * * * * * * * * * * * * * * * * * * * * * * * * * * * //

dimensions      [0 1 -1 0 0 0 0];

internalField   nonuniform List<vector> 
6584
(
(45.0025 -0.00672793 1.59966e-25)
(45.0019 -0.0148537 7.77715e-24)
(45.0024 -0.0203278 7.22194e-29)
(45.0025 -0.0278906 -1.41561e-23)
(45.0029 -0.0359933 0)
(45.0029 -0.0449451 0)
(45.0026 -0.0538239 0)
(45.0008 -0.0593888 1.49752e-23)
(44.9979 -0.0589936 1.49719e-23)
(44.9932 -0.0460313 0)
(44.9882 -0.0121599 4.57748e-24)
(44.9847 0.0403585 -1.02744e-23)
(44.9858 0.0986819 -4.49241e-25)
(44.9913 0.143366 1.10504e-24)
(44.9976 0.162567 3.02742e-25)
(45.0043 0.156914 3.91789e-23)
(45.0073 0.137283 3.47506e-23)
(45.0082 0.113027 2.82789e-24)
(45.0076 0.0887006 2.3884e-23)
(45.0066 0.067295 1.70777e-23)
(45.0053 0.0499033 0)
(45.0046 0.0350203 0)
(45.0034 0.0247133 2.50848e-23)
(45.0042 0.0109312 1.53253e-23)
(45.0105 -0.0140995 -7.58169e-24)
(45.0091 -0.0298439 -2.94518e-23)
(45.0112 -0.0400446 -3.98715e-23)
(45.0123 -0.0553003 0)
(45.0141 -0.0716656 -5.64256e-24)
(45.0144 -0.0902752 -4.58823e-23)
(45.0127 -0.109747 -2.82861e-23)
(45.0041 -0.123176 4.80455e-23)
(44.9918 -0.12516 -3.13282e-24)
(44.9594 -0.10126 -9.70974e-24)
(44.9209 -0.0323284 -2.71187e-27)
(44.8963 0.0783763 0)
(44.9036 0.203169 2.3994e-23)
(44.9415 0.297358 1.25455e-23)
(44.9908 0.337046 -8.81613e-23)
(45.0234 0.322881 -2.3363e-23)
(45.0364 0.278384 -5.3368e-23)
(45.0402 0.226502 -6.94598e-23)
(45.0371 0.175818 -1.76422e-22)
(45.0316 0.132344 -1.44469e-22)
(45.0255 0.0978518 -1.01894e-23)
(45.0213 0.0682305 -4.2328e-24)
(45.0165 0.0491185 0)
(45.0174 0.0226515 1.34223e-23)
(45.0231 -0.0215365 -1.91104e-23)
(45.0223 -0.0439515 0)
(45.027 -0.0580552 -8.01173e-24)
(45.0306 -0.080976 -5.19279e-23)
(45.0355 -0.106082 -8.04363e-23)
(45.0377 -0.136221 0)
(45.0347 -0.171264 0)
(45.0159 -0.197972 -1.18766e-23)
(44.98 -0.227102 -5.90039e-24)
(44.9253 -0.151571 4.32593e-24)
(44.8608 -0.0673933 -7.64487e-24)
(44.8113 0.0776821 -1.07952e-23)
(44.8191 0.253748 0)
(44.8873 0.390926 0)
(44.9738 0.451813 1.2855e-24)
(45.0603 0.517933 -9.68368e-23)
(45.0955 0.427875 0)
(45.1031 0.339559 -3.18972e-23)
(45.0933 0.257771 0)
(45.0779 0.190848 -2.34994e-23)
(45.0624 0.139914 -6.13516e-23)
(45.0508 0.0965293 -3.61507e-23)
(45.0399 0.0705903 0)
(45.0379 0.033785 1.04106e-23)
(45.0384 -0.0283086 -1.1643e-23)
(45.0399 -0.055918 0)
(45.0482 -0.0730341 -1.07512e-23)
(45.0564 -0.103097 0)
(45.0671 -0.136996 0)
(45.0752 -0.180965 0)
(45.0746 -0.237629 -2.59481e-23)
(45.0503 -0.293135 1.57394e-22)
(44.9829 -0.365576 -1.16518e-23)
(44.8774 -0.288095 1.27151e-23)
(44.7363 -0.190396 -8.03209e-24)
(44.5952 0.0426125 1.52401e-24)
(44.5859 0.380279 2.04327e-24)
(44.7474 0.642152 0)
(44.9485 0.71625 -1.44624e-22)
(45.0901 0.64944 0)
(45.2081 0.584126 0)
(45.2031 0.450138 2.22075e-22)
(45.1776 0.329261 1.43363e-22)
(45.1432 0.237822 -4.72505e-23)
(45.1129 0.172026 -3.23763e-23)
(45.0896 0.117038 0)
(45.0702 0.0864666 1.53273e-23)
(45.0621 0.0427817 1.22475e-23)
(45.0553 -0.0336865 -4.45309e-24)
(45.0605 -0.0644635 -2.69222e-25)
(45.0738 -0.0832632 -1.28308e-24)
(45.0892 -0.119108 -2.01254e-24)
(45.1092 -0.160371 2.11194e-24)
(45.1314 -0.218878 1.14223e-22)
(45.1425 -0.301755 -2.13103e-22)
(45.1363 -0.39514 1.88311e-22)
(45.004 -0.435815 1.00189e-23)
(44.865 -0.490256 5.77334e-23)
(44.5891 -0.432131 -9.46792e-24)
(44.2053 -0.088543 1.04469e-23)
(44.1298 0.566591 -2.2352e-24)
(44.5377 1.0517 2.07839e-22)
(44.9753 1.10088 0)
(45.2204 0.922314 1.40024e-22)
(45.2957 0.689853 -3.01412e-23)
(45.3441 0.520803 -1.73187e-22)
(45.29 0.378736 -9.75547e-23)
(45.2251 0.264541 4.13928e-23)
(45.1742 0.18926 -2.14386e-24)
(45.1344 0.126385 -1.15626e-24)
(45.1044 0.0942275 1.73322e-23)
(45.0873 0.0482022 -6.39321e-24)
(45.0725 -0.0369711 2.17653e-24)
(45.0827 -0.0683301 -5.86167e-24)
(45.1018 -0.0867762 -2.15016e-25)
(45.1272 -0.125598 0)
(45.1602 -0.169412 -2.57144e-23)
(45.2048 -0.23947 -1.68387e-23)
(45.2399 -0.327385 -8.57379e-23)
(45.2023 -0.430662 -1.7876e-23)
(45.1278 -0.585541 7.33635e-23)
(44.9778 -0.795208 3.28148e-22)
(44.4612 -0.817499 7.21e-23)
(43.7223 -0.484495 1.13804e-26)
(43.3743 0.714597 -3.34154e-24)
(44.2555 1.63302 2.9545e-23)
(45.1717 1.67615 -3.15792e-22)
(45.4997 1.23471 0)
(45.5331 0.86269 1.8835e-26)
(45.5272 0.554326 3.08599e-23)
(45.4248 0.394576 7.09864e-24)
(45.3189 0.263643 4.80959e-23)
(45.2417 0.186591 -1.70066e-23)
(45.1814 0.121474 0)
(45.1393 0.0916634 -8.77748e-24)
(45.1108 0.0487346 -1.18848e-23)
(45.0883 -0.0376333 9.69181e-27)
(45.1044 -0.0666759 -2.86977e-24)
(45.1295 -0.0822109 3.49254e-24)
(45.1661 -0.120071 1.08341e-24)
(45.2143 -0.159442 1.30747e-24)
(45.2861 -0.233655 -3.76866e-23)
(45.3582 -0.316277 -5.34191e-23)
(45.3513 -0.459758 -8.74493e-25)
(45.3775 -0.699854 -1.04905e-23)
(45.3265 -1.10008 5.26098e-23)
(44.73 -1.54546 0)
(43.1059 -1.70056 4.9291e-23)
(41.1213 0.987443 1.91348e-24)
(44.1455 3.31214 1.41579e-22)
(45.5982 2.33192 -5.65089e-25)
(46.0117 1.47883 0)
(45.8798 0.933746 9.66322e-23)
(45.7428 0.512889 2.23081e-23)
(45.5706 0.359494 1.84229e-23)
(45.4157 0.227256 -4.70265e-24)
(45.308 0.159777 -3.68377e-23)
(45.225 0.100154 0)
(45.1705 0.0773016 -7.88514e-24)
(45.1292 0.0434046 -6.97363e-24)
(45.1013 -0.0354835 -2.48088e-24)
(45.1229 -0.0594462 2.23078e-24)
(45.1532 -0.0694604 1.08943e-24)
(45.2004 -0.101756 4.0302e-25)
(45.263 -0.128616 -1.96956e-24)
(45.3608 -0.193537 1.87392e-23)
(45.4757 -0.248518 6.53394e-27)
(45.5332 -0.405855 -1.09168e-23)
(45.7093 -0.66132 8.26301e-27)
(45.9415 -1.14021 -1.27701e-22)
(45.8231 -2.08587 -7.02603e-24)
(44.9464 -4.44419 2.59178e-24)
(46.0352 5.83548 2.53376e-23)
(46.9154 2.82196 -2.50572e-23)
(46.7493 1.44369 5.35303e-23)
(46.3046 0.826515 -1.11095e-23)
(45.954 0.371932 3.60617e-23)
(45.7037 0.26237 3.70816e-23)
(45.5002 0.151544 2.5084e-23)
(45.3631 0.107321 -1.05642e-23)
(45.2588 0.0621988 0)
(45.1932 0.0509889 0)
(45.1393 0.0318579 -1.21819e-28)
(45.11 -0.0308038 -4.11883e-25)
(45.1362 -0.0476251 -2.11084e-26)
(45.1696 -0.0501856 -1.59443e-25)
(45.2239 -0.0728299 1.93685e-24)
(45.2961 -0.080588 3.0539e-24)
(45.41 -0.122468 1.19444e-23)
(45.5565 -0.130176 3.3054e-23)
(45.689 -0.256307 0)
(46.0019 -0.413398 0)
(46.5349 -0.701205 0)
(47.2126 -1.47016 -4.19948e-24)
(48.7434 -3.27405 6.61297e-25)
(50.6835 4.91573 0)
(48.6164 2.07303 0)
(47.4494 0.934175 0)
(46.6825 0.49182 1.06144e-23)
(46.1044 0.138686 0)
(45.7923 0.107583 -3.92113e-23)
(45.5548 0.0419288 -2.61813e-23)
(45.3962 0.0327663 -2.37035e-24)
(45.2761 0.0103374 0)
(45.203 0.014374 3.11249e-25)
(45.1384 0.0145699 -1.46055e-25)
(45.1139 -0.0243546 6.16389e-26)
(45.1428 -0.0332067 -1.02604e-25)
(45.1764 -0.0278235 1.05835e-25)
(45.2325 -0.0388205 5.34014e-25)
(45.3061 -0.0255719 -1.2415e-24)
(45.4197 -0.0373194 -7.44698e-26)
(45.5721 0.00537639 -4.30637e-24)
(45.7533 -0.0505689 -1.34103e-25)
(46.1056 -0.038225 0)
(46.7196 0.0152439 -1.17095e-23)
(47.745 -0.0679467 1.89384e-29)
(49.8934 -0.171978 -1.60918e-24)
(52.7568 0.966537 -4.20982e-24)
(49.5138 0.325123 -1.51553e-23)
(47.7546 0.0738285 -1.16386e-22)
(46.8613 -0.00430798 0)
(46.1462 -0.138813 -7.57841e-23)
(45.8109 -0.0800549 0)
(45.5657 -0.0857814 -3.43453e-25)
(45.3992 -0.0548025 0)
(45.2723 -0.0496066 4.76218e-25)
(45.1969 -0.0290557 -1.94305e-25)
(45.1251 -0.0071046 -2.11973e-24)
(45.1134 -0.0172159 0)
(45.1425 -0.0187291 -4.16091e-25)
(45.1735 -0.00663617 -2.9226e-25)
(45.2258 -0.00686495 -1.29445e-24)
(45.2925 0.0235289 1.75343e-24)
(45.3899 0.0390691 7.6144e-24)
(45.5211 0.117475 2.01107e-23)
(45.7032 0.139226 6.80476e-24)
(45.9828 0.299555 0)
(46.4264 0.628124 5.55854e-23)
(47.2349 1.1677 1.5941e-23)
(48.6501 2.48463 -9.30421e-25)
(51.7299 -2.94088 -1.84355e-24)
(49.1706 -1.45186 2.5632e-23)
(47.5455 -0.791403 4.98727e-24)
(46.776 -0.507662 6.74156e-23)
(46.0672 -0.395638 3.36409e-22)
(45.7547 -0.264132 1.87359e-22)
(45.5293 -0.21006 -1.26625e-22)
(45.3698 -0.143174 -8.99569e-23)
(45.2463 -0.110078 6.58745e-24)
(45.1741 -0.074633 2.90513e-24)
(45.0995 -0.0311875 -6.52901e-24)
(45.1095 -0.0105051 1.06647e-25)
(45.1368 -0.00655153 7.43031e-25)
(45.1631 0.00967804 1.07715e-24)
(45.2076 0.0169748 -8.08559e-25)
(45.2618 0.0566663 -2.37497e-32)
(45.3342 0.0888655 1.09969e-23)
(45.4281 0.179456 3.14481e-23)
(45.5705 0.254895 5.6391e-24)
(45.718 0.478687 0)
(45.88 0.892192 -1.78607e-23)
(46.1853 1.65113 -4.2673e-24)
(46.3804 3.23981 -1.88406e-24)
(49.0609 -4.78405 -5.48882e-25)
(47.9835 -2.49784 0)
(46.9774 -1.36775 -1.04479e-22)
(46.481 -0.877252 8.46902e-23)
(45.8956 -0.582921 4.78548e-22)
(45.6398 -0.412102 3.16605e-22)
(45.453 -0.312252 0)
(45.3128 -0.220824 -7.93016e-23)
(45.2007 -0.164055 -4.361e-23)
(45.1361 -0.117666 4.13181e-24)
(45.0632 -0.0555056 -5.01325e-24)
(45.1037 -0.00509499 0)
(45.1277 0.00179165 1.32447e-25)
(45.1487 0.0191287 -1.49964e-25)
(45.184 0.0297139 -4.04314e-25)
(45.2241 0.0702616 0)
(45.2715 0.106327 -1.11055e-24)
(45.3271 0.18822 5.83314e-24)
(45.4129 0.280428 -1.27339e-26)
(45.442 0.479843 2.30562e-24)
(45.3738 0.803194 8.27311e-24)
(45.2386 1.39642 1.58197e-24)
(44.5082 2.46201 0)
(46.2402 -4.62693 -8.57196e-25)
(46.6298 -2.63881 8.35228e-24)
(46.3178 -1.55821 4.89123e-23)
(46.0973 -1.0525 6.04823e-24)
(45.6817 -0.683258 2.08306e-22)
(45.4947 -0.506908 2.22784e-22)
(45.3518 -0.382188 0)
(45.2371 -0.280073 -1.19888e-24)
(45.1411 -0.206596 1.84184e-23)
(45.0866 -0.154615 1.00508e-23)
(45.0188 -0.0781394 3.59923e-25)
(45.0977 -0.00146627 0)
(45.1178 0.00579941 0)
(45.1339 0.0216145 0)
(45.1608 0.031622 0)
(45.1892 0.0664847 2.40012e-25)
(45.2179 0.0962822 6.36708e-25)
(45.2461 0.155259 -1.34723e-23)
(45.252 0.235783 9.82076e-23)
(45.2484 0.364016 0)
(45.0772 0.527444 0)
(44.7852 0.766833 1.65296e-23)
(43.8142 0.863608 9.47969e-23)
(34.6098 -1.35876 -1.91898e-24)
(44.6219 -2.78895 -1.8293e-22)
(45.664 -2.16676 -3.42886e-23)
(45.7833 -1.45269 -2.41152e-25)
(45.7364 -1.05895 -1.35133e-24)
(45.4711 -0.708156 -5.6178e-23)
(45.3468 -0.548985 9.09003e-24)
(45.2423 -0.419109 1.54785e-25)
(45.1528 -0.318346 -8.08783e-23)
(45.0741 -0.235915 0)
(45.0299 -0.183454 3.70733e-24)
(44.9696 -0.0977556 -1.00245e-23)
(45.0928 0.000294125 0)
(45.1092 0.00585758 -1.10365e-24)
(45.1216 0.0184469 -1.01525e-25)
(45.1421 0.0252953 0)
(45.1629 0.0513262 0)
(45.1812 0.0701669 -3.07225e-23)
(45.1963 0.107162 1.22105e-23)
(45.1939 0.144024 1.50847e-22)
(45.1542 0.216568 1.45739e-22)
(45.0133 0.249866 1.27558e-22)
(44.7719 0.252842 0)
(44.3044 -0.0852502 -7.65606e-24)
(40.9894 -1.0968 1.55693e-23)
(44.5637 -1.63851 -1.75298e-23)
(45.2043 -1.46076 1.69605e-23)
(45.4503 -1.21469 -1.78389e-23)
(45.3682 -0.868136 3.25599e-23)
(45.2937 -0.680478 -6.39635e-24)
(45.2135 -0.547723 -5.06505e-27)
(45.1367 -0.428412 -1.62822e-25)
(45.0694 -0.337544 0)
(45.0056 -0.252579 -3.49259e-23)
(44.971 -0.203753 -4.21433e-23)
(44.9185 -0.113667 -1.29818e-23)
(45.0899 0.00037876 1.13217e-27)
(45.1031 0.00285057 -6.33177e-25)
(45.1133 0.0114762 2.39554e-24)
(45.1299 0.0139321 1.81976e-28)
(45.1469 0.0304845 -6.73086e-24)
(45.1614 0.038008 -2.02146e-23)
(45.1748 0.0540775 -1.07639e-22)
(45.1729 0.0651486 -1.98084e-22)
(45.137 0.0869726 -3.03771e-23)
(45.0582 0.0495847 -5.59054e-24)
(44.9504 -0.0759292 0)
(44.7397 -0.314677 -5.20143e-24)
(41.8835 -0.844586 -2.46081e-23)
(44.8182 -1.02459 -5.9136e-24)
(45.1028 -1.08849 -5.30121e-24)
(45.2716 -0.982586 -9.29718e-24)
(45.2194 -0.760846 -1.49154e-22)
(45.1609 -0.631481 0)
(45.1034 -0.522694 -2.38273e-23)
(45.0429 -0.419449 -7.97786e-24)
(44.9912 -0.341373 -1.1665e-24)
(44.9394 -0.258618 6.74465e-24)
(44.9126 -0.215791 0)
(44.8683 -0.125677 0)
(45.0894 -0.000876541 4.04189e-26)
(45.1002 -0.00219846 1.6148e-25)
(45.1095 0.00245609 4.85173e-25)
(45.1242 0.00033297 0)
(45.1407 0.00812094 -1.60577e-24)
(45.1558 0.00639333 0)
(45.174 0.00466538 -2.15995e-24)
(45.1831 0.000369022 -2.09558e-23)
(45.189 -0.0430939 7.64883e-25)
(45.136 -0.0675984 -4.01412e-24)
(45.1213 -0.192468 1.82032e-23)
(44.9851 -0.418578 -2.09933e-23)
(43.2091 -0.688113 -3.12076e-23)
(44.9338 -0.796973 3.39722e-24)
(45.0935 -0.8391 1.41041e-23)
(45.1788 -0.796777 4.94347e-24)
(45.1101 -0.659932 -7.2377e-23)
(45.0628 -0.567574 8.08147e-23)
(45.0145 -0.484693 0)
(44.9636 -0.398656 3.00228e-23)
(44.9219 -0.334574 -3.08044e-24)
(44.8787 -0.256839 7.71619e-24)
(44.8574 -0.221221 0)
(44.8202 -0.134146 0)
(45.0914 -0.00309871 -1.84907e-25)
(45.1006 -0.00834987 1.96609e-25)
(45.1101 -0.0072093 -1.23337e-24)
(45.1242 -0.0134115 -1.75234e-24)
(45.1423 -0.0128314 0)
(45.1607 -0.0210653 0)
(45.1862 -0.0337542 9.94335e-23)
(45.2107 -0.0495918 -1.38769e-23)
(45.2368 -0.0948267 9.02523e-24)
(45.2394 -0.157803 -3.7556e-23)
(45.2417 -0.239689 0)
(45.0714 -0.386449 6.62777e-24)
(43.4731 -0.604645 -6.47697e-23)
(45.0381 -0.615085 1.80468e-23)
(45.1105 -0.620519 4.86365e-23)
(45.1087 -0.598146 1.07819e-22)
(45.0454 -0.566497 6.5562e-23)
(44.9946 -0.499397 6.84544e-23)
(44.9456 -0.442047 -1.05155e-23)
(44.8987 -0.371263 -6.75407e-24)
(44.8622 -0.320941 -1.51375e-23)
(44.8247 -0.249629 -5.49101e-23)
(44.807 -0.221407 3.31349e-25)
(44.7758 -0.139471 -2.8594e-24)
(45.0957 -0.00594536 -1.00624e-24)
(45.1039 -0.0148618 2.08093e-25)
(45.1142 -0.0165551 -1.1925e-24)
(45.1288 -0.0260251 -2.76321e-24)
(45.1496 -0.0308406 0)
(45.172 -0.0430461 0)
(45.205 -0.06188 9.03539e-23)
(45.2411 -0.081043 7.43971e-25)
(45.2888 -0.129703 -1.09541e-23)
(45.3011 -0.162701 -4.69714e-23)
(45.3469 -0.28685 0)
(44.6559 -0.251356 -8.17932e-23)
(44.2586 -0.505393 1.11542e-23)
(45.1581 -0.445778 9.25884e-24)
(45.1122 -0.534695 1.0706e-23)
(45.0962 -0.502197 -2.70448e-23)
(45.0102 -0.491736 -2.08101e-23)
(44.9478 -0.439853 1.18035e-23)
(44.8934 -0.401075 -3.03013e-24)
(44.8466 -0.341833 -5.27281e-23)
(44.8118 -0.303793 -1.69569e-23)
(44.7779 -0.239144 -7.15748e-23)
(44.7619 -0.217791 0)
(44.7356 -0.142236 -1.02497e-23)
(45.102 -0.00914066 -9.0075e-25)
(45.1096 -0.0212268 -9.35544e-25)
(45.1211 -0.0250485 0)
(45.1367 -0.0369338 -1.9863e-24)
(45.1604 -0.0456126 0)
(45.1867 -0.05972 -5.94939e-23)
(45.2265 -0.0824415 -5.2328e-24)
(45.2701 -0.0999603 9.78422e-24)
(45.3321 -0.152043 -1.08802e-23)
(45.354 -0.166978 -1.32908e-23)
(45.3922 -0.284923 -1.22964e-23)
(44.7255 -0.239087 -7.56008e-23)
(44.3221 -0.430591 3.08127e-23)
(45.1797 -0.372273 -9.2761e-24)
(45.1249 -0.46221 -5.87328e-24)
(45.0883 -0.424979 -1.87271e-24)
(44.9853 -0.431185 -1.19674e-23)
(44.9137 -0.388049 -1.29255e-23)
(44.8533 -0.363526 -2.95649e-23)
(44.805 -0.312857 -7.2026e-24)
(44.7697 -0.285339 -4.52411e-24)
(44.7377 -0.226966 -2.3485e-23)
(44.7223 -0.21166 -1.01185e-23)
(44.6998 -0.142987 -4.57414e-24)
(45.1099 -0.0124828 0)
(45.1173 -0.0271396 -1.95704e-24)
(45.1301 -0.0324635 -9.46058e-25)
(45.1468 -0.0459702 -1.39478e-24)
(45.1734 -0.057352 5.98519e-24)
(45.203 -0.0717895 -6.27098e-23)
(45.2485 -0.097147 0)
(45.2977 -0.110956 -1.3833e-23)
(45.3684 -0.164464 0)
(45.3993 -0.16636 0)
(45.4338 -0.273999 -1.6848e-25)
(44.7785 -0.222746 -2.64109e-25)
(44.3728 -0.377013 1.24541e-23)
(45.2031 -0.318801 -6.74739e-24)
(45.1386 -0.404118 -3.78298e-24)
(45.0837 -0.364377 -2.14118e-24)
(44.9681 -0.381604 2.15993e-24)
(44.8885 -0.343083 -5.61851e-24)
(44.8223 -0.329905 -7.88127e-24)
(44.7715 -0.285514 1.36045e-23)
(44.7346 -0.266862 -4.54438e-24)
(44.7036 -0.214156 0)
(44.6879 -0.203994 2.01797e-28)
(44.6682 -0.142199 0)
(45.1189 -0.0158357 0)
(45.1265 -0.0324421 -2.3201e-24)
(45.1406 -0.0387596 -1.32172e-24)
(45.1583 -0.0531926 2.90215e-24)
(45.1875 -0.06643 0)
(45.2198 -0.0801105 2.12632e-24)
(45.2698 -0.107193 -4.03069e-23)
(45.3234 -0.116581 -2.63744e-23)
(45.3993 -0.170084 -8.1695e-25)
(45.4366 -0.162203 6.70655e-26)
(45.4668 -0.260484 1.79157e-23)
(44.8143 -0.206784 -1.05624e-23)
(44.4081 -0.335147 1.75775e-23)
(45.2227 -0.277831 -5.0061e-24)
(45.1504 -0.357974 5.7571e-24)
(45.0815 -0.316302 -4.89368e-25)
(44.9566 -0.340799 -5.08466e-24)
(44.8699 -0.30458 3.63511e-24)
(44.798 -0.300373 1.04156e-23)
(44.7447 -0.26043 -1.98929e-28)
(44.7055 -0.249149 -2.18239e-24)
(44.6748 -0.201409 -1.47955e-23)
(44.6581 -0.195507 7.62751e-24)
(44.6406 -0.140266 7.08576e-24)
(45.1288 -0.0191174 -1.25821e-24)
(45.1366 -0.0370827 -2.56803e-24)
(45.1518 -0.0440116 -3.00329e-32)
(45.1705 -0.0587922 6.18992e-24)
(45.2021 -0.0732781 1.46918e-23)
(45.2364 -0.0855291 1.38915e-24)
(45.2899 -0.1137 -3.85717e-23)
(45.3467 -0.118652 -2.32434e-23)
(45.4255 -0.171477 1.31294e-23)
(45.4671 -0.156526 0)
(45.4922 -0.246619 3.56142e-24)
(44.8401 -0.19198 -3.40751e-24)
(44.434 -0.30147 5.53261e-24)
(45.238 -0.24533 -3.9102e-24)
(45.1602 -0.320509 -1.78867e-29)
(45.0805 -0.277577 -7.1923e-24)
(44.9486 -0.307013 -4.20797e-24)
(44.8558 -0.271834 -8.95576e-25)
(44.779 -0.274705 5.61695e-24)
(44.723 -0.237856 -8.29089e-24)
(44.6812 -0.232638 -1.244e-23)
(44.6505 -0.189162 -6.26548e-24)
(44.6326 -0.186724 -6.57496e-24)
(44.6166 -0.137507 6.18839e-24)
(45.1392 -0.0222829 -1.20326e-32)
(45.1472 -0.0410813 -1.35968e-24)
(45.1636 -0.0483484 1.48996e-24)
(45.183 -0.0630204 3.17044e-24)
(45.2165 -0.0783296 8.39623e-28)
(45.2524 -0.0887816 0)
(45.3084 -0.117616 -5.04411e-25)
(45.3675 -0.118469 -2.08224e-23)
(45.4479 -0.170223 1.11829e-23)
(45.4924 -0.150191 0)
(45.5125 -0.233142 -9.14121e-29)
(44.8594 -0.178467 2.62189e-24)
(44.4539 -0.274027 -6.02791e-24)
(45.2504 -0.219145 0)
(45.1684 -0.289742 8.7794e-25)
(45.0802 -0.246101 2.01003e-24)
(44.9431 -0.278873 0)
(44.8449 -0.244044 1.73782e-24)
(44.7639 -0.252515 1.86174e-24)
(44.7054 -0.217795 -2.06518e-23)
(44.661 -0.217526 -5.20778e-24)
(44.6299 -0.177663 5.31588e-24)
(44.6107 -0.177992 -6.72423e-24)
(44.5957 -0.134174 0)
(45.1498 -0.0253182 1.36112e-24)
(45.1582 -0.0444973 -1.39679e-24)
(45.1754 -0.0519213 0)
(45.1955 -0.0661373 8.02351e-25)
(45.2306 -0.0819765 1.86646e-24)
(45.2676 -0.0904711 4.42745e-25)
(45.3254 -0.119672 0)
(45.3862 -0.116905 -1.93088e-25)
(45.4672 -0.167368 9.25578e-24)
(45.5136 -0.143726 0)
(45.5289 -0.220542 2.38832e-24)
(44.8739 -0.166294 1.21802e-24)
(44.4693 -0.251336 -4.13527e-24)
(45.2606 -0.197783 6.47247e-25)
(45.1753 -0.264293 -1.30231e-24)
(45.0802 -0.220337 -2.07987e-26)
(44.939 -0.255319 1.46347e-24)
(44.8364 -0.220493 -5.4935e-25)
(44.7517 -0.233392 -7.68452e-27)
(44.6909 -0.200125 -7.48403e-24)
(44.6441 -0.203876 2.70482e-24)
(44.6125 -0.16704 3.21073e-24)
(44.5919 -0.169551 -1.02865e-24)
(44.5776 -0.130462 -4.46707e-25)
(45.1605 -0.0282251 -9.1971e-26)
(45.1692 -0.0474107 -1.68364e-24)
(45.1872 -0.0548772 -1.87857e-25)
(45.2078 -0.0683847 0)
(45.244 -0.0845573 2.71492e-23)
(45.2819 -0.0910751 0)
(45.3408 -0.12043 -1.54669e-23)
(45.403 -0.114558 0)
(45.484 -0.16363 7.84844e-24)
(45.5315 -0.137493 3.69959e-24)
(45.5421 -0.209024 0)
(44.8846 -0.155521 9.87904e-25)
(44.4813 -0.232438 0)
(45.2689 -0.180233 5.3013e-25)
(45.1811 -0.243082 -3.62201e-25)
(45.0804 -0.199135 0)
(44.9361 -0.235529 0)
(44.8296 -0.200574 -4.41848e-25)
(44.7418 -0.216953 6.41753e-25)
(44.6789 -0.184687 0)
(44.6298 -0.191662 0)
(44.5976 -0.15734 2.5416e-24)
(44.5757 -0.161544 4.87728e-25)
(44.5618 -0.126523 -2.06765e-24)
(45.1712 -0.031015 8.79932e-26)
(45.1801 -0.0499063 7.97943e-26)
(45.1986 -0.0573514 0)
(45.2196 -0.0699765 -2.06574e-25)
(45.2568 -0.0863508 1.31111e-23)
(45.2952 -0.0909615 -1.62472e-26)
(45.3549 -0.120322 -1.4086e-23)
(45.4179 -0.111846 -3.3776e-25)
(45.4986 -0.159512 0)
(45.5467 -0.131644 4.3034e-24)
(45.5526 -0.198659 0)
(44.8923 -0.146189 0)
(44.491 -0.216597 0)
(45.2758 -0.165678 3.63315e-24)
(45.1859 -0.225286 4.54396e-24)
(45.0807 -0.181641 0)
(44.9338 -0.218869 -1.47092e-25)
(44.8239 -0.183782 0)
(44.7336 -0.202858 0)
(44.6689 -0.17129 0)
(44.6176 -0.180815 0)
(44.5848 -0.148585 -2.16681e-24)
(44.5616 -0.154061 -1.81651e-24)
(44.5479 -0.122488 2.6306e-29)
(45.1815 -0.0337021 0)
(45.1907 -0.0520634 6.78281e-25)
(45.2097 -0.0594593 -9.71613e-25)
(45.231 -0.0710883 1.44312e-24)
(45.2688 -0.0875817 1.23108e-23)
(45.3077 -0.0904075 2.50869e-23)
(45.3677 -0.119675 0)
(45.4314 -0.109058 0)
(45.5115 -0.155355 7.9727e-25)
(45.5599 -0.126317 -9.3123e-25)
(45.5613 -0.1895 -1.4398e-31)
(44.8978 -0.138148 4.03564e-24)
(44.4986 -0.203186 6.5762e-24)
(45.2816 -0.153529 3.02144e-24)
(45.1899 -0.210395 1.25893e-25)
(45.0809 -0.167156 0)
(44.9319 -0.204836 -3.57526e-24)
(44.8192 -0.169631 -4.13731e-24)
(44.7267 -0.190797 0)
(44.6603 -0.159714 -4.00579e-24)
(44.6072 -0.171254 -3.55939e-39)
(44.5737 -0.140728 5.34609e-24)
(44.5494 -0.147158 3.34258e-24)
(44.5356 -0.118442 2.60351e-24)
(45.1916 -0.0362982 -1.36938e-24)
(45.2009 -0.0539494 5.96756e-25)
(45.2203 -0.0612906 -6.77052e-25)
(45.2418 -0.0718626 2.75777e-24)
(45.2801 -0.0884265 1.14311e-23)
(45.3193 -0.0896209 4.67903e-23)
(45.3795 -0.118736 0)
(45.4436 -0.106374 0)
(45.5229 -0.151371 7.07992e-25)
(45.5714 -0.121593 0)
(45.5685 -0.181501 0)
(44.9018 -0.131297 0)
(44.5047 -0.191856 0)
(45.2866 -0.14343 -2.50071e-24)
(45.1933 -0.197944 -3.05284e-24)
(45.0811 -0.155179 -2.98026e-24)
(44.9304 -0.193045 -5.78296e-24)
(44.8152 -0.157759 -3.476e-24)
(44.7208 -0.180525 0)
(44.6528 -0.149781 -9.88431e-25)
(44.5981 -0.162895 0)
(44.5639 -0.133736 0)
(44.5385 -0.140865 1.51837e-24)
(44.5246 -0.114456 9.59047e-25)
(45.2012 -0.0388089 -1.19916e-24)
(45.2108 -0.0556182 -7.11145e-25)
(45.2304 -0.0629136 -1.01183e-25)
(45.2521 -0.0724083 7.19516e-26)
(45.2907 -0.0890176 -3.16927e-32)
(45.3302 -0.0887588 2.19452e-23)
(45.3903 -0.117682 0)
(45.4547 -0.103906 -7.59084e-25)
(45.5332 -0.147699 9.10405e-25)
(45.5816 -0.117504 8.6765e-25)
(45.5746 -0.174605 3.42355e-24)
(44.9046 -0.125548 2.86434e-24)
(44.5096 -0.182342 2.31279e-24)
(45.2908 -0.135103 0)
(45.1962 -0.187576 0)
(45.0813 -0.145334 -6.19344e-27)
(44.929 -0.183202 2.40213e-24)
(44.8117 -0.14788 1.09246e-29)
(44.7156 -0.171851 -2.1096e-24)
(44.6463 -0.141344 0)
(44.59 -0.155662 0)
(44.5551 -0.127581 5.88486e-25)
(44.5287 -0.135202 0)
(44.5145 -0.110595 0)
(45.2104 -0.041232 0)
(45.2202 -0.0571023 -1.2093e-24)
(45.24 -0.0643727 -7.0472e-25)
(45.2619 -0.0728008 -1.27723e-24)
(45.3006 -0.0894584 0)
(45.3403 -0.0879281 0)
(45.4003 -0.116628 0)
(45.4649 -0.101738 -1.26415e-24)
(45.5426 -0.144437 0)
(45.5907 -0.114066 -1.43142e-25)
(45.5798 -0.168756 1.45126e-24)
(44.9063 -0.12083 1.1698e-24)
(44.5135 -0.174434 1.90989e-24)
(45.2945 -0.12834 3.30602e-24)
(45.1988 -0.179031 2.03341e-24)
(45.0814 -0.13734 0)
(44.9279 -0.175077 -1.9699e-24)
(44.8086 -0.139766 -1.99447e-24)
(44.7111 -0.164624 0)
(44.6404 -0.134277 0)
(44.5827 -0.149499 0)
(44.5471 -0.122239 5.41306e-25)
(44.5198 -0.130185 0)
(44.5051 -0.106921 0)
(45.2191 -0.0435464 3.56285e-26)
(45.2292 -0.0584164 -1.0536e-24)
(45.2491 -0.0656868 8.04296e-26)
(45.2713 -0.0730943 0)
(45.3101 -0.0898162 1.8045e-25)
(45.35 -0.0871677 -3.72546e-25)
(45.4096 -0.115658 0)
(45.4744 -0.0999157 -5.87931e-25)
(45.5512 -0.141637 6.94818e-25)
(45.599 -0.111272 6.9764e-25)
(45.5843 -0.1639 -1.10175e-25)
(44.9073 -0.117076 9.24858e-25)
(44.5165 -0.167978 3.09246e-24)
(45.2978 -0.12298 5.28697e-26)
(45.201 -0.172111 -3.38914e-26)
(45.0815 -0.130986 1.54765e-24)
(44.9268 -0.168499 1.88608e-26)
(44.8057 -0.133237 -9.84836e-26)
(44.707 -0.158724 0)
(44.6349 -0.128483 -1.22269e-24)
(44.5761 -0.14436 -1.22134e-24)
(44.5395 -0.117701 0)
(44.5114 -0.125841 1.30685e-24)
(44.4962 -0.103499 2.05588e-25)
(45.2272 -0.0457078 0)
(45.2377 -0.0595505 -5.84481e-25)
(45.2577 -0.0668543 -1.05946e-25)
(45.2802 -0.0733306 -1.4381e-26)
(45.3189 -0.090119 0)
(45.3591 -0.0865249 9.20154e-24)
(45.4182 -0.11484 -1.94556e-24)
(45.4833 -0.0984649 -4.67259e-25)
(45.5591 -0.139336 -5.70701e-25)
(45.6066 -0.109112 -5.3688e-25)
(45.5881 -0.159996 8.6541e-25)
(44.9076 -0.11423 1.38843e-24)
(44.519 -0.162867 1.20838e-24)
(45.3008 -0.118907 4.74125e-26)
(45.2031 -0.166679 -1.25927e-24)
(45.0816 -0.126113 -1.17181e-24)
(44.9258 -0.163343 3.52778e-26)
(44.803 -0.128163 -9.34771e-26)
(44.7032 -0.154071 0)
(44.6298 -0.123898 -8.38291e-25)
(44.5699 -0.14023 -9.67007e-25)
(44.5324 -0.113979 0)
(44.5036 -0.122212 3.99895e-25)
(44.4876 -0.10041 -5.85296e-25)
(45.2349 -0.0476453 -4.96966e-25)
(45.2461 -0.0604797 5.41125e-25)
(45.2659 -0.0678553 -1.12107e-24)
(45.2892 -0.0735056 -9.91767e-27)
(45.3274 -0.0903822 1.25662e-25)
(45.3682 -0.0860249 8.94326e-24)
(45.4265 -0.114212 -1.03095e-24)
(45.4921 -0.0973856 -2.72287e-25)
(45.5666 -0.13754 -4.449e-25)
(45.614 -0.107526 -8.99431e-25)
(45.5917 -0.156962 -7.48318e-25)
(44.9076 -0.112224 -4.80906e-25)
(44.5211 -0.159049 -8.83886e-25)
(45.3035 -0.116029 0)
(45.205 -0.162626 -9.14053e-25)
(45.0815 -0.122585 -8.30883e-25)
(44.925 -0.159502 1.65441e-26)
(44.8003 -0.124424 0)
(44.6996 -0.150589 6.21145e-26)
(44.6246 -0.120455 8.78685e-26)
(44.5639 -0.137079 -7.18776e-25)
(44.5252 -0.111079 -6.73821e-25)
(44.4958 -0.119334 2.64595e-25)
(44.4787 -0.0977448 0)
(45.2412 -0.0491648 -3.9153e-25)
(45.2533 -0.0611156 4.79584e-25)
(45.2728 -0.0685985 -4.4906e-25)
(45.297 -0.0736031 0)
(45.3346 -0.0905952 0)
(45.3763 -0.0856968 -2.02101e-24)
(45.4334 -0.113815 7.62209e-25)
(45.4998 -0.0967124 -3.25327e-25)
(45.5728 -0.136345 -5.89087e-25)
(45.6205 -0.10656 -1.0265e-25)
(45.5945 -0.154926 4.97903e-25)
(44.9073 -0.111045 0)
(44.5227 -0.156535 0)
(45.3058 -0.114282 0)
(45.2067 -0.159969 0)
(45.0813 -0.120374 -4.30394e-27)
(44.9243 -0.157002 0)
(44.7978 -0.122033 0)
(44.6966 -0.14832 5.25951e-26)
(44.6201 -0.118212 0)
(44.5588 -0.13499 0)
(44.5187 -0.109118 0)
(44.489 -0.11735 2.317e-25)
(44.4706 -0.0957206 0)
(45.2497 -0.0502834 0)
(45.2644 -0.0615278 -2.3516e-26)
(45.2824 -0.0691341 -5.86736e-26)
(45.3093 -0.0736618 -3.10207e-27)
(45.3443 -0.0907857 3.8906e-26)
(45.3891 -0.0855155 -3.28247e-24)
(45.4427 -0.113602 -5.48518e-26)
(45.512 -0.0963048 1.42267e-28)
(45.5811 -0.135513 1.02318e-31)
(45.6304 -0.105678 -1.46242e-29)
(45.5982 -0.153068 4.51811e-25)
(44.9076 -0.11041 0)
(44.5249 -0.155534 1.7792e-25)
(45.3087 -0.113612 1.0946e-25)
(45.2094 -0.158392 -3.18846e-25)
(45.0805 -0.119093 -2.75643e-25)
(44.9238 -0.155467 0)
(44.7935 -0.120599 0)
(44.6927 -0.146917 0)
(44.6127 -0.116831 0)
(44.5517 -0.133668 0)
(44.5085 -0.107856 0)
(44.479 -0.11605 1.66311e-25)
(44.4576 -0.0942692 0)
(48.4174 -3.61069 9.14447e-25)
(50.4627 5.79982 3.25548e-24)
(45.6311 6.52282 1.4062e-23)
(49.8858 -0.578752 -1.57732e-24)
(53.1474 1.63186 -6.18791e-25)
(50.9867 5.37381 -2.705e-24)
(48.9001 2.25079 -8.61143e-25)
(52.3402 -2.7128 -6.96425e-24)
(53.249 1.03401 -2.0423e-24)
(46.6629 3.24082 -2.79263e-24)
(49.4883 -5.01667 1.092e-23)
(52.0348 -3.13107 0)
(44.6919 2.61953 2.93529e-28)
(46.3915 -5.09918 -7.56087e-24)
(49.0907 -5.15344 6.41705e-24)
(43.8167 1.05642 0)
(37.5398 -0.507276 -1.6677e-24)
(34.0103 -1.46675 3.81253e-24)
(44.4478 -3.30523 3.8295e-23)
(46.0434 -4.95878 -1.14385e-23)
(44.4379 -4.21164 7.54183e-24)
(41.1093 0.1027 1.90681e-24)
(44.9703 6.17152 2.0116e-23)
(43.2984 2.95588 4.50093e-23)
(46.9162 -1.73635 -5.23018e-24)
(48.2002 -3.20813 2.61016e-25)
(45.2984 -3.96107 -1.00808e-23)
(48.4229 10.7801 0)
(42.697 10.0483 -1.13451e-23)
(50.2112 5.28572 0)
(48.4995 2.93139 5.37314e-25)
(46.8654 3.35081 -6.22285e-23)
(47.7178 -0.439825 5.77444e-24)
(49.5713 -0.512637 -1.44621e-24)
(48.4987 -2.90946 3.00523e-25)
(49.4657 -2.1683 -2.75442e-25)
(50.9001 -2.66111 2.53917e-25)
(49.9822 -4.52685 -2.86252e-25)
(54.002 5.1475 2.71182e-24)
(52.3855 7.85851 1.15981e-24)
(52.6676 1.51546 2.48262e-25)
(49.9032 1.04606 -1.80902e-23)
(48.9737 2.56462 6.78635e-24)
(47.44 0.91695 1.17928e-23)
(48.7311 1.99994 7.60868e-25)
(49.5841 -0.139718 -2.69876e-27)
(49.6715 1.00087 9.74938e-29)
(51.0585 1.64272 -1.5221e-24)
(51.424 -0.307595 -2.26403e-26)
(54.7755 -2.09417 1.07617e-25)
(55.0348 1.51859 -2.2795e-24)
(51.9884 -2.55579 -8.29915e-24)
(49.7884 -1.17995 2.45778e-24)
(50.0189 0.466653 -1.86398e-23)
(46.4605 1.60797 -1.05456e-23)
(46.6827 2.95364 1.36107e-24)
(48.5051 2.22137 0)
(47.8241 2.98773 0)
(48.1867 4.22221 -5.28304e-25)
(49.5679 3.51621 -7.31122e-26)
(51.3399 -6.04819 -2.21983e-25)
(53.1667 -4.47141 2.31213e-24)
(49.4273 -4.66042 4.78081e-28)
(48.5189 -2.65275 3.44464e-23)
(49.5484 -1.64647 2.92892e-23)
(47.329 -7.17326 -8.81088e-25)
(49.2226 -6.90655 -1.07339e-25)
(46.566 -4.75686 4.99344e-24)
(46.9117 -3.0331 0)
(48.1159 -2.84815 0)
(43.4477 -5.4334 8.96333e-25)
(45.0374 -6.66885 0)
(44.1512 0.0361601 0)
(41.0149 -0.403206 1.59225e-23)
(37.9057 -0.60549 1.02512e-27)
(39.6289 -1.25606 6.54077e-24)
(44.2332 -1.79779 0)
(44.3547 -3.04226 0)
(49.809 -4.79968 2.01035e-25)
(47.8589 -6.62496 1.41074e-24)
(47.1557 -4.40469 8.56296e-24)
(47.97 -7.05004 4.04543e-25)
(49.9681 -5.0014 9.43213e-25)
(43.0439 -7.45183 1.67868e-23)
(47.5367 -7.34482 1.76839e-24)
(52.2414 8.04148 -1.35992e-25)
(48.7987 10.5955 -1.72642e-25)
(48.5659 6.77075 -3.11572e-24)
(48.9413 9.94306 -3.05273e-25)
(52.0715 7.80327 8.10997e-26)
(51.4025 -0.579531 2.3049e-25)
(50.9902 -2.39834 0)
(49.6273 -1.77711 3.78863e-25)
(51.082 -2.5719 9.32916e-27)
(51.5117 -0.482283 8.30797e-28)
(50.1605 -4.7091 -4.57018e-25)
(51.0385 -2.70661 1.01314e-26)
(54.9799 1.798 -3.2883e-24)
(54.0889 4.95365 6.05886e-24)
(52.5233 3.35918 -5.16013e-25)
(54.0349 4.66382 -8.13595e-25)
(55.0013 2.07598 1.55008e-24)
(52.2262 7.63211 1.04882e-24)
(53.9447 4.86322 2.96199e-24)
(52.2163 3.89957 -4.99307e-25)
(49.7457 3.37088 0)
(50.9242 1.89937 -1.28538e-24)
(49.5214 1.35893 2.82504e-25)
(51.0902 2.10875 -1.07563e-25)
(49.7631 3.5544 1.15131e-26)
(51.5259 -0.332633 -7.88995e-28)
(51.1568 1.97371 -5.28935e-25)
(53.2728 -4.34127 -5.49993e-25)