# Forces     
# CofR       : (0.000000e+00 0.000000e+00 0.000000e+00)
# Time       forces(pressure viscous porous)	moments(pressure viscous porous)
100          	((1.069874e+00 7.217703e+00 1.212623e-18) (7.248101e-02 -4.760144e-05 -6.682058e-23) (0.000000e+00 0.000000e+00 0.000000e+00)) ((-3.789294e+00 5.616839e-01 4.318927e+00) (2.499075e-05 3.805253e-02 -1.264692e-03) (0.000000e+00 0.000000e+00 0.000000e+00))
200          	((8.798533e-01 7.938148e+00 1.219699e-18) (7.128794e-02 9.360513e-05 -6.425299e-23) (0.000000e+00 0.000000e+00 0.000000e+00)) ((-4.167528e+00 4.619230e-01 4.425036e+00) (-4.914270e-05 3.742617e-02 -1.246502e-03) (0.000000e+00 0.000000e+00 0.000000e+00))
300          	((7.768681e-01 8.243772e+00 1.232250e-18) (7.139956e-02 5.977509e-05 -6.243463e-23) (0.000000e+00 0.000000e+00 0.000000e+00)) ((-4.327980e+00 4.078558e-01 4.488355e+00) (-3.138192e-05 3.748477e-02 -1.322883e-03) (0.000000e+00 0.000000e+00 0.000000e+00))
400          	((7.543776e-01 8.815528e+00 1.215776e-18) (7.169565e-02 3.020643e-06 -6.190915e-23) (0.000000e+00 0.000000e+00 0.000000e+00)) ((-4.628152e+00 3.960482e-01 4.743129e+00) (-1.585838e-06 3.764022e-02 -1.405556e-03) (0.000000e+00 0.000000e+00 0.000000e+00))
500          	((7.499414e-01 9.260768e+00 1.197618e-18) (7.204446e-02 -2.016113e-05 -6.096010e-23) (0.000000e+00 0.000000e+00 0.000000e+00)) ((-4.861903e+00 3.937192e-01 4.909737e+00) (1.058459e-05 3.782334e-02 -1.454146e-03) (0.000000e+00 0.000000e+00 0.000000e+00))
600          	((7.505781e-01 9.637954e+00 1.181180e-18) (7.228654e-02 -2.270933e-05 -6.078595e-23) (0.000000e+00 0.000000e+00 0.000000e+00)) ((-5.059926e+00 3.940535e-01 5.069370e+00) (1.192240e-05 3.795043e-02 -1.476029e-03) (0.000000e+00 0.000000e+00 0.000000e+00))
