/*--------------------------------*- C++ -*----------------------------------*\
| =========                 |                                                 |
| \\      /  F ield         | OpenFOAM: The Open Source CFD Toolbox           |
|  \\    /   O peration     | Version:  5.x                                   |
|   \\  /    A nd           | Web:      www.OpenFOAM.org                      |
|    \\/     M anipulation  |                                                 |
\*---------------------------------------------------------------------------*/
FoamFile
{
    version     2.0;
    format      ascii;
    class       volScalarField;
    location    "600";
    object      p;
}
// * * * * * * * * * * * * * * * * * * * * * * * * * * * * * * * * * * * * * //

dimensions      [0 2 -2 0 0 0 0];

internalField   nonuniform List<scalar> 
6584
(
21
19.1755
17.3505
15.5259
13.7013
11.8767
10.0521
8.22799
6.40406
4.57998
2.75524
0.92927
-0.898277
-2.72723
-4.55695
-6.38677
-8.21617
-10.045
-11.8735
-13.7016
-15.5294
-17.3564
-19.1826
-21.0078
21.0015
19.1798
17.3562
15.5319
13.7075
11.8819
10.055
8.22937
6.40525
4.58144
2.75698
0.931176
-0.896451
-2.72571
-4.55584
-6.38648
-8.21723
-10.0476
-11.878
-13.7073
-15.5354
-17.3625
-19.1874
-21.009
21.002
19.1831
17.3628
15.54
13.7161
11.8905
10.0615
8.23244
6.40707
5.03905
3.21592
1.39118
-0.43608
-2.26589
-4.09717
-6.39035
-8.22561
-10.058
-11.8883
-13.7168
-15.5437
-17.3688
-19.1903
-21.01
21.0019
19.1838
17.3652
15.5452
13.7229
11.8986
10.0699
8.23939
6.41136
5.04153
3.22013
1.39706
-0.430127
-2.26262
-4.10254
-5.94153
-8.24177
-10.0723
-11.9
-13.7263
-15.5508
-17.3723
-19.1917
-21.0108
21.0016
19.1836
17.3654
15.547
13.7272
11.9046
10.0792
8.25443
6.87679
5.04662
3.22608
1.40552
-0.421195
-2.26672
-4.12214
-5.9658
-7.7988
-10.0853
-11.9103
-13.734
-15.555
-17.3743
-19.1929
-21.0115
21.0012
19.1832
17.3651
15.5471
13.7287
11.9088
10.0878
8.72186
6.8986
5.07479
3.47211
1.64882
-0.174166
-2.05105
-4.14678
-5.98523
-7.81322
-10.0962
-11.9189
-13.7391
-15.5578
-17.376
-19.194
-21.0122
21.0008
19.1828
17.3647
15.5466
13.7284
11.9097
10.0902
8.72433
6.90544
5.09017
3.50701
1.8046
-0.0137868
-2.07532
-3.94147
-6.00531
-7.82808
-10.1061
-11.9253
-13.7427
-15.56
-17.3775
-19.195
-21.0128
21.0004
19.1824
17.3642
15.5459
13.7275
11.9086
10.0898
8.72478
6.90297
5.08262
3.49603
1.81395
-2.03253
-3.97987
-6.02586
-7.84138
-10.1126
-11.9295
-13.7454
-15.5619
-17.3787
-19.1959
-21.0132
21
19.1819
17.3637
15.5452
13.7265
11.907
10.0873
8.72221
6.89666
5.06704
3.46286
1.72609
-2.15065
-4.02084
-6.04188
-7.84867
-10.1147
-11.9311
-13.7472
-15.5632
-17.3795
-19.1963
-21.0133
20.9997
19.1815
17.3632
15.5446
13.7257
11.906
10.0855
8.71894
6.88995
5.05548
3.44188
1.68791
-2.20164
-4.04228
-6.04833
-7.85055
-10.1126
-11.9287
-13.7462
-15.5634
-17.3796
-19.1964
-21.0131
20.9995
19.1812
17.3628
15.5441
13.7251
11.9054
10.0848
8.71728
6.88767
5.05407
3.44272
1.70174
-2.17575
-4.03166
-6.04043
-7.84435
-10.1063
-11.9227
-13.7415
-15.5614
-17.3792
-19.196
-21.0126
20.9995
19.1811
17.3627
15.544
13.7251
11.9057
10.0852
8.71742
6.88973
5.06102
3.45906
1.74267
-2.1034
-3.99662
-6.02064
-7.8308
-10.0958
-11.9137
-13.7337
-15.5558
-17.3768
-19.1951
-21.0119
20.9995
19.1811
17.3628
15.5442
13.7256
11.9067
10.0866
8.71925
6.89421
5.07094
3.47856
1.78407
-2.02587
-3.95276
-5.99485
-7.81251
-10.0818
-11.9021
-13.7239
-15.5478
-17.3725
-19.1937
-21.0108
20.9996
19.1812
17.3629
15.5445
13.7261
11.9078
10.088
8.26595
6.8981
5.076
3.48399
1.77901
0.0642359
-2.06989
-3.91246
-5.96622
-7.7918
-10.0651
-11.8884
-13.7123
-15.5394
-17.3666
-19.1905
-21.0095
20.9997
19.1813
17.3631
15.5448
13.7265
11.9081
10.0873
8.26134
6.89366
5.05965
3.46187
1.65012
-0.1697
-2.03373
-4.10788
-5.94236
-8.22713
-10.0534
-11.8792
-13.7039
-15.5317
-17.3587
-19.1837
-21.0067
20.9998
19.1813
17.3631
15.5447
13.7264
11.9075
10.0845
8.25297
6.87754
5.05113
3.23065
1.63758
-0.19202
-2.25836
-4.0987
-5.93354
-8.22009
-10.0473
-11.8733
-13.7013
-15.5272
-17.3529
-19.1781
-21.0036
20.9998
19.1813
17.3629
15.5444
13.7257
11.9057
10.08
8.24759
6.41699
5.04906
3.22586
1.40086
-0.424649
-2.26039
-4.09645
-5.92835
-8.21348
-10.0404
-11.8676
-13.6956
-15.5227
-17.3491
-19.1765
-21.002
20.9997
19.1811
17.3625
15.5438
13.7245
11.9025
10.0745
8.24286
6.41521
4.59125
3.22257
1.39832
-0.432178
-2.26255
-4.55129
-6.38124
-8.20943
-10.0367
-11.8639
-13.6914
-15.5183
-17.3451
-19.1725
-20.9998
20.9996
19.1808
17.3619
15.543
13.7233
11.899
10.0691
8.23946
6.41323
4.58894
2.76094
0.937036
-0.88999
-2.72255
-4.54996
-6.37938
-8.20696
-10.0342
-11.8612
-13.6884
-15.5153
-17.3423
-19.1692
-20.9977
20.9994
19.1804
17.3613
15.5421
13.722
11.8962
10.0655
8.23762
6.41177
4.58729
2.75996
0.935058
-0.892254
-2.72245
-4.54918
-6.378
-8.20508
-10.0323
-11.859
-13.686
-15.513
-17.34
-19.1667
-20.996
20.9992
19.18
17.3606
15.5411
13.7206
11.8942
10.0632
8.23627
6.41069
4.58599
2.759
0.933265
-0.8939
-2.72246
-4.5488
-6.37701
-8.20371
-10.0308
-11.8573
-13.6842
-15.5112
-17.338
-19.1646
-20.9946
20.9989
19.1795
17.3598
15.54
13.7192
11.8926
10.0617
8.2352
6.40955
4.58494
2.75811
0.932166
-0.894732
-2.72253
-4.54861
-6.37635
-8.20272
-10.0297
-11.856
-13.6827
-15.5097
-17.3364
-19.1628
-20.9934
20.9986
19.1789
17.359
15.539
13.7179
11.8913
10.0604
8.23395
6.40856
4.58411
2.75751
0.931448
-0.895284
-2.72258
-4.5485
-6.37586
-8.20199
-10.0288
-11.855
-13.6816
-15.5084
-17.335
-19.1613
-20.9924
20.9983
19.1784
17.3582
15.5379
13.7166
11.89
10.0593
8.23279
6.40767
4.58325
2.75703
0.930937
-0.895682
-2.72262
-4.54843
-6.37546
-8.20144
-10.0281
-11.8541
-13.6807
-15.5073
-17.3338
-19.1601
-20.9915
20.9979
19.1778
17.3574
15.5369
13.7153
11.8888
10.0582
8.23173
6.40668
4.5824
2.75664
0.930539
-0.89596
-2.72263
-4.54837
-6.37517
-8.201
-10.0276
-11.8534
-13.6799
-15.5064
-17.3328
-19.159
-20.9907
20.9976
19.1773
17.3566
15.5359
13.7141
11.8876
10.0573
8.23073
6.40569
4.5816
2.75579
0.929835
-0.896527
-2.7229
-4.54854
-6.37513
-8.20088
-10.0273
-11.8532
-13.6797
-15.5058
-17.332
-19.1581
-20.99
20.9973
19.1768
17.3559
15.5349
13.713
11.8865
10.0563
8.22985
6.40474
4.58014
2.75433
0.928457
-0.89774
-2.72395
-4.54954
-6.37595
-8.20163
-10.028
-11.8538
-13.6801
-15.506
-17.3321
-19.158
-20.9898
20.9969
19.1763
17.3552
15.5341
13.7119
11.8855
10.0555
8.229
6.40344
4.57835
2.75259
0.926705
-0.899457
-2.72556
-4.55111
-6.37738
-8.20299
-10.0292
-11.855
-13.6812
-15.507
-17.3331
-19.1589
-20.9901
20.9966
19.1758
17.3545
15.5332
13.7109
11.8845
10.0546
8.22776
6.40174
4.57661
2.75087
0.924998
-0.901134
-2.72716
-4.55265
-6.3788
-8.20435
-10.0305
-11.8562
-13.6823
-15.508
-17.334
-19.1598
-20.9904
20.9963
19.1753
17.3538
15.5324
13.71
11.8835
10.0534
8.22604
6.40007
4.5749
2.74919
0.923326
-0.902772
-2.72871
-4.55419
-6.38022
-8.20572
-10.0318
-11.8574
-13.6834
-15.5091
-17.335
-19.1607
-20.9907
20.996
19.1748
17.3532
15.5316
13.709
11.882
10.0515
8.22432
6.39839
4.57319
2.74753
0.921683
-0.904383
-2.73025
-4.55569
-6.38165
-8.2071
-10.0331
-11.8587
-13.6846
-15.5102
-17.3361
-19.1617
-20.9911
20.9957
19.1744
17.3526
15.5309
13.7074
11.8796
10.0494
8.2226
6.39673
4.57152
2.74589
0.920061
-0.905971
-2.73177
-4.5572
-6.38304
-8.20848
-10.0344
-11.8599
-13.6858
-15.5113
-17.3372
-19.1628
-20.9914
20.9955
19.174
17.3521
15.5298
13.7049
11.8766
10.0474
8.22088
6.39509
4.56983
2.74426
0.918461
-0.907538
-2.73328
-4.55866
-6.38446
-8.20984
-10.0357
-11.8611
-13.6869
-15.5125
-17.3383
-19.1638
-20.9918
20.9952
19.1736
17.3516
15.5282
13.7018
11.8738
10.0453
8.21915
6.39343
4.56817
2.74262
0.916883
-0.909091
-2.73475
-4.56013
-6.38585
-8.21122
-10.037
-11.8624
-13.6882
-15.5136
-17.3394
-19.1648
-20.9922
20.995
19.1732
17.3511
15.5266
13.699
11.871
10.0433
8.21741
6.39173
4.56647
2.74096
0.915331
-0.910624
-2.73619
-4.56158
-6.3872
-8.21259
-10.0383
-11.8637
-13.6894
-15.5148
-17.3405
-19.1659
-20.9925
20.9949
19.1729
17.3507
15.5255
13.6971
11.8686
10.0413
8.21569
6.39012
4.56479
2.7393
0.91382
-0.912136
-2.73762
-4.56302
-6.38859
-8.21397
-10.0396
-11.865
-13.6906
-15.516
-17.3416
-19.1671
-20.993
1.73473
-1.92251
-1.80109
1.68962
-1.98801
-1.93588
1.69784
-1.9665
-1.99008
1.73692
-1.89294
-1.95912
1.77985
-1.80851
-1.88232
1.79197
0.18887
0.0680345
-1.73704
-1.79856
1.82294
0.216967
-1.78344
-1.7125
3.47093
1.9686
2.03633
-1.04639
-0.900004
-2.13882
-3.56567
-3.52563
3.44503
1.92596
1.96071
1.70534
0.929755
0.9573
-1.2152
-1.17391
-2.19929
-3.59997
-3.57717
3.44061
1.93138
1.92433
1.68769
0.913166
0.910126
-1.25325
-1.25923
-2.18287
-3.59592
-3.60271
3.45418
1.96582
1.93481
1.71543
0.963716
0.939954
-1.13828
-1.18982
-2.11322
-3.55982
-3.58913
-1.00962
-1.08607
-2.03517
-3.51073
-3.54801
-0.906539
-0.949997
1.65414
0.165628
0.180241
-0.0604769
-1.56647
-1.72872
0.962092
1.01265
1.7662
0.894257
0.841316
1.00099
0.904201
-1.17055
-1.08711
-1.87565
-1.16695
-1.22379
0.910846
0.926154
1.70019
0.837368
0.818572
0.836907
0.838803
-1.25477
-1.22058
-1.97351
-1.2764
-1.29305
-1.22654
-1.27255
-1.96617
0.936584
0.915929
1.68934
0.823254
0.848873
0.818944
0.820927
-1.19532
-1.24913
-1.98372
-1.28625
-1.25328
-1.29611
-1.28998
-1.9874
0.851422
0.879542
0.851289
0.847694
-1.08947
-1.13671
-1.92313
-1.19136
-1.17316
-1.24885
-1.19333
-1.93286
0.922526
0.941956
0.883733
0.918732
-0.95655
-1.00307
-1.16682
-1.12149
-1.85006
0.966736
0.943194
0.943999
0.964204
-0.853956
-0.902064
1.77814
1.02288
1.10806
-0.555916
-0.400471
3.47398
2.00465
1.97098
1.76007
1.03007
0.997823
-0.496524
-0.523325
-1.96746
-3.46418
-3.49829
0.625831
0.503804
-1.02187
-1.1527
-1.8574
0.993756
0.967385
1.72054
0.431098
0.447866
0.516082
0.522865
0.445345
0.472965
-0.527316
-0.551102
-1.83958
-1.115
-1.06991
0.524389
0.53376
-1.06369
-1.02177
-1.7698
0.223198
0.957137
1.01267
-0.880795
-0.750301
0.0948429
-0.583565
-0.988601
-0.633397
-0.470343
-0.61455
-0.967303
-1.19532
-1.1973
-1.26791
-1.26762
-1.16676
-1.16436
-1.02884
-0.63743
-1.06149
-0.470207
-0.493729
-0.581501
-0.555827
-0.93031
0.435782
0.866635
0.47103
0.492189
0.472735
0.858964
0.495491
0.555722
0.943482
0.489349
0.434962
-1.13652
-1.13216
0.822452
0.82247
0.85108
0.850046
-1.22844
-1.22549
-1.2662
-1.6168
-1.60674
-1.62782
-1.61973
-1.26923
-1.24669
-1.58289
-1.56362
-1.60273
-1.58821
-1.24733
0.835751
0.837646
0.81713
0.817841
-1.21099
-1.21567
-1.25485
-1.61445
-1.62535
-1.59534
-1.61003
-1.25062
-1.30437
-1.63289
-1.62974
-1.62816
-1.63262
-1.30439
0.435095
0.862528
0.487041
0.467357
0.503505
0.485148
0.86651
0.832114
0.470961
0.835858
-1.11232
-1.1147
-1.2211
-1.57336
-1.58952
-1.55077
-1.56788
-1.21957
0.50639
0.515221
0.8989
0.528995
0.503318
0.560738
0.534039
0.904234
0.478174
0.505382
-0.976341
-0.607676
-0.58512
-0.630118
-0.607418
-0.983113
-0.545318
0.527357
0.5426
0.198994
0.535761
0.52249
-0.00978422
-0.416813
-0.467566
-0.064594
3.48793
2.13221
2.00857
1.79541
1.12828
1.11352
-0.0260965
-0.741014
-0.788875
0.441013
1.05395
1.03377
1.7655
0.28674
0.279291
0.179406
0.526904
0.510606
0.288549
0.303723
-0.365916
-0.401848
0.0290283
0.311751
0.626276
0.637891
-0.37784
-0.278728
0.175067
0.93961
1.29919
1.28816
-1.19855
-1.0388
-1.1823
0.909719
1.27156
1.27297
1.27232
1.27031
0.909373
-1.26226
-1.26391
-1.15128
-1.16921
-0.227815
-0.232616
-0.924019
-0.552651
-0.559504
0.886112
0.876621
0.204065
0.958145
0.56795
0.676162
-1.15397
-0.998518
-1.03215
-1.20648
-1.52078
-1.4866
-1.55617
-1.52981
-1.21699
0.914341
1.27722
1.2721
1.28629
1.27802
0.91604
0.828356
0.633879
0.662059
0.628886
0.628186
0.820454
0.665004
0.665175
0.844068
-1.24575
-1.215
-1.27181
-1.42905
-1.40194
-1.45116
-1.44503
-1.28434
1.27519
1.27939
0.924916
0.829154
0.652595
0.629573
0.817472
0.628288
0.629126
0.62468
0.623571
0.818832
-1.19464
-1.23667
-1.27411
-1.44003
-1.44605
-1.37798
-1.41479
-1.25233
-1.30132
-1.45579
-1.45145
-1.44902
-1.4528
-1.2987
-1.09883
-0.925273
-0.924141
-0.992969
-0.973303
-1.12839
-1.19986
-1.5274
-1.54495
-1.50403
-1.52138
-1.19362
0.932004
0.568574
0.562122
0.606841
0.601757
0.934538
0.329359
0.33396
0.952027
0.617122
0.609521
0.321413
0.327791
-0.221727
-0.221381
-0.500652
-0.171441
-0.476192
-0.276291
-0.509011
-0.337488
-0.312465
-0.349511
-0.513993
0.567425
0.394552
0.494511
0.372284
0.548028
0.422586
0.432937
0.304027
0.291294
0.518593
0.345039
0.352549
0.344327
0.341737
0.518824
0.441847
0.447916
-0.535577
-0.536324
0.528022
0.35879
0.351632
0.300988
0.296114
-0.678535
-0.830317
-0.790123
-0.872865
-0.842046
-0.698979
-1.19397
-1.18709
-1.26443
-1.2667
-1.157
-1.16362
-0.672027
-0.823126
-0.83341
-0.809772
-0.821096
-0.66662
-0.84245
-0.865066
-0.838127
-0.839246
-0.480186
-0.297964
-0.289714
-0.31881
-0.299769
-0.482944
-0.238567
-0.27051
0.462644
0.658793
0.648992
0.68233
0.66349
0.463647
0.626573
0.628319
0.644294
0.628092
0.521683
0.708286
0.687937
0.463597
0.458369
-0.980256
-0.991743
-1.15046
-0.939478
-0.903172
-0.882502
-0.928793
-0.90983
-1.11407
-0.960845
-0.973225
0.625825
0.628381
0.826768
0.568026
0.565867
0.606918
0.570619
0.568594
0.569927
0.566731
0.569527
0.820263
0.628349
0.626472
0.603886
0.598043
0.62846
0.612198
0.605151
0.608669
0.599516
0.603659
0.844862
0.664691
0.663321
-1.24305
-1.21878
-1.43541
-1.42935
-1.26699
-1.28131
-1.44417
-1.43654
0.659448
0.655089
0.831593
0.601245
0.601942
0.557623
0.596261
0.594124
0.606027
0.600809
0.596265
0.626742
0.628175
0.817993
0.569133
0.567022
0.570395
0.569145
0.562942
0.559521
0.566575
0.564514
0.817825
0.62459
0.62622
-1.19718
-1.23038
-1.42896
-1.43657
-1.26877
-1.24729
-1.41778
-1.42538
-1.45731
-1.45535
-1.30311
-1.30082
-1.45505
-1.45598
0.435229
0.47144
0.654391
0.660088
0.643597
0.651277
0.459149
0.497615
0.673305
0.64867
0.662151
0.670179
0.490338
0.622624
0.621821
0.615162
0.622093
0.479408
0.636776
0.642177
0.622731
0.634169
0.474052
-0.950065
-0.931684
-1.10281
-0.884023
-0.911172
-0.869183
-0.874275
-0.916028
-1.12378
-0.963601
-0.945116
0.507679
0.331837
0.346888
0.350542
0.328129
0.509116
0.305971
0.490572
0.35103
0.495716
-0.627445
-0.797788
-0.806355
-0.783395
-0.794187
-0.619258
-0.567359
-0.578496
0.337406
0.350814
0.300786
0.318833
-0.197119
-0.220068
-2.01785
-3.51251
-3.48069
-1.76115
-1.07139
-1.03794
0.362712
0.498568
0.490912
-0.0335338
0.0155034
0.29163
-1.74649
-1.00535
-1.00477
1.3161
1.30206
0.943301
-1.20928
-1.1693
-1.17618
-1.25786
-1.26072
1.29186
1.29939
0.949508
-1.15162
-1.14359
-1.18318
-0.921486
-0.904464
-1.07518
0.97968
1.3379
1.32022
0.688438
0.691302
0.846066
-0.932345
-0.954622
-1.10864
0.859754
0.674445
0.687374
-1.25114
-1.18353
-1.18961
-1.2241
-1.35131
-1.34883
-1.28995
-1.39737
-1.39109
-1.25798
0.927587
1.28226
1.28861
0.667174
0.658079
0.843429
-1.19915
-1.16382
-1.15783
-1.24535
-1.28259
-1.34353
-1.3465
-1.29803
-1.35538
-1.35356
-1.34947
-1.35216
-1.29373
0.826051
0.679336
0.671931
-1.23266
-1.37014
-1.37584
-1.14726
-1.4801
-1.49803
0.219758
0.219447
0.632655
0.620566
0.954601
0.217735
0.21911
-0.553543
-0.535089
-0.88581
-0.543139
-0.494257
0.427092
0.395619
0.399412
0.448914
0.442487
0.386654
0.391233
0.417406
0.409596
0.466886
-0.505102
-0.495692
-0.546803
0.357553
0.357903
0.529103
-0.836289
-0.424693
-0.449838
-0.602839
-0.645713
-0.698166
-0.683294
-0.776547
-0.76024
-0.777103
-0.736886
-0.556126
-1.13917
-1.14394
-1.19277
-1.19604
-1.14141
-1.14362
-1.26942
-1.26776
-1.11173
-1.10943
-1.16601
-1.16082
-1.10957
-1.10752
-0.714545
-0.723614
-0.691369
-0.697907
-0.647048
-0.733303
-0.742242
-1.07168
-0.900692
-0.89361
0.437252
0.469067
0.526342
0.526398
0.556197
0.549605
0.487713
0.507218
0.510656
0.523175
0.50622
0.46687
0.708624
0.714198
0.529275
0.477263
0.412562
0.415911
0.437486
-0.805802
-0.794394
0.66298
0.668875
0.857962
0.513416
0.516138
-1.23265
-1.22281
-1.37537
-1.36971
-1.23816
-1.25356
-1.38494
-1.37994
0.84147
0.658035
0.659312
-1.20516
-1.22002
-1.36058
-1.36046
-1.30432
-1.30448
-1.3603
-1.36044
0.438523
0.487713
0.542314
0.543297
0.522678
0.52122
0.463164
0.683528
0.680919
0.828765
0.505979
0.502634
0.513193
0.519767
0.474616
0.526771
0.525059
0.498881
0.496163
-1.35816
-1.36363
-1.22765
-1.20896
-1.34641
-1.35285
0.511278
0.663458
0.670798
0.651601
0.656412
0.5062
-0.596724
-0.74251
-0.78028
-0.729719
-0.736509
-0.594309
-0.627955
-0.688214
-0.688033
-0.548485
-0.510411
-0.594718
0.193972
0.229422
0.241261
0.209674
0.546652
0.372995
0.361026
0.383906
0.37596
0.518207
-0.057545
-0.0868571
-0.284861
-0.280752
-0.457174
0.412664
0.441291
0.379529
0.282346
0.279218
0.332359
0.334378
0.168011
0.302923
0.257946
0.253579
0.252132
0.255956
0.30509
0.10299
-0.15129
-0.186856
-0.337807
-0.0764144
-0.123687
-1.15792
-1.16319
-1.20369
-1.04288
-1.06984
-1.07273
-1.08218
-1.0757
-1.26104
-1.2619
-1.03768
-1.04539
-1.02301
-1.02933
-1.17597
-1.13486
-1.12668
-0.235663
-0.181055
-0.17001
-0.194764
-0.190104
-0.239986
-1.00868
-1.0517
-1.04471
-1.06892
-1.06072
-1.02063
-1.24794
-1.22281
-1.19123
-1.19149
-1.28699
-1.34644
-1.34392
-1.17659
-1.16982
-1.19898
-1.24248
-1.33674
-1.34036
-1.27896
-1.35812
-1.35673
-1.29956
-1.29668
-1.35446
-1.35616
-0.988259
-1.02573
-1.02051
-1.01704
-1.02303
-0.98083
0.218238
0.216731
0.214716
0.215377
0.323666
0.267373
0.266146
-0.117235
-0.119075
-0.219955
-0.156027
-0.165135
-0.161109
-0.155444
-0.218742
-0.448832
-0.466157
-0.523553
-0.392731
-0.209751
-0.288322
-0.247008
-0.355397
-0.330676
-0.262465
-0.325998
-0.382853
-0.391412
-0.376208
-0.37759
-0.317036
-0.365227
-0.400709
-0.404397
-0.400598
-0.406425
-0.360177
0.408089
0.474835
0.445242
0.391217
0.385776
0.408117
0.40064
0.423398
0.446913
0.401392
0.39683
0.300178
0.295816
0.405889
0.405948
0.351222
0.378438
0.382082
0.440558
0.363549
0.368462
0.351016
0.457796
0.388118
0.377645
-0.473788
-0.479502
-0.535333
-0.433151
-0.438689
-0.412812
-0.423156
-0.54048
-0.485623
-0.477311
0.297968
0.243258
0.247767
0.235726
0.238953
0.295752
-0.727644
-0.712173
-0.657135
-0.716829
-0.750766
-0.742228
-1.11451
-1.19116
-1.14646
-1.15227
-1.09645
-1.0896
-1.10956
-1.10367
-1.26727
-1.26825
-1.06934
-1.0767
-1.05357
-1.06175
-1.16217
-1.10365
-1.09664
-1.11938
-1.11316
-1.16044
-1.0828
-0.704632
-0.707562
-0.657235
-0.705259
-0.709756
-0.849299
-0.800095
-0.789873
-0.820216
-0.81099
-0.857684
-0.840636
-0.784555
-0.780537
-0.782307
-0.779289
-0.839903
-0.747527
-0.313374
-0.372195
-0.375914
-0.248206
-0.259715
0.431409
0.525734
0.525063
0.465157
0.471315
0.53983
0.530863
0.499361
0.503098
0.566848
0.564335
0.627549
0.499559
0.497417
0.408757
0.408058
0.468025
0.377372
0.442287
0.402756
0.409013
-0.986142
-1.03887
-1.03399
-1.0422
-1.04123
-0.985644
-0.9591
-0.949689
-0.895974
-0.846058
-0.860262
-0.833328
-0.837571
-0.890059
-0.918987
-0.871734
-0.87931
-0.910874
0.566506
0.565295
0.601391
0.550912
0.552723
0.538792
0.575159
0.568984
0.569502
0.567597
0.568585
0.598562
0.537409
0.540121
0.53983
0.537799
0.59722
0.626814
0.569308
0.568809
0.546469
0.565706
0.621947
0.516894
0.509203
0.60656
0.55108
0.549293
0.554288
0.552687
0.6078
0.601268
0.544857
0.542018
0.547256
0.545396
0.602315
-1.23732
-1.21923
0.603054
0.551483
0.553634
0.54729
0.549069
0.602936
0.560991
0.552749
0.544892
0.578526
0.593785
0.532705
0.536142
0.53249
0.530395
0.59769
0.599521
0.543561
0.545493
0.539303
0.541782
0.598111
0.569205
0.568895
0.570865
0.569295
0.56215
0.560965
0.566171
0.566224
-1.19991
-1.22494
-1.30423
-1.36023
-1.35931
-1.35787
-1.35929
-1.30297
0.440216
0.537457
0.541206
0.485586
0.459478
0.52302
0.529509
0.51237
0.509215
0.622354
0.564258
0.56654
0.619265
0.564092
0.548223
0.56772
0.567395
0.620741
0.519083
0.515541
0.524648
0.526937
0.477862
0.496084
0.510479
-0.946569
-1.00246
-1.00455
-0.991747
-0.997596
-0.939644
-0.894482
-0.903263
-0.864273
-0.834048
-0.828934
-0.867161
-0.954329
-1.00399
-1.0098
-1.00333
-1.00175
-0.947703
0.336824
0.390639
0.387912
0.397376
0.394173
0.341931
0.337141
0.399434
0.404294
0.387915
0.3923
0.327639
0.30151
0.375486
0.374795
0.372568
0.375203
0.354145
0.397786
0.399156
0.375812
0.384687
0.350746
-0.684596
-0.688103
-0.632745
-0.556734
-0.58879
0.216647
0.219764
0.308489
0.244946
0.235708
0.264799
0.260831
0.315136
0.215866
0.215655
-0.0993021
-0.110407
3.23258
2.09668
2.3157
1.64344
0.278187
0.49353
-0.179609
-1.5728
-1.33972
-2.04436
-3.20753
-3.19615
5.08774
3.95648
4.16394
3.50241
2.13743
2.10255
1.68245
0.207545
0.284044
-0.0222329
-1.58955
-1.58046
-2.06392
-3.47339
-3.44863
-3.9347
-5.07959
-5.06777
5.08773
3.95355
3.95878
3.50195
2.04396
2.14937
1.83101
1.16591
1.1298
0.016009
-0.74758
-0.752726
-1.9769
-2.56196
-2.54839
-3.96981
-5.10501
-5.09127
5.07533
3.92897
3.94893
3.48843
3.03358
3.04366
1.80319
1.57966
1.59287
-2.08022
-2.75437
-2.72518
-4.01165
-5.13043
-5.11775
5.06014
3.90708
3.92238
3.45566
2.99271
3.00133
1.71828
1.48254
1.49095
-2.17838
-2.82339
-2.80079
-4.04003
-5.14891
-5.14125
5.05344
3.90223
3.9043
3.44008
2.9755
2.9771
1.68694
1.4496
1.45041
-2.20119
-2.84184
-2.84028
-4.03733
-5.14979
-5.15196
5.05684
3.91248
3.90374
3.4458
2.98476
2.98052
1.70593
1.4731
1.46825
-2.15093
-2.80705
-2.82338
-4.00691
-5.13157
-5.14274
5.06593
3.9286
3.9164
1.74853
1.5209
1.51407
-2.07358
-2.74602
-2.76997
-3.96382
-5.10204
-5.11758
5.07516
3.94112
3.93246
-1.99888
-2.57428
-2.58965
-3.92194
-5.06961
-5.08582
5.07011
4.15339
4.16359
3.46317
2.10509
2.1199
1.77127
1.09922
1.10677
0.033691
-0.308219
-0.351205
-2.0347
-3.42523
-3.45381
-4.11947
-5.0361
-5.05339
5.05326
4.14256
4.14568
3.23249
2.09522
2.10249
1.64017
0.268948
0.287711
-0.188271
-1.56958
-1.56772
-2.02925
-3.18068
-3.41954
-4.10134
-5.02134
-5.02592
3.22807
2.31763
2.32002
1.40153
0.491821
0.263693
-0.420708
-1.34369
-1.57051
-2.25893
-3.17943
-3.17839
1.50045
1.51122
1.7444
-1.90722
-1.63797
-1.66178
-1.56658
-1.5879
-1.81959
1.45214
1.45487
1.69232
-1.98448
-1.72266
-1.7289
-1.66867
-1.68744
-1.94745
1.46371
1.45959
1.69448
-1.97309
-1.71096
-1.69971
-1.72985
-1.73122
-1.99067
1.5076
1.5016
1.7313
-1.90278
-1.63093
-1.67102
-1.69513
-1.68046
-1.95102
-1.81872
-1.59287
-1.58216
-1.66085
-1.64915
-1.87146
1.11084
1.13341
1.7981
0.163336
0.300379
0.294475
-0.0636672
-0.0939396
0.101342
-1.57154
-1.56073
-1.78859
1.11813
1.17648
1.83225
0.422796
0.460382
0.488262
0.90127
0.942978
0.264105
0.256159
0.35181
-1.76882
-1.52937
-1.54593
-0.995888
-0.997353
-1.73743
3.01134
3.02235
3.47968
1.99691
2.56602
2.55212
2.59333
2.58033
2.00709
-1.02921
-0.89379
-0.923426
-0.775221
-0.800606
-0.921343
-2.79341
-2.76395
-2.09602
-3.55285
-3.10335
-3.1197
-3.06929
-3.08607
-3.5393
2.98049
2.98572
3.44971
1.93634
2.52075
2.51472
2.53961
2.52907
1.94109
1.4687
1.47516
1.71145
0.933023
1.05272
1.04941
1.07719
1.07233
0.952975
-1.12557
-1.12548
-1.17633
-2.84008
-2.82726
-2.18525
-3.59457
-3.15622
-3.1629
-3.13436
-3.14671
-3.58702
2.97741
2.97564
3.43972
1.92459
2.51029
2.51296
2.51102
2.50959
1.92326
1.45097
1.44981
1.68695
0.911443
1.03288
1.03429
1.03163
1.03104
0.909618
-2.82945
-2.83844
-2.19834
-3.60059
-3.16413
-3.15852
-3.16645
-3.16686
-3.603
2.99565
2.98992
3.44974
1.95128
2.5295
2.53679
2.51724
2.52287
1.94666
1.48384
1.47835
1.71058
0.953081
1.30282
1.31133
1.05734
1.06025
0.942679
-1.14122
-1.07816
-1.07663
-2.77821
-2.79947
-2.14184
-3.57083
-3.12828
-3.11514
-3.15037
-3.14021
-3.58075
-1.01616
-0.87765
-0.867746
-1.03071
-1.02714
-1.08259
-2.60616
-2.62145
-2.06397
-3.52322
-3.07256
-3.05825
-3.10119
-3.08683
-3.53575
-0.912134
-0.796961
-0.791187
-0.836572
-0.829747
-0.943361
1.20113
1.09611
1.65648
0.194151
0.872503
0.864544
0.507352
0.504014
0.152279
-0.747661
-0.739959
-0.0355705
-1.57149
-0.977286
-1.0976
-1.02582
-0.985316
-1.70205
0.967267
1.08767
1.0822
1.3654
1.34363
0.986877
1.7548
1.52316
1.53645
0.883784
0.726987
0.743141
0.987563
0.878704
0.895499
0.784324
0.796928
0.91581
-1.16561
-1.11604
-1.12244
-1.03561
-1.04415
-1.09586
-1.65546
-1.67478
-1.89253
-1.1818
-1.28713
-1.27337
-1.34746
-1.33964
-1.23561
0.911792
1.03347
1.03237
1.04626
1.04305
0.922021
1.69575
1.45853
1.46317
0.834157
0.773909
0.777572
0.755896
0.756188
0.819592
0.779985
0.781756
0.841139
-1.71014
-1.72023
-1.97963
-1.27872
-1.32467
-1.32147
-1.23484
-1.36312
-1.35598
-1.31929
-1.31501
-1.26767
-1.95752
-1.69253
-1.70652
0.933292
1.05119
1.05419
1.03625
1.03839
0.91933
1.69155
1.45601
1.45311
0.824819
0.763472
0.760048
0.789215
0.786803
0.847097
0.817978
0.755521
0.755821
0.757382
0.755864
0.820245
-1.72362
-1.71475
-1.97891
-1.30244
-1.30595
-1.25634
-1.98974
-1.7304
-1.72625
0.855362
0.710487
0.703792
0.762592
0.759259
0.875598
0.853247
0.793494
0.791679
0.701947
0.696519
0.844124
-1.09238
-1.03601
-1.03365
-1.07906
-1.08115
-1.13515
-1.65375
-1.63689
-1.9131
-1.18398
-1.32144
-1.3272
-1.28372
-1.28994
-1.17957
-1.24375
-1.29354
-1.29789
-1.33292
-1.33941
-1.2041
-1.94222
-1.67516
-1.65934
0.925999
0.815285
0.811778
0.830793
0.828436
0.93945
0.888473
0.772571
0.767107
0.807942
0.803364
0.914405
-0.963162
-0.85017
-0.843365
-0.864393
-0.854731
-0.996462
-1.16021
-1.27099
-1.27741
-1.45619
-1.47399
-1.14093
-1.8607
-1.6376
-1.6263
0.974975
0.650709
0.63749
0.617344
0.646197
0.971929
0.946724
0.835454
0.833054
-0.880977
-0.525214
-0.497002
1.55072
1.56532
1.79068
1.05848
1.3966
1.37281
1.37428
1.35811
1.07142
-0.324872
-0.356724
-0.425561
1.99135
2.55991
2.56699
2.54448
2.55229
1.98647
1.53402
1.52761
1.75437
1.01669
1.3012
1.30856
1.28557
1.29341
1.01185
-0.499818
-0.439787
-0.436842
-0.463611
-0.462385
-0.520452
-2.54619
-2.55999
-1.99068
0.606804
0.55718
0.58009
0.434786
0.446423
0.516736
-1.08032
-1.42315
-1.38735
-1.47499
-1.43631
-1.10026
-1.83852
-1.61075
-1.63353
0.982298
1.32772
1.27923
1.31486
1.3241
0.978609
1.7258
1.49545
1.48957
0.517467
0.46124
0.460281
0.464867
0.462472
0.52098
-0.532096
-0.474748
-0.468031
-1.61506
-1.60392
-1.8291
-1.09542
-1.43234
-1.45029
-1.35516
-1.42663
-1.08897
0.525853
0.46926
0.467323
0.476315
0.474575
0.531845
-1.04466
-1.33269
-1.34447
-1.31124
-1.32156
-1.03871
-1.77899
-1.55041
-1.54067
0.573061
0.612366
0.285995
1.02775
0.71501
0.678826
0.714202
0.724475
1.02819
-0.864187
-0.732225
-0.75222
-0.429292
-0.41915
-0.826298
0.152452
-0.278361
-0.300584
-0.846196
-0.882953
-1.00951
-0.534813
-0.675361
-0.645994
-0.666987
-0.65021
-0.59639
-0.94479
-0.827418
-0.851848
-0.889748
-0.880073
-1.02269
-1.06518
-1.00979
-1.00664
-0.474029
-0.414749
-0.411218
-0.434612
-0.431292
-0.490441
-0.571589
-0.715737
-0.722682
-0.701561
-0.708634
-0.567508
-0.936816
-0.822914
-0.816109
0.711293
0.722594
0.874672
0.851819
0.693548
0.707011
0.502087
0.567967
0.561542
0.620947
0.610183
0.54501
0.929096
0.811819
0.826419
-1.08495
-1.08967
-1.14224
-1.12568
-1.07414
-1.07976
0.758073
0.758856
0.823958
0.821252
0.757406
0.757768
0.789611
0.791264
0.853561
0.847836
0.787218
0.788444
-1.32782
-1.32492
-1.26387
-1.6136
-1.50904
-1.51208
-1.50247
-1.50502
-1.61024
-1.62536
-1.51961
-1.52151
-1.51477
-1.51733
-1.62274
-1.27304
-1.33438
-1.33094
-1.29982
-1.29673
-1.24471
-1.57694
-1.47354
-1.47934
-1.4602
-1.46718
-1.57063
-1.59814
-1.49412
-1.49858
-1.48451
-1.4894
-1.59338
-1.24826
-1.30238
-1.30018
0.777106
0.775942
0.834786
0.838586
0.779289
0.778307
0.754415
0.754697
0.817827
0.817331
0.754316
0.754415
-1.32081
-1.32474
-1.2592
-1.61844
-1.50749
-1.50321
-1.51524
-1.51158
-1.62219
-1.60051
-1.49249
-1.49124
-1.49907
-1.49561
-1.60551
-1.24684
-1.31289
-1.31678
-1.63235
-1.52465
-1.5247
-1.52302
-1.52412
-1.63138
-1.63023
-1.52099
-1.51846
-1.5241
-1.52294
-1.63185
0.747201
0.712743
0.859237
0.50274
0.558713
0.560526
0.543835
0.544624
0.483627
0.870975
0.754818
0.750396
0.840136
0.694135
0.685133
-1.05831
-1.05532
-1.10997
-1.11673
-1.06209
-1.06029
-1.2742
-1.27485
-1.22195
-1.57868
-1.47128
-1.4655
-1.48479
-1.47774
-1.58408
-1.55653
-1.44863
-1.44278
-1.46001
-1.45443
-1.56231
-1.21723
-1.27119
-1.27245
0.506867
0.450712
0.451732
0.458805
0.45627
0.513761
0.785005
0.778704
0.893615
0.523657
0.582685
0.587376
0.561742
0.563061
0.502988
0.552255
0.692325
0.69733
0.678097
0.685565
0.547804
0.909505
0.79772
0.791413
0.482556
0.425488
0.422192
0.451736
0.450338
0.503725
-0.863536
-0.856919
-0.969678
-0.604872
-0.662148
-0.665109
-0.64263
-0.646403
-0.589065
-0.667035
-0.669434
-0.607735
-0.989845
-0.876731
-0.870306
0.532513
0.393189
0.386048
0.407097
0.396589
0.537725
0.538448
0.480579
0.478423
-0.424858
-0.279023
-0.262979
-0.408008
-0.404968
-0.463837
2.13518
2.58384
2.58452
2.57343
2.57918
2.01913
1.123
1.34544
1.35001
1.3363
1.34079
1.11777
-0.263835
-0.259683
-0.0196008
-0.751243
-0.499804
-0.499168
-0.488398
-0.515244
-0.770434
1.04609
1.32673
1.33172
1.31527
1.3213
1.04338
1.77062
1.54557
1.54002
0.227772
0.236536
0.199159
0.520164
0.410851
0.387514
0.402016
0.405914
0.514593
-0.376937
-0.244406
-0.223063
-0.252812
-0.257885
-0.386357
0.117435
-0.0200007
-0.0482123
0.425117
0.490208
0.335259
0.637176
0.542592
0.526236
0.520876
0.538425
0.637908
-0.358212
-0.276701
-0.298051
-0.129271
-0.0754905
-0.285469
0.265395
0.0109674
0.0249244
1.05967
1.05605
0.93622
1.29464
1.1757
1.17947
1.16912
1.17248
1.29229
-1.17872
-1.12497
-1.12604
1.03118
1.0318
0.910353
1.27109
1.15184
1.15137
1.15406
1.15294
1.27284
1.27068
1.15118
1.15191
1.1509
1.15106
1.27139
0.909382
1.03082
1.03079
-1.08949
-1.08309
-1.14586
-0.809409
-0.802973
-0.917874
-0.571928
-0.688007
-0.694705
-0.675595
-0.68167
-0.565804
0.884535
0.662978
0.614316
0.652934
0.657731
0.880762
0.212115
0.434471
0.429293
0.84291
0.860747
0.973068
0.610153
0.750053
0.727842
0.792193
0.772478
0.626736
-1.10169
-1.10857
-1.16033
-1.31075
-1.29941
-1.19482
-1.50916
-1.40393
-1.41515
-1.3796
-1.39233
-1.49904
-1.54819
-1.44411
-1.45239
-1.42542
-1.43522
-1.53966
-1.22645
-1.33063
-1.32108
1.03627
1.03469
0.912935
1.27455
1.15503
1.15682
1.15257
1.15385
1.27426
1.28258
1.16328
1.16629
1.15853
1.16092
1.28121
0.91847
1.04033
1.03803
0.765073
0.769343
0.831814
0.643045
0.706223
0.700042
0.718731
0.713804
0.65572
0.628625
0.692605
0.692561
0.692781
0.692616
0.628334
0.819323
0.756319
0.756715
0.665657
0.722925
0.721562
0.724092
0.723596
0.665559
0.841995
0.782908
0.784109
-1.3237
-1.32529
-1.27721
-1.42704
-1.37965
-1.37876
-1.44847
-1.3934
-1.39529
-1.38987
-1.39184
-1.44792
1.27581
1.15748
1.15581
1.1616
1.15961
1.27835
0.922291
1.04065