/*--------------------------------*- C++ -*----------------------------------*\
| =========                 |                                                 |
| \\      /  F ield         | OpenFOAM: The Open Source CFD Toolbox           |
|  \\    /   O peration     | Version:  5.x                                   |
|   \\  /    A nd           | Web:      www.OpenFOAM.org                      |
|    \\/     M anipulation  |                                                 |
\*---------------------------------------------------------------------------*/
FoamFile
{
    version     2.0;
    format      ascii;
    class       volScalarField;
    location    "600";
    object      p_rgh;
}
// * * * * * * * * * * * * * * * * * * * * * * * * * * * * * * * * * * * * * //

dimensions      [0 2 -2 0 0 0 0];

internalField   nonuniform List<scalar> 
6584
(
0.00635585
0.00674932
0.00721776
0.00791329
0.00879193
0.00990841
0.0112338
0.0127639
0.014297
0.0156803
0.0164007
0.0159208
0.0138859
0.0104566
0.00625043
0.00197466
-0.00182963
-0.00502744
-0.00755606
-0.0094981
-0.0109353
-0.0119959
-0.0126831
-0.0132266
0.00621781
0.00665002
0.0070924
0.00778511
0.0086483
0.00977308
0.0111271
0.012757
0.0144373
0.0160415
0.0169907
0.0166532
0.0145431
0.0108414
0.00633409
0.00174052
-0.00219325
-0.00543106
-0.00792743
-0.0098163
-0.0111906
-0.0122127
-0.0128444
-0.013423
0.00592137
0.00636545
0.00676
0.00742471
0.00824861
0.00938125
0.0108109
0.0127262
0.0147646
0.0165921
0.0187765
0.0194248
0.0176355
0.0133845
0.00787797
0.000943309
-0.00330283
-0.00659711
-0.00898249
-0.0106981
-0.0118974
-0.0127871
-0.0132979
-0.0138439
0.00553058
0.00594878
0.00627228
0.00686871
0.00760912
0.0086958
0.0101864
0.0124092
0.0153145
0.0180608
0.021902
0.0241477
0.0224199
0.016247
0.00848437
0.00162316
-0.00516811
-0.00851297
-0.0106395
-0.0120312
-0.0129446
-0.0136068
-0.0139424
-0.014379
0.00507396
0.00542802
0.0056516
0.00612037
0.00670323
0.00761646
0.00902627
0.0113474
0.0141725
0.0193176
0.0257819
0.0314641
0.0302128
0.0199121
0.00780683
-0.00111082
-0.00666048
-0.011434
-0.0130185
-0.0137933
-0.0142794
-0.0146023
-0.0147104
-0.0149666
0.00457646
0.00482752
0.00491931
0.00518585
0.00550492
0.00599481
0.00701831
0.00856101
0.0124235
0.0184184
0.0281254
0.0439605
0.0483245
0.0278883
0.00412054
-0.00698418
-0.0119797
-0.0152625
-0.0159717
-0.0158923
-0.0158184
-0.0156986
-0.0155354
-0.0155474
0.00407557
0.00419103
0.00412855
0.00413019
0.00410116
0.00399061
0.0043396
0.00530759
0.00733907
0.0123872
0.0256077
0.0565053
0.0944475
0.0278614
-0.00496504
-0.0180148
-0.0195785
-0.0201149
-0.0193513
-0.0181762
-0.017422
-0.0167826
-0.0163248
-0.0160465
0.00361465
0.00357728
0.00335842
0.00306681
0.00263892
0.001818
0.0011103
0.000980818
-0.000268717
-0.000744467
0.00422915
0.0267079
-0.0191826
-0.0352845
-0.0346744
-0.0293373
-0.0253741
-0.022747
-0.0203649
-0.0188842
-0.0177095
-0.0169693
-0.0163846
0.00323483
0.00305016
0.00270115
0.00214554
0.00135111
-0.000114365
-0.0019282
-0.00355191
-0.00859128
-0.0172837
-0.0300486
-0.0644584
-0.133395
-0.0759922
-0.0522353
-0.0387788
-0.0298697
-0.0254564
-0.0220516
-0.0199486
-0.0183202
-0.0173575
-0.0164914
0.00296712
0.0026662
0.00224309
0.00151941
0.000502999
-0.00130631
-0.00382005
-0.00659106
-0.0138239
-0.0272057
-0.0497228
-0.102379
-0.184281
-0.0996817
-0.0619828
-0.0442609
-0.0322297
-0.0267459
-0.0228325
-0.0203767
-0.0184762
-0.0173971
-0.0163173
0.00282456
0.00245801
0.00203394
0.00127891
0.000252286
-0.00148106
-0.00400962
-0.00707239
-0.0138113
-0.0257908
-0.0457171
-0.0858287
-0.16195
-0.0944903
-0.0596024
-0.0436547
-0.0316646
-0.0262286
-0.0224894
-0.0200407
-0.0181053
-0.017041
-0.0158453
0.00279838
0.00242346
0.00206697
0.00141204
0.000572464
-0.000728761
-0.00265035
-0.0051336
-0.00930173
-0.015689
-0.0254732
-0.0404739
-0.0968644
-0.0680945
-0.0475568
-0.0376413
-0.0284311
-0.0240613
-0.0210776
-0.0189762
-0.0172294
-0.0163022
-0.0150978
0.00286095
0.00252748
0.00228358
0.00181566
0.00128112
0.000578329
-0.000429689
-0.0018432
-0.00293275
-0.00317076
-0.00224506
0.00595684
-0.0311828
-0.0363696
-0.0319853
-0.0288656
-0.0236086
-0.0208452
-0.0188967
-0.0173595
-0.0159606
-0.0152488
-0.0141299
0.00297458
0.00271562
0.00259843
0.00234516
0.00213302
0.00200234
0.0018338
0.00258784
0.00255258
0.0065961
0.0129441
0.0335681
0.0911678
0.0105757
-0.0121546
-0.0183808
-0.0201333
-0.018449
-0.0172854
-0.0163469
-0.0154368
-0.0144434
-0.0139829
-0.0130141
0.00310132
0.00293084
0.00292787
0.00286713
0.00292006
0.00319545
0.00363438
0.00482767
0.00607599
0.0108297
0.0178133
0.0318144
0.0417433
0.0171599
-0.00127303
-0.00935196
-0.0125453
-0.0138008
-0.0139197
-0.0137819
-0.0134368
-0.0128264
-0.0126113
-0.0118265
0.00321016
0.00312656
0.00321003
0.00329491
0.00352601
0.00403225
0.00476793
0.00626984
0.007714
0.0114837
0.0170618
0.022224
0.0215017
0.0125258
0.00279898
-0.00431363
-0.00863306
-0.010258
-0.0110789
-0.0114441
-0.0115287
-0.0112406
-0.0112287
-0.0106364
0.00328036
0.00327235
0.00341017
0.00359033
0.00391272
0.00451968
0.0052991
0.00684034
0.00856199
0.0104145
0.0133024
0.0149768
0.0170152
0.0102387
0.0034926
-0.00173756
-0.00558002
-0.00759128
-0.00876234
-0.00943052
-0.00980419
-0.00975579
-0.00989903
-0.00948616
0.00330111
0.00335323
0.00351599
0.00374831
0.00409043
0.00470094
0.00537753
0.00664611
0.00797683
0.00989983
0.0105137
0.0129505
0.0100573
0.00739052
0.00242014
-0.00113655
-0.0035295
-0.0056933
-0.00693277
-0.00776252
-0.00830147
-0.00842058
-0.00866681
-0.00840955
0.00326965
0.00336633
0.00353111
0.00378462
0.00409935
0.00466246
0.00517671
0.00619355
0.00681249
0.00852005
0.00666602
0.00890607
0.00919421
0.00326658
0.00233735
-0.00086075
-0.00256032
-0.00444588
-0.00555608
-0.00642654
-0.00702829
-0.00725451
-0.00755715
-0.00742834
0.00318881
0.00331677
0.00346838
0.00372532
0.00398885
0.0044952
0.00483821
0.00571311
0.00585285
0.00742248
0.00622957
0.00721656
0.00679375
0.00277657
0.00215664
-0.000655687
-0.00188038
-0.0035565
-0.0045088
-0.00536257
-0.00596268
-0.00625283
-0.00657674
-0.00655008
0.00306459
0.00321366
0.00334336
0.00359518
0.00379745
0.00425303
0.00444043
0.00521354
0.00508535
0.00634145
0.00536116
0.00531216
0.00480854
0.00216538
0.00177842
-0.000556669
-0.00140674
-0.00290688
-0.00369846
-0.00451198
-0.00507401
-0.00540018
-0.00572085
-0.00577339
0.00290433
0.00306724
0.00317076
0.00341431
0.0035534
0.00396533
0.00402193
0.00469728
0.0044075
0.0053683
0.00446894
0.00405433
0.0036424
0.00162607
0.00138551
-0.000533678
-0.0011084
-0.00243659
-0.0030707
-0.00383143
-0.00433437
-0.00467817
-0.00497943
-0.00509204
0.00271571
0.00288762
0.00296395
0.00319906
0.00327884
0.0036544
0.00360971
0.00419961
0.00382431
0.00457711
0.00378408
0.00318372
0.00282868
0.00121534
0.00105879
-0.000533728
-0.000916105
-0.00208711
-0.00258031
-0.00328405
-0.00371812
-0.00406765
-0.00433971
-0.00449692
0.00250614
0.00268406
0.00273439
0.00296239
0.00299022
0.00333652
0.00321837
0.00373743
0.00332602
0.00392501
0.00322717
0.00251008
0.00220273
0.000886219
0.000787183
-0.000541287
-0.000786598
-0.00181799
-0.00219131
-0.00283879
-0.00320225
-0.00355018
-0.00378799
-0.00397754
0.00228233
0.00246453
0.00249133
0.00271404
0.00269856
0.00302158
0.00285301
0.00331329
0.00289514
0.00337716
0.00276385
0.00198023
0.00172063
0.000620582
0.000562274
-0.000550424
-0.000696374
-0.00160429
-0.00187742
-0.0024715
-0.00276701
-0.00310875
-0.00331058
-0.00352289
0.00205015
0.00223563
0.00224198
0.00246111
0.00241101
0.00271559
0.00251488
0.00292676
0.00252016
0.00291391
0.00237247
0.00155791
0.0013467
0.000409149
0.000379978
-0.00055659
-0.000630045
-0.00142926
-0.00161957
-0.00216343
-0.00239596
-0.00272855
-0.00289487
-0.00312241
0.00181462
0.00200274
0.00199183
0.00220867
0.00213196
0.00242184
0.00220314
0.00257564
0.002192
0.00252253
0.00204135
0.00122352
0.00105544
0.000240377
0.000233774
-0.000558103
-0.00057765
-0.00128078
-0.00140289
-0.00190026
-0.00207566
-0.00239723
-0.00252962
-0.0027661
0.00157992
0.00177005
0.00174489
0.0019602
0.00186381
0.00214175
0.00191578
0.00225672
0.00190175
0.00218838
0.00176174
0.000954523
0.000818344
0.0001012
0.000118381
-0.000551889
-0.000530088
-0.0011485
-0.00121475
-0.00166915
-0.00179395
-0.00210298
-0.00220403
-0.00244447
0.00134957
0.00154079
0.00150404
0.00171779
0.00160763
0.00187536
0.00165004
0.00196628
0.00164205
0.00189793
0.00152059
0.000729968
0.000625121
-8.73535e-06
2.95161e-05
-0.000538165
-0.000483672
-0.00102695
-0.00104696
-0.0014613
-0.00154158
-0.00183673
-0.00190911
-0.00214935
0.00112649
0.00131742
0.00127131
0.00148274
0.00136341
0.0016217
0.00140244
0.00169901
0.0014071
0.00164212
0.0013101
0.000540904
0.000466852
-9.42283e-05
-3.66862e-05
-0.000516236
-0.000435337
-0.000911391
-0.000893061
-0.00126943
-0.00131069
-0.00159041
-0.00163672
-0.0018729
0.0009132
0.00110164
0.00104794
0.00125527
0.00113052
0.00137962
0.00116923
0.00144872
0.0011901
0.00141198
0.00112284
0.000380322
0.000336653
-0.000158516
-8.27924e-05
-0.000484954
-0.00038265
-0.000797687
-0.000747635
-0.00108755
-0.00109487
-0.00135715
-0.00137999
-0.00160807
0.000712144
0.000894733
0.000835051
0.00103507
0.000908406
0.00114672
0.000947867
0.00121116
0.000985653
0.00119957
0.00095212
0.000243258
0.000229443
-0.000203298
-0.000110762
-0.000443326
-0.000324132
-0.000682727
-0.000607168
-0.000910919
-0.000889291
-0.00113147
-0.00113338
-0.00134883
0.000525105
0.000696467
0.000632771
0.000820556
0.00069514
0.000917614
0.000733997
0.00097881
0.000786649
0.000994919
0.000789872
0.000126833
0.000142288
-0.000227127
-0.000120777
-0.000388725
-0.000258605
-0.000562846
-0.000468676
-0.000734493
-0.000689521
-0.000907125
-0.000891006
-0.00108775
0.00035644
0.000509534
0.000444556
0.000613439
0.000493464
0.000693336
0.000529088
0.000749783
0.00059149
0.000792687
0.000629294
3.14162e-05
7.30811e-05
-0.000228927
-0.000114591
-0.000320896
-0.000187971
-0.000437901
-0.000333801
-0.000558331
-0.000497138
-0.000684534
-0.000654381
-0.00082528
0.000200685
0.00031851
0.000259854
0.000391946
0.000290682
0.000447729
0.000316464
0.000491336
0.000374573
0.000550626
0.000439847
-3.51793e-05
2.39276e-05
-0.000190955
-8.57921e-05
-0.000225179
-0.00010873
-0.000291169
-0.000194776
-0.000361842
-0.000298038
-0.000438748
-0.000402364
-0.000530363
9.23443e-05
0.00017587
0.000128457
0.000224249
0.000146415
0.000261005
0.000164279
0.000292477
0.000211238
0.000356427
0.000255056
-6.0734e-05
-7.90178e-06
-0.000142536
-5.58249e-05
-0.000139464
-4.79797e-05
-0.000172395
-9.3369e-05
-0.000209059
-0.000152862
-0.00025086
-0.000216496
-0.000304611
-0.055738
-0.132084
-0.015159
-0.100823
-0.196654
-0.145107
-0.0902013
-0.177804
-0.198816
-0.0468437
-0.110665
-0.171043
0.00112401
-0.0369415
-0.101119
0.032087
0.0991434
0.0941917
0.0135395
-0.0287487
0.0369657
0.0957289
0.000700948
0.0390511
-0.0220114
-0.0486515
0.0220386
-0.108389
0.0321432
-0.12186
-0.0746714
-0.0357335
-0.0470716
-0.0910578
-0.0565924
-0.0853683
-0.125199
-0.0967668
-0.242678
-0.205845
-0.181783
-0.110175
-0.0862076
-0.0487533
-0.0830939
-0.0925097
-0.101889
-0.138952
-0.143438
-0.274557
-0.279854
-0.168414
-0.110489
-0.113646
-0.0313565
-0.044374
-0.0791797
-0.0706703
-0.0875706
-0.112729
-0.177359
-0.218067
-0.105542
-0.0820936
-0.105293
-0.0748407
-0.120059
-0.0386753
-0.0444207
-0.0727826
0.0170239
-0.0206658
0.0347164
0.03151
0.0919189
0.0349955
0.0243984
0.0158823
-0.0917441
-0.0400695
-0.0236399
-0.0450374
-0.0990158
0.066675
-0.0348142
-0.202115
-0.120166
-0.086434
-0.11478
-0.198328
-0.142639
-0.128401
-0.0904964
-0.132742
-0.148808
-0.103899
-0.131709
-0.277216
-0.244689
-0.182181
-0.246242
-0.262424
-0.201322
-0.244331
-0.174928
-0.116031
-0.136535
-0.0999286
-0.142196
-0.118442
-0.148563
-0.144107
-0.220431
-0.272294
-0.19352
-0.256281
-0.224139
-0.263929
-0.258406
-0.196814
-0.0865585
-0.0567506
-0.116313
-0.0906763
-0.123492
-0.173295
-0.137947
-0.169401
-0.122605
-0.221507
-0.172579
-0.146855
-0.0112174
0.0104759
-0.0521897
-0.0152908
-0.0265333
-0.0687598
-0.116496
-0.0744055
-0.0725361
0.0382659
0.0579355
0.0128468
0.0354334
0.0441362
0.0206911
-0.0112969
-0.0295469
0.0597378
-0.0634265
0.0984186
-0.00763221
-0.000613611
-0.0386005
-0.021191
-0.0166564
-0.0509815
0.00828961
-0.0164994
0.008244
-0.0136283
-0.0355345
0.12169
-0.00199843
0.0241655
-0.100985
-0.0688275
-0.0553499
-0.0836475
-0.0650032
-0.0823899
-0.0685245
0.00521955
0.015106
-0.0663068
-0.0392667
-0.0202589
-0.0441376
-0.063374
-0.0684343
-0.0279572
0.0159698
0.0256871
-0.0224958
0.0132852
-0.00645916
0.158553
0.108807
0.080021
0.0495078
0.0948317
0.157601
-0.0818666
-0.0522803
-0.0778274
0.0876436
-0.0599605
-0.0318873
-0.233163
-0.230361
-0.281878
-0.28181
-0.198559
-0.201265
-0.0930807
-0.0783539
-0.0969357
0.0347798
0.0114861
-0.0171637
0.00662106
-0.0033882
-0.0790641
-0.0731644
-0.105502
-0.075608
-0.107902
-0.080607
-0.0698214
-0.00854736
0.00574279
-0.0158223
-0.0733501
-0.170357
-0.165865
-0.142996
-0.143247
-0.117308
-0.118638
-0.269334
-0.26952
-0.253429
-0.221733
-0.211398
-0.231982
-0.224515
-0.254053
-0.222947
-0.188155
-0.169211
-0.2075
-0.193491
-0.226344
-0.133604
-0.131354
-0.150061
-0.149111
-0.255964
-0.257403
-0.240675
-0.220306
-0.230125
-0.201669
-0.21618
-0.238911
-0.266692
-0.236765
-0.233752
-0.232649
-0.236561
-0.266608
-0.0842294
-0.0748861
-0.0849074
-0.099032
-0.0678199
-0.0826195
-0.0705382
-0.106308
-0.100982
-0.101931
-0.14554
-0.148911
-0.199924
-0.180935
-0.196113
-0.159458
-0.175628
-0.195493
-0.00507622
0.00512959
-0.0362095
-0.0391635
-0.0650507
-0.00737454
-0.0337023
-0.0306343
-0.0327343
-0.00649181
-0.0444494
-0.0454436
-0.0206697
-0.0748705
-0.0480382
-0.050653
-0.0473876
0.0488077
0.0668359
0.0778674
0.0277167
0.0429824
0.0954204
0.0560073
0.0371721
0.193588
0.0104609
0.0244264
0.00387742
0.0190958
0.0302515
0.0135092
0.0643344
0.0442922
0.0464849
0.176227
0.00979946
-0.0126614
-0.0151471
0.0110018
0.012376
0.0828151
0.0650107
0.0795114
0.0146084
0.0177288
0.0671362
0.0604009
0.0773717
0.239889
0.175702
0.135494
0.119314
0.168101
0.240177
-0.114602
-0.0949883
-0.106117
-0.238425
-0.227309
-0.218159
-0.143381
-0.122214
-0.120415
-0.121777
-0.12356
-0.143974
-0.278893
-0.280415
-0.1875
-0.209354
0.0456031
0.037572
0.00204724
0.00978306
0.029603
0.0591592
0.0528716
0.0649638
0.0210052
0.00354752
0.114038
-0.189657
-0.214646
-0.225839
-0.154066
-0.127472
-0.0943414
-0.16198
-0.136302
-0.1648
-0.138456
-0.116981
-0.122036
-0.107982
-0.116196
-0.136537
-0.138499
-0.15233
-0.143395
-0.161565
-0.160204
-0.146411
-0.141423
-0.136952
-0.126034
-0.275028
-0.254613
-0.25083
-0.233195
-0.232646
-0.252669
-0.247963
-0.259445
-0.118063
-0.113412
-0.129009
-0.139403
-0.147878
-0.152181
-0.150157
-0.163381
-0.161907
-0.156076
-0.161031
-0.146785
-0.235429
-0.266927
-0.250198
-0.243641
-0.248002
-0.209811
-0.220008
-0.232546
-0.265628
-0.256008
-0.252553
-0.250511
-0.253219
-0.263194
-0.133186
-0.135303
-0.127062
-0.185752
-0.17335
-0.161783
-0.148854
-0.137532
-0.153962
-0.115912
-0.131927
-0.142088
-0.00080853
0.00174241
-0.00585941
0.0136278
0.00664244
0.00204078
0.0511608
0.0610382
0.021982
0.0243582
0.0160057
0.0345888
0.0473135
0.0556313
0.0488845
-0.000700486
0.140765
0.0246847
0.0114834
-0.00249384
-0.000989675
0.0137983
-0.00419877
-0.00607858
0.0630468
0.064132
0.165968
0.0374797
0.0445003
-0.0791642
-0.0747034
0.0082032
0.0103272
0.00929294
0.00945605
0.00666079
0.0153827
0.0102935
0.0104608
-0.0582112
-0.0535308
-0.0302031
-0.0335006
0.0185768
0.0176744
0.0172049
0.0188377
0.0232293
-0.117862
-0.0948878
-0.0557026
-0.135359
-0.105901
-0.128071
-0.237237
-0.221653
-0.280176
-0.282154
-0.190318
-0.206919
-0.0930193
-0.0879972
-0.0980444
-0.0744858
-0.084536
-0.0875152
-0.112533
-0.121942
-0.101161
-0.109291
0.0247838
0.0332125
0.0421734
0.0155575
0.0288536
0.0219068
0.0285224
0.0159826
-0.0945036
-0.0784773
-0.0906348
-0.0572341
-0.073848
-0.0905267
-0.107003
-0.113686
-0.0942924
-0.104472
-0.0467993
-0.0314236
-0.0516838
-0.0475443
-0.0554381
-0.188546
-0.21177
-0.186383
-0.201512
-0.16702
-0.144462
-0.198042
-0.173099
-0.147164
-0.167865
-0.18446
-0.156385
-0.15334
-0.139126
-0.153997
-0.159762
-0.146965
-0.153538
-0.164721
-0.165837
-0.160562
-0.162627
-0.146351
-0.159079
-0.157042
-0.127213
-0.133039
-0.115831
-0.124756
-0.141563
-0.145195
-0.134743
-0.140183
-0.124911
-0.135379
-0.129963
-0.274716
-0.266623
-0.241179
-0.234479
-0.252475
-0.258514
-0.247674
-0.241843
-0.142801
-0.149333
-0.137751
-0.151904
-0.145862
-0.165472
-0.152857
-0.137691
-0.125215
-0.143911
-0.13879
-0.163599
-0.163371
-0.149592
-0.168109
-0.168973
-0.166122
-0.168214
-0.166392
-0.164173
-0.168372
-0.166704
-0.148186
-0.161563
-0.163252
-0.246158
-0.263447
-0.235112
-0.240818
-0.247242
-0.233985
-0.22394
-0.232056
-0.257055
-0.255366
-0.266564
-0.264495
-0.255219
-0.255736
-0.0899003
-0.0904274
-0.0836014
-0.0797421
-0.0944478
-0.0854594
-0.0964495
-0.069808
-0.0654372
-0.0624108
-0.0770846
-0.0681363
-0.0726216
-0.120577
-0.112981
-0.122069
-0.123194
-0.105538
-0.102659
-0.0973797
-0.11005
-0.102326
-0.10763
-0.148065
-0.138561
-0.136632
-0.146214
-0.15505
-0.125306
-0.142279
-0.161538
-0.158321
-0.170072
-0.153846
0.00044012
0.00182698
7.36985e-05
0.00632962
0.00209844
0.00237951
0.00762111
-0.014297
-0.00102304
-0.0100158
-0.0617349
-0.0618205
-0.0712574
-0.0486551
-0.058787
-0.0582463
-0.0614565
-0.0645379
0.0644752
0.0760983
0.0259841
0.0315189
0.0726358
0.0580715
-0.00588345
-0.0236081
0.00027244
-0.000322114
0.0181341
0.0347382
0.320688
0.251121
0.22625
0.216098
0.255343
0.324629
0.0298585
0.0750159
0.0395471
-0.0778337
-0.0920634
-0.110664
-0.240837
-0.254891
-0.256652
-0.277343
-0.279904
-0.0999756
-0.0917178
-0.102414
-0.232685
-0.229541
-0.215316
-0.124142
-0.114319
-0.110264
-0.07366
-0.0556718
-0.0736393
-0.110225
-0.102595
-0.09346
-0.137148
-0.160914
-0.141557
-0.108938
-0.120508
-0.112463
-0.275803
-0.259279
-0.261718
-0.2467
-0.26496
-0.263767
-0.26114
-0.228767
-0.224214
-0.238156
-0.125996
-0.110369
-0.103428
-0.124018
-0.132949
-0.124
-0.222921
-0.237145
-0.234548
-0.270464
-0.254359
-0.259042
-0.260708
-0.264567
-0.266957
-0.266084
-0.262494
-0.264092
-0.260632
-0.113737
-0.120553
-0.122656
-0.213383
-0.204413
-0.208387
-0.0982424
-0.0940385
-0.110393
0.0541469
0.0574634
0.040956
0.0280573
0.0249018
0.0447844
0.0498434
0.0350815
0.0494371
0.0333175
-0.0522388
-0.0480088
-0.0807506
-0.068491
-0.0703506
-0.0708162
-0.0641862
-0.0648384
-0.0666101
-0.0404249
-0.0474998
-0.0438792
-0.0458477
-0.0427013
-0.0408915
0.0242994
0.0190323
0.0199704
0.0844586
0.142549
0.106374
-0.0954587
-0.0953997
-0.0839056
-0.068382
-0.151905
-0.143251
-0.042787
-0.00266802
0.00240142
-0.238248
-0.249452
-0.235676
-0.227519
-0.227821
-0.230773
-0.283642
-0.282239
-0.196688
-0.192995
-0.195874
-0.203034
-0.213742
-0.204923
-0.098087
-0.10085
-0.0743939
-0.0774314
-0.0813463
-0.103482
-0.106947
-0.106958
-0.110623
-0.0997579
-0.0834018
-0.101029
-0.0976236
-0.10121
-0.0681452
-0.0739292
-0.0806638
-0.119621
-0.121949
-0.10408
-0.10956
-0.111685
-0.00104482
-0.0253627
-0.038375
-0.0273092
-0.0300356
-0.0270406
-0.0662103
-0.169583
-0.161319
-0.128232
-0.122786
-0.110438
-0.124411
-0.125998
-0.270337
-0.269626
-0.207977
-0.202041
-0.214159
-0.235851
-0.219226
-0.213748
-0.126327
-0.135144
-0.140787
-0.253166
-0.258775
-0.269148
-0.269182
-0.266882
-0.266929
-0.268997
-0.268973
-0.0860774
-0.0871575
-0.0862232
-0.0840723
-0.0987275
-0.0963985
-0.0979274
-0.110394
-0.117918
-0.110572
-0.119306
-0.117622
-0.128511
-0.126286
-0.102759
-0.102959
-0.100664
-0.116725
-0.116102
-0.193062
-0.199033
-0.210325
-0.184935
-0.180111
-0.186587
-0.0506451
-0.044797
-0.0384288
-0.0580007
-0.051693
-0.0548843
-0.0348953
-0.0366049
-0.0453452
-0.0238817
-0.030619
-0.0312757
-0.0691494
-0.0687777
-0.0713331
-0.054016
-0.0507409
-0.0737509
0.0705243
0.0708478
0.0776298
0.0255829
0.0383106
0.0314802
0.0266244
0.0460439
0.0344197
0.0379443
0.0898665
0.0711242
0.045516
0.0533166
0.0471424
0.139546
0.229291
0.0960536
0.0114416
0.011743
0.0721731
0.0998599
0.102423
0.0162248
0.0168532
0.015915
0.0182988
0.0174848
0.016719
0.100211
0.0912902
0.0747394
0.152097
0.227296
0.190288
-0.253793
-0.253945
-0.239485
-0.232422
-0.221993
-0.214676
-0.236538
-0.232653
-0.278888
-0.27972
-0.193397
-0.195343
-0.184948
-0.189619
-0.212198
-0.225814
-0.222571
0.0419273
0.0445999
0.0482038
0.0374433
0.041805
0.0391009
-0.217901
-0.204542
-0.201487
-0.211631
-0.208043
-0.22176
-0.274897
-0.248283
-0.262022
-0.267007
-0.260105
-0.262756
-0.261678
-0.253283
-0.241839
-0.225659
-0.269967
-0.255361
-0.257342
-0.25276
-0.268117
-0.267465
-0.264934
-0.262231
-0.265423
-0.26634
-0.178652
-0.169926
-0.17641
-0.163836
-0.166566
-0.174955
0.0597903
0.0614515
0.0333419
0.0383836
0.038654
0.0376684
0.0333015
0.0590167
0.056611
0.0539726
0.0571118
0.0579058
0.050938
0.0533404
0.0517371
-0.0103353
-0.0250696
-0.0252854
0.00143789
0.110919
0.0928769
0.13097
0.030404
0.0491667
0.0706052
0.00259726
0.00373183
-0.000265762
0.0113616
0.00783638
0.00656305
-0.011489
-0.00941702
-0.0159177
-0.00404255
-0.00727777
-0.00757187
0.0803851
0.0862852
0.0584452
0.00272765
-0.0125566
0.0294824
0.0212097
-0.0800323
-0.0722478
-0.0720355
-0.0741987
0.00882514
0.00957178
0.00634439
0.00719203
0.0076252
-0.0624913
-0.0634206
-0.061784
-0.0472121
-0.0386659
-0.0572939
-0.0483688
-0.0572145
-0.0616318
-0.0288923
-0.0260008
-0.0274641
-0.0269142
-0.0317645
-0.0198555
-0.0233194
-0.0373014
-0.0394668
-0.0355483
0.019944
0.0200601
0.0192023
0.0212664
0.0207879
0.0212679
-0.110138
-0.097676
-0.105354
-0.140822
-0.134301
-0.120995
-0.250546
-0.235983
-0.250899
-0.252957
-0.239683
-0.238915
-0.243163
-0.241111
-0.282204
-0.283088
-0.202997
-0.207433
-0.197735
-0.200329
-0.193036
-0.189862
-0.186975
-0.219806
-0.216791
-0.204922
-0.216662
-0.0879666
-0.0947635
-0.0840621
-0.0805735
-0.0838123
-0.115824
-0.122335
-0.118457
-0.127587
-0.125597
-0.119018
-0.104101
-0.102361
-0.0991434
-0.114263
-0.106926
-0.10661
-0.112798
0.0191927
0.0174599
0.0138564
0.0237566
0.0197219
-0.0891052
-0.0905202
-0.0942933
-0.0978651
-0.0873164
-0.0803411
-0.0857825
-0.116064
-0.117848
-0.118948
-0.116914
-0.111463
-0.110273
-0.113855
-0.049323
-0.0412316
-0.0387065
-0.0252841
-0.0639206
-0.0650428
-0.0570635
-0.193208
-0.189931
-0.184617
-0.199282
-0.195271
-0.201884
-0.213927
-0.205056
-0.160449
-0.171248
-0.179534
-0.150963
-0.161759
-0.153217
-0.193031
-0.184408
-0.190253
-0.18235
-0.156026
-0.158713
-0.148067
-0.154374
-0.15296
-0.160226
-0.15869
-0.165193
-0.165479
-0.161364
-0.162028
-0.129619
-0.13146
-0.129012
-0.13515
-0.133456
-0.131436
-0.118121
-0.122458
-0.120833
-0.130187
-0.124052
-0.120592
-0.127477
-0.131391
-0.142917
-0.146335
-0.144758
-0.149405
-0.148014
-0.144206
-0.136364
-0.138416
-0.137077
-0.143386
-0.141757
-0.138542
-0.271804
-0.267756
-0.149752
-0.150796
-0.150881
-0.14818
-0.149984
-0.147716
-0.16377
-0.151759
-0.153693
-0.155356
-0.135377
-0.139789
-0.140271
-0.137464
-0.139455
-0.130754
-0.142031
-0.144549
-0.146314
-0.141196
-0.142591
-0.140222
-0.167866
-0.167847
-0.166293
-0.168123
-0.16516
-0.164376
-0.167666
-0.166435
-0.249656
-0.260839
-0.267125
-0.26921
-0.268703
-0.267434
-0.268352
-0.265956
-0.0876794
-0.0847131
-0.0857028
-0.0882907
-0.0974833
-0.0926717
-0.087795
-0.123102
-0.121182
-0.118085
-0.119768
-0.121601
-0.123827
-0.127093
-0.129399
-0.123979
-0.126176
-0.124997
-0.125241
-0.124796
-0.106158
-0.105342
-0.104302
-0.115432
-0.107784
-0.144754
-0.14681
-0.149599
-0.140569
-0.143805
-0.141791
-0.149596
-0.151693
-0.130488
-0.137311
-0.131175
-0.138055
-0.166
-0.157561
-0.160737
-0.152115
-0.154492
-0.161685
0.00142959
-0.00017434
0.000916008
-0.00212545
-0.00109363
0.000789715
0.00550365
0.00717015
0.00685361
0.00270878
0.00523328
0.00266532
0.00645653
-0.0141022
-0.0103386
-0.0289527
-0.0202169
-0.00135779
-0.00376719
-0.00328288
-0.00778503
-0.00503606
-0.0021991
-0.0630283
-0.0662062
-0.0652271
-0.0579983
-0.0682993
0.0632899
0.0660001
0.0285523
0.0247416
0.0221755
0.0301067
0.0280536
0.0300606
0.028358
0.0303482
0.0649243
0.06038
0.0277264
0.0369147
0.0289218
0.0403504
0.0442601
0.0321458
0.0428887
0.0318654
0.025946
0.0263656
0.0136507
0.013734
0.0160532
0.0229525
0.0232434
0.0276435
0.0471617
0.0396253
0.0569538
0.0864651
0.0498357
0.0852685
0.0427806
0.0344284
0.0298741
0.00482576
0.0109363
-0.000694565
-0.00768186
-0.00238834
0.00675286
0.00878341
0.0208948
0.0117137
0.0307339
0.0478066
0.0578581
0.0903064
0.0767625
0.135765
0.091806
0.0751326
0.0257838
0.00982432
0.0164401
-0.0257609
-0.0244873
-0.0147614
-0.00923042
-0.0185434
0.00267398
-0.00430497
-0.00466332
0.00630566
0.0149225
0.0184372
0.0327222
-0.0647362
-0.0580747
-0.0303738
-0.0666298
-0.0492203
-0.0364194
-0.0235642
-0.0394427
-0.0250382
-0.0371109
-0.0457839
-0.0372477
-0.0723556
-0.0814793
-0.0729617
-0.160799
-0.126272
-0.103613
-0.0966229
-0.0698992
-0.0609716
-0.0278919
-0.0415948
-0.0417122
-0.0508966
-0.0613266
-0.0603554
-0.103157
-0.114082
-0.113446
-0.184668
-0.146738
-0.144008
-0.098536
-0.0752411
-0.074809
-0.0214582
-0.0277004
-0.0391817
-0.0417035
-0.048518
-0.0537431
-0.0811406
-0.0877225
-0.0930582
-0.139338
-0.117681
-0.131559
-0.0759172
-0.0641008
-0.071395
-0.00933662
-0.00794816
-0.0228423
-0.033992
-0.0353767
-0.0428212
-0.0708879
-0.0662728
-0.0861723
-0.0440251
-0.0439322
-0.0545292
0.00218919
0.00772755
-0.00337293
-0.0106118
-0.0208598
-0.0321891
-0.0169544
-0.0239653
-0.0334483
0.00927454
0.0128193
0.00991333
0.017855
0.029338
0.0282103
0.035896
0.0475248
0.0518776
0.0635149
0.0673826
0.0661449
0.0175421
0.00157287
-0.0084248
-0.00520375
-0.00992415
-0.0161306
0.0115048
0.014854
0.0143889
0.0180953
0.0225551
0.0276592
0.0243036
0.0241698
0.0403015
0.0251821
0.0171215
0.0225134
0.0147531
0.00678644
0.00289303
0.00168095
-0.00305586
-0.00586073
0.0150836
0.0179454
0.0197249
0.0154078
0.0190847
0.0192096
0.0212272
0.0120924
0.0152442
0.0114445
0.00650284
0.00719662
-0.0633335
-0.0524083
-0.0459487
-0.117081
-0.131116
-0.154348
-0.00812326
-0.0280266
-0.0325621
-0.111825
-0.109177
-0.0982337
-0.193094
-0.214071
-0.220097
-0.161021
-0.179394
-0.156446
-0.0980572
-0.102591
-0.0940081
-0.183858
-0.203867
-0.193204
-0.221011
-0.222424
-0.199558
-0.0499219
-0.056529
-0.0530586
-0.119505
-0.128931
-0.113909
-0.188897
-0.175139
-0.16356
-0.0455304
-0.0443755
-0.0352482
-0.104762
-0.0941329
-0.0913885
0.0495114
0.035932
0.0223533
0.0993396
0.0951584
0.0907317
0.0894526
0.0789456
0.0961272
-0.0263802
-0.0175933
-0.0207984
0.0711574
0.092607
0.0555545
0.376482
0.338406
0.349328
0.0838624
0.104013
0.137596
0.365821
0.385997
0.0130638
0.0241914
0.010243
0.0658504
0.0749934
0.0349798
-0.0272405
-0.0161506
-0.0132266
-0.0198372
-0.0182872
-0.0323882
0.0105642
-0.00349543
-0.00929152
-0.0916888
-0.099587
-0.128336
0.0425783
0.0187246
0.0120907
-0.0963159
-0.0673239
-0.0800083
-0.0619149
-0.0663053
-0.0824459
-0.0337873
-0.0496799
-0.0488155
-0.0574469
-0.0525538
-0.0427828
-0.080982
-0.0635644
-0.069311
-0.0449149
-0.0553935
-0.0762786
-0.0954363
-0.0889309
-0.07924
-0.121846
-0.115177
-0.118512
-0.0901669
-0.0951
-0.101067
-0.213761
-0.217036
-0.210017
-0.143536
-0.130249
-0.167635
-0.104242
-0.119347
-0.126441
-0.097045
-0.1095
-0.0962735
-0.0578047
-0.0604067
-0.0504868
-0.0911647
-0.0719666
-0.0684425
-0.0725816
-0.0734261
-0.0928381
-0.112216
-0.113651
-0.102906
-0.140894
-0.133807
-0.132269
-0.135796
-0.136369
-0.143974
-0.136868
-0.143874
-0.18225
-0.11371
-0.130307
-0.126066
-0.130613
-0.131907
-0.114908
-0.0355556
-0.0423639
-0.0368171
-0.0606766
-0.0488891
-0.0404787
-0.0631859
-0.0565608
-0.0658403
-0.0760076
-0.0820001
-0.076019
-0.0985058
-0.0880412
-0.0788114
-0.10843
-0.105341
-0.109947
-0.181161
-0.179312
-0.176371
-0.0931728
-0.111066
-0.131117
-0.0907851
-0.101054
-0.0901778
-0.119459
-0.110978
-0.0986773
-0.081003
-0.0839507
-0.0745945
-0.121185
-0.118081
-0.116856
-0.044998
-0.0568971
-0.0626367
-0.0536692
-0.0558346
-0.0448692
-0.0787394
-0.0670864
-0.0632143
0.0122472
0.0158806
0.0209455
-0.0191216
-0.012982
-0.0148013
0.0382208
0.0452994
0.035915
0.0565552
0.0498047
0.0446018
0.0774612
0.076638
0.0673127
0.0362938
0.0418638
0.0564151
0.0244459
0.0368833
0.0313826
0.0379619
0.0379402
0.0225541
-0.0862569
-0.0793884
-0.0850176
-0.0274564
-0.049799
-0.0664514
-0.0352834
-0.0401635
-0.0265616
-0.0556646
-0.0691656
-0.0538399
0.0520905
0.0570785
0.0752317
-0.0409769
-0.0281572
-0.0228633
-0.198263
-0.206284
-0.210347
-0.125709
-0.134237
-0.128813
-0.0929789
-0.111651
-0.102809
-0.129363
-0.1212
-0.107813
-0.179944
-0.172729
-0.183414
-0.141513
-0.133903
-0.135043
-0.121527
-0.124446
-0.131564
-0.094879
-0.105578
-0.100964
-0.135125
-0.138565
-0.136532
-0.152906
-0.152345
-0.147646
-0.134821
-0.133038
-0.129407
-0.201643
-0.211703
-0.188241
-0.248383
-0.23959
-0.236115
-0.211453
-0.195657
-0.188386
-0.234946
-0.232265
-0.24216
-0.16636
-0.184414
-0.1981
-0.11945
-0.114886
-0.111704
-0.130346
-0.128376
-0.134032
-0.0973449
-0.106558
-0.109786
-0.141473
-0.143729
-0.145506
-0.120412
-0.122365
-0.120054
-0.149614
-0.153682
-0.153213
-0.147449
-0.14899
-0.144776
-0.215555
-0.207411
-0.189152
-0.218116
-0.221958
-0.227141
-0.198858
-0.221685
-0.21797
-0.08232
-0.0846012
-0.09207
-0.0609302
-0.0644092
-0.0609463
-0.1146
-0.117624
-0.118711
-0.094674
-0.0997474
-0.0942489
-0.126654
-0.127399
-0.124309
-0.174094
-0.171633
-0.169219
-0.150084
-0.134441
-0.12883
-0.160262
-0.156149
-0.161946
-0.12056
-0.126433
-0.128889
-0.219005
-0.2117
-0.214508
-0.167854
-0.173889
-0.181705
-0.155428
-0.170102
-0.1553
-0.00744309
-0.00555231
-0.00937326
0.0119095
0.00921705
0.0076312
-0.0470881
-0.0497521
-0.0558086
-0.0134323
-0.0181404
-0.0198707
-0.0324929
-0.0316552
-0.0253424
-0.0714318
-0.0618325
-0.0626592
-0.110431
-0.108678
-0.114634
-0.0724076
-0.0884777
-0.0923978
-0.0818817
-0.0837669
-0.0736742
0.0481928
0.061679
0.0462987
0.0725594
0.063877
0.0501187
0.0159417
0.0171932
0.0144615
0.035667
0.053426
0.0593611
-0.0118537
0.00336465
0.0017556
0.0072304
0.0049438
-0.0198237
0.0412806
0.0239742
0.0207119
0.113978
0.0840739
0.0745977