/*--------------------------------*- C++ -*----------------------------------*\
| =========                 |                                                 |
| \\      /  F ield         | OpenFOAM: The Open Source CFD Toolbox           |
|  \\    /   O peration     | Version:  5.x                                   |
|   \\  /    A nd           | Web:      www.OpenFOAM.org                      |
|    \\/     M anipulation  |                                                 |
\*---------------------------------------------------------------------------*/
FoamFile
{
    version     2.0;
    format      ascii;
    class       surfaceScalarField;
    location    "600";
    object      phi;
}
// * * * * * * * * * * * * * * * * * * * * * * * * * * * * * * * * * * * * * //

dimensions      [0 3 -1 0 0 0 0];

internalField   nonuniform List<scalar> 
13181
(
8.78719e-06
0.00915661
8.52443e-06
0.00916726
7.47823e-06
0.00916755
6.3735e-06
0.0091676
4.58792e-06
0.00916879
-2.61413e-06
0.0091737
-6.86903e-06
0.0091709
-7.00465e-06
0.00916684
-5.00238e-06
0.00916465
6.19024e-07
0.00916103
1.02251e-05
0.00915709
2.1924e-05
0.00915495
3.2308e-05
0.00915627
3.82041e-05
0.0091608
3.86895e-05
0.00916616
3.48434e-05
0.0091705
2.84327e-05
0.00917311
2.08546e-05
0.00917423
9.16958e-06
0.00917818
-8.02673e-07
0.00917697
-1.34863e-05
0.00917918
-1.8659e-05
0.00917167
-1.96955e-05
0.00916804
0.00914527
1.25661e-05
0.00914122
3.55134e-05
0.00914432
3.6013e-05
0.00916705
3.57272e-05
0.00916789
3.00711e-05
0.00917444
1.14343e-05
0.00919234
-1.28649e-05
0.0091952
-1.96676e-05
0.00917364
-1.70125e-05
0.00916199
-5.98893e-06
0.00457489
0.00457511
1.34924e-05
0.00456875
0.00456887
3.81138e-05
0.00456494
0.00456539
6.0021e-05
0.00456668
0.00456768
7.23265e-05
0.00457364
0.00457485
7.31265e-05
0.0045821
0.00458326
5.73885e-05
0.00918623
3.4279e-05
0.00919622
1.15716e-05
0.00919694
-1.20084e-05
0.00920177
-2.04572e-05
0.00918542
-2.13158e-05
0.00918004
-2.24549e-05
0.00917281
-4.90891e-07
0.00914607
0.00914095
-3.58365e-06
0.00914019
-3.09544e-07
0.00914104
1.98321e-05
0.0091469
1.82833e-05
0.00916944
1.99243e-05
0.0091728
2.20747e-05
0.00919019
-9.57771e-06
0.00922686
-2.95729e-05
0.00919363
-1.49629e-05
0.0091665
-1.91205e-05
0.00457136
-1.14269e-05
0.00456301
-1.1255e-06
6.8646e-06
-6.28808e-06
0.00455653
1.46979e-05
-2.37311e-05
0.00455824
3.21711e-05
-3.92563e-05
0.00456845
4.44515e-05
-4.69686e-05
0.00458239
4.66832e-05
4.76095e-05
0.00461231
-3.69565e-05
-4.78349e-05
0.0046111
7.7121e-06
0.00923612
-6.31902e-06
0.00921097
-5.91643e-06
0.00920136
-7.9144e-06
0.00918742
-9.7805e-06
0.00918191
7.48401e-06
0.00915555
8.28963e-06
0.00914527
0.00914315
-9.45365e-06
0.00914331
-1.21524e-05
0.00914374
-1.22646e-05
0.00914702
1.95192e-06
0.00915522
-1.88702e-06
0.00917664
-5.20755e-07
0.00918882
-3.33644e-06
0.00922967
-2.13069e-05
0.0092116
-2.93081e-05
0.00461185
-3.1858e-05
0.00459451
0.00456489
-2.49536e-05
-0.00456924
0.00454732
-1.06923e-05
-0.00455588
1.9254e-05
-1.60614e-06
0.00452947
1.71641e-05
-0.00454503
-3.4417e-05
0.00453016
5.07087e-05
-0.00454645
-6.25219e-05
0.00456462
6.08636e-05
-0.00456297
-4.31752e-05
0.00461412
2.12542e-05
-0.0045922
-6.47106e-06
0.00461593
2.85412e-06
3.59221e-05
0.00461558
-1.66234e-05
-5.11269e-06
0.00460636
2.77193e-05
0.00921917
1.82581e-05
0.00921082
6.87633e-06
0.0091988
1.79591e-05
0.00917083
1.70665e-05
0.00915644
1.17147e-05
0.00915062
0.00914687
-1.13365e-05
0.00914677
-1.57403e-05
0.00914814
-2.08358e-05
0.00915211
-2.22559e-05
0.00915664
-1.50362e-05
0.00916942
-1.72769e-05
0.00919106
1.76569e-05
0.00919474
2.45395e-05
0.00458605
1.24978e-05
0.00460617
0.00463857
-2.17947e-06
0.00457026
-2.62362e-05
-0.00456484
2.08151e-05
0.00454234
-3.07775e-05
-0.00453965
2.80911e-05
1.34064e-05
1.43922e-05
-0.00450867
0.00224016
0.00224071
-4.78275e-05
8.00211e-05
-0.00450785
0.00223789
0.00223776
-8.9873e-05
5.29257e-05
-0.00458311
0.00230396
0.00231609
-6.21123e-05
0.00461668
6.20698e-05
-0.00461663
-5.24583e-05
0.00462559
5.15086e-05
-0.00462464
-4.85273e-05
0.00461735
4.67522e-05
5.29442e-05
0.00924881
-4.4096e-05
-3.84865e-05
3.19143e-05
0.00923185
3.32127e-05
0.0091975
2.7487e-05
0.00917655
1.92219e-05
0.0091647
1.33959e-05
0.00915644
0.009151
-1.25049e-05
0.00915026
-1.72074e-05
0.00915285
-2.32899e-05
0.0091582
-3.17367e-05
0.00916509
-3.62617e-05
0.00917394
-3.80688e-05
0.00919287
-2.35342e-05
0.00921242
-3.22209e-05
0.00459462
-3.21041e-05
0.00459884
6.82548e-06
-0.0046319
2.62333e-05
0.00457395
2.87243e-05
-0.00457819
-2.4481e-05
-0.00227953
-5.62371e-06
0.00228434
8.14932e-07
-0.00222647
6.87573e-06
0.00222768
-8.07997e-06
-0.0022146
-3.06401e-05
0.00220156
4.36748e-05
-0.00229397
-3.62738e-05
0.00226615
6.40907e-05
-4.70572e-05
0.000113419
-0.00462535
-5.11282e-05
0.00230085
0.00230927
-0.000107618
0.00464438
9.18006e-05
-0.00462857
-7.47384e-05
-0.00462851
0.00464292
6.03255e-05
6.57757e-05
0.00928679
-5.3905e-05
-4.98479e-05
5.14325e-05
0.0092462
3.97045e-05
0.00920923
2.75167e-05
0.00918874
1.94461e-05
0.00917278
1.34911e-05
0.0091624
0.00915487
-1.32842e-05
0.00915387
-1.82611e-05
0.00915782
-2.41176e-05
0.00916405
-3.20553e-05
0.00917303
-4.35251e-05
0.00918541
-5.40999e-05
0.00920344
-3.51551e-05
0.00922894
-3.54574e-05
-0.00460312
0.00461236
-4.43996e-05
-0.00459949
0.00461368
-7.01884e-05
5.6001e-05
-0.00458304
0.00460605
8.84698e-05
-5.23167e-05
-5.91679e-05
-0.00227005
5.23847e-05
0.00227023
-5.25649e-05
-0.00110825
1.52883e-05
0.00110391
-1.09541e-05
-2.01655e-05
-0.0010565
0.00105089
2.57762e-05
-5.26746e-05
-0.00228765
0.000102139
-3.91223e-05
0.00112572
0.00115159
-0.000110732
-0.00231652
0.00232953
9.77181e-05
-0.000145135
-0.0046699
0.00470052
0.00011451
-8.97645e-05
-0.00465936
0.00467937
6.97591e-05
7.32232e-05
0.00931921
-5.21252e-05
-5.35261e-05
5.33453e-05
0.00926607
3.52386e-05
0.00922734
2.34753e-05
0.0092005
1.58817e-05
0.00918037
1.07672e-05
0.00916751
0.00915679
-1.26031e-05
0.00915677
-1.72993e-05
0.00916252
-2.26296e-05
0.00916938
-3.07486e-05
0.00918115
-4.15201e-05
0.00919619
-5.71842e-05
0.00921911
-3.47297e-05
0.0092465
-4.00213e-05
-0.00462235
0.00463289
-4.52651e-05
-0.00463242
0.00465096
-7.77637e-05
5.92272e-05
-0.00463907
0.00467609
0.000103627
-6.86674e-05
-7.19797e-05
-0.00230382
9.62034e-05
0.00232378
-0.000116161
-0.00111896
0.000102031
0.00113231
-0.000115388
-0.00014924
-0.00116683
0.00118132
0.000134742
-0.000150336
-0.00237813
0.00240079
0.000127674
-0.000164405
-0.00473994
0.00477825
0.0001261
-9.75711e-05
-0.0047029
0.00472364
7.68297e-05
6.58244e-05
0.00936554
-5.24835e-05
-5.96673e-05
3.6721e-05
0.00929518
2.33299e-05
0.00924073
1.47307e-05
0.0092091
1.00136e-05
0.00918509
7.71312e-06
0.00916981
0.00915764
-1.15472e-05
0.00915917
-1.4474e-05
0.00916545
-1.85467e-05
0.00917345
-2.356e-05
0.00918616
-3.04493e-05
0.00920308
-4.01615e-05
0.00922882
-3.06192e-05
0.00926221
-2.52494e-05
-0.00463566
0.00464436
-3.93135e-05
-0.00467313
0.00468794
-6.92829e-05
5.44778e-05
-0.00471272
0.00473978
8.8488e-05
-6.07141e-05
-5.48353e-05
-0.00238226
8.54393e-05
0.00239781
-0.000100983
-0.001221
8.99187e-05
0.00122994
-9.88593e-05
-0.000121526
-0.00128428
0.00129513
0.000110683
-0.000111448
-0.00246334
0.00248137
9.34179e-05
-0.000108763
-0.00481368
0.00483995
8.24944e-05
-6.23312e-05
-0.00474183
0.00475528
4.88827e-05
4.21251e-05
0.00938424
-2.43025e-05
-3.65197e-05
1.83909e-05
0.00931891
5.91975e-06
0.0092532
2.96067e-06
0.00921206
1.77398e-06
0.00918627
1.56216e-06
0.00917003
0.0091555
-9.36693e-06
0.00916048
-1.1763e-05
0.00916784
-1.36771e-05
0.00917537
-1.63833e-05
0.00918887
-1.81821e-05
0.00920487
-2.03594e-05
0.009231
-1.43644e-05
0.00926417
-7.95685e-06
-0.00465224
0.00466013
-2.2252e-05
-0.00469738
0.00470104
-2.929e-05
2.56284e-05
-0.00475596
0.00475971
3.2621e-05
-2.222e-05
-1.41515e-05
-0.00242651
2.88949e-05
0.00242929
-3.16709e-05
-0.00126383
2.34532e-05
0.00126471
-2.43287e-05
-2.07705e-05
-0.0013362
0.00133726
1.97123e-05
-2.03021e-05
-0.00251258
0.00251527
1.76049e-05
-1.28364e-05
-0.00485451
0.00485596
1.13923e-05
-1.01243e-05
-0.0047635
0.00476564
7.98511e-06
3.03183e-06
0.00937907
6.85069e-06
-4.7155e-06
6.93707e-06
0.00931501
-7.99198e-06
0.00926813
-1.13573e-05
0.00921543
-7.43156e-06
0.00918235
-4.66372e-06
0.00916726
0.00915123
-7.43079e-06
0.00916127
-8.31419e-06
0.00916873
-8.63626e-06
0.00917569
-7.63842e-06
0.00918787
-6.61449e-06
0.00920385
-1.043e-06
0.00922543
1.44221e-06
0.00925679
4.89784e-06
-0.00466285
0.00466352
7.75489e-07
-0.00469903
0.00469176
1.26137e-05
-5.34912e-06
-0.00475167
0.00473453
-2.43973e-05
1.727e-05
2.42611e-05
-0.00241888
-2.81007e-05
0.00241039
3.65883e-05
-0.00124625
-3.70217e-05
0.00124124
4.20304e-05
7.36072e-05
-0.00130997
0.00130225
-6.58893e-05
6.96301e-05
-0.00249927
0.00248795
-5.83082e-05
7.91724e-05
-0.00484511
0.00482469
-5.87434e-05
4.2265e-05
-0.00476069
0.00475045
-3.20283e-05
-3.52007e-05
0.0093545
3.40054e-05
2.57607e-05
-1.79177e-05
0.00929772
-7.49165e-06
0.0092577
-2.52291e-05
0.00923316
-1.79063e-05
0.00917502
-1.1278e-05
0.00916063
0.00914504
-5.11499e-06
0.00916126
-4.27501e-06
0.00916789
-2.98891e-06
0.0091744
-1.47557e-07
0.00918503
5.72557e-06
0.00919798
1.65465e-05
0.00921461
1.26612e-05
0.00924501
1.56695e-05
-0.00465815
0.00465221
1.86029e-05
-0.00468107
0.00466841
4.04513e-05
-2.77924e-05
-0.00471094
0.00468506
-5.87032e-05
4.12662e-05
4.3315e-05
-0.00237636
-6.02986e-05
0.00236367
7.29817e-05
-0.00119808
-6.53304e-05
0.00119116
7.2243e-05
0.000114757
-0.00123916
0.00123008
-0.000105672
0.000119157
-0.00244097
0.00242364
-0.000101826
0.000136344
-0.00479521
0.00476062
-0.000101757
7.81175e-05
-0.00473557
0.00471832
-6.08646e-05
-6.08568e-05
0.00931597
5.16048e-05
4.77903e-05
-3.65572e-05
0.00927342
-1.99617e-05
0.00924111
-1.11855e-05
0.00922439
-2.69952e-05
0.00919083
-1.80873e-05
0.00915172
0.0091369
-3.22272e-06
0.00916079
-1.62205e-06
0.00916629
5.55034e-07
0.00917223
5.0457e-06
0.00918054
1.17487e-05
0.00919127
2.37531e-05
0.0092026
1.99979e-05
0.00922813
2.06353e-05
-0.00464469
0.00463728
2.74056e-05
-0.00465499
0.00464244
4.87626e-05
-3.62128e-05
-0.0046593
0.00463677
-6.54488e-05
4.48699e-05
4.31071e-05
-0.00232756
-6.20748e-05
0.0023174
7.22364e-05
-0.0011487
-5.90204e-05
0.00114433
6.33876e-05
0.000107407
-0.00116692
0.00115872
-9.92085e-05
0.000119651
-0.00237291
0.00235813
-0.000104867
0.000142886
-0.00472315
0.00469189
-0.000111632
8.82589e-05
-0.00470058
0.00468345
-7.11312e-05
-7.09279e-05
0.00927662
5.49616e-05
5.53124e-05
-4.48369e-05
0.00924733
-2.63945e-05
0.00922266
-2.135e-05
0.00921934
-3.08698e-05
0.00920035
-2.40427e-05
0.0091449
0.00912742
-1.41287e-06
0.00915967
-4.0217e-08
0.00916491
2.82137e-06
0.00916937
6.84075e-06
0.00917652
1.31493e-05
0.00918497
2.25012e-05
0.00919325
3.48092e-05
0.00921582
3.19907e-05
0.00924493
2.26955e-05
-0.00463082
-0.00463399
-0.004632
0.004625
3.89881e-05
-0.00461904
0.00462605
3.36791e-05
-4.06867e-05
-0.00230279
-4.95279e-06
0.00232803
-2.02944e-05
-0.00114906
3.57551e-05
0.00113051
-1.72068e-05
-0.000341144
1.43454e-05
0.000352607
-2.58083e-05
4.43457e-05
-0.00112393
0.00225872
-8.91707e-05
3.89738e-05
-0.00112894
-0.00232594
8.60557e-05
0.00232081
-8.09197e-05
0.000111108
-0.00466761
0.00464895
-9.24527e-05
7.65834e-05
-0.00467033
0.0046649
-7.1162e-05
-6.73879e-05
0.00924651
4.63661e-05
5.11266e-05
-4.46475e-05
0.00922459
-2.78779e-05
0.00920589
-3.71275e-05
0.00922859
-8.09906e-06
0.00917133
-2.63142e-05
0.00916311
0.00911976
-1.21552e-06
0.00915918
2.5988e-08
0.00916367
2.029e-06
0.00916736
4.81667e-06
0.00917373
9.68904e-06
0.00918009
1.42014e-05
0.00918874
7.26687e-06
0.00922275
-1.05659e-05
0.00929548
-3.27174e-05
-0.00463489
0.00465306
-2.87423e-05
-0.00463654
0.00461696
-7.74993e-06
2.73351e-05
-0.00229419
-1.41053e-05
0.00229043
1.78683e-05
-0.00226047
-8.47525e-06
0.0022676
1.34255e-06
-0.00096115
4.32529e-05
0.00202285
-6.69282e-05
-0.00103802
-0.00228395
7.56747e-05
0.00227807
-6.97962e-05
-0.00461091
7.98922e-05
0.00461991
-0.000144797
5.5901e-05
0.000134414
-0.00463823
0.00462498
-0.000121165
-0.000152291
0.00923357
7.84487e-05
0.000110765
-0.00467909
-0.00459141
-0.000121567
0.00921579
-9.80662e-05
0.00920109
-7.69081e-05
0.00918474
-2.00369e-05
0.00917172
-8.28369e-06
0.00915957
1.18199e-06
0.00915364
0.00914297
-1.05362e-06
0.00915901
-7.18596e-07
0.00916334
1.05734e-07
0.00916654
1.79301e-06
0.00917204
3.31584e-06
0.00917857
7.94229e-07
0.00919126
-2.43239e-05
0.00924787
-3.30058e-05
0.00929915
5.01647e-06
-0.00464993
0.0046213
-4.37871e-06
-0.00460473
0.00460468
1.0472e-05
-1.0418e-05
-0.00458869
0.00459767
-2.41903e-06
-6.56516e-06
-0.00228369
6.35246e-06
0.0022873
-9.95451e-06
-0.00206712
3.26041e-05
0.00208061
-4.60948e-05
-0.00227685
4.77384e-05
0.00456775
-0.000103989
-0.00228018
4.55245e-05
-0.00460982
0.000113013
0.00460256
-0.000105752
-0.00461656
0.000100147
0.00460943
-9.30146e-05
-0.000116955
0.00919371
7.36845e-05
8.31311e-05
-8.51606e-05
0.009184
-7.21508e-05
0.00918808
-6.40809e-05
0.00917667
-5.58282e-05
0.00916347
-4.68005e-05
0.00915054
-3.5041e-05
0.00914189
0.00913256
-1.81184e-06
0.00915976
-1.52222e-06
0.00916305
-1.50083e-06
0.00916652
-1.49414e-06
0.00917203
-2.27849e-06
0.00917935
-1.40403e-05
0.00920302
-3.13201e-05
0.00926515
-1.82764e-06
0.00926965
-2.50527e-07
0.00923614
-0.00462029
-0.00461387
-3.55815e-06
-0.00460768
0.00460955
-2.11862e-06
-0.00460527
0.00461161
-1.2333e-05
5.99533e-06
-0.00458913
2.11021e-05
0.00459271
-2.46855e-05
-0.00432918
4.71032e-05
0.00435013
-6.80582e-05
-0.00457714
7.47099e-05
0.00458117
-7.87409e-05
-0.00459682
7.86415e-05
0.00459403
-7.58506e-05
-0.00460455
7.35818e-05
0.00460092
-6.99507e-05
-0.000112828
0.00917993
6.17528e-05
6.48536e-05
-9.45296e-05
0.0091657
-7.57457e-05
0.0091693
-5.65262e-05
0.00915745
-3.92868e-05
0.00914623
-3.10365e-05
0.00914229
-2.74106e-05
0.00913826
0.00913174
-2.35907e-06
0.00916096
-3.15377e-06
0.00916384
-4.42028e-06
0.00916778
-5.47573e-06
0.00917309
-1.02622e-05
0.00918414
-3.30439e-05
0.0092258
-3.31388e-05
0.00926524
-1.23434e-05
0.00924886
-1.91804e-05
0.00924298
-1.46046e-05
0.00923895
-0.0046123
-0.00461361
-1.76138e-05
-0.0046172
0.00462192
-1.93222e-05
-0.00459208
2.70939e-05
0.00458184
-1.68544e-05
-0.00436626
4.32935e-05
0.00438239
-5.94271e-05
-0.00458527
5.46213e-05
0.00458921
-5.85657e-05
-0.000112369
0.00918906
-0.00459384
-0.00459489
5.39362e-05
5.811e-05
-0.000107192
0.00919029
-0.00459827
-0.0045972
-9.7951e-05
0.00917069
-8.9235e-05
0.00915698
-7.29925e-05
0.00915306
-5.86855e-05
0.00914314
-4.64851e-05
0.00913403
-3.633e-05
0.00913214
-2.27647e-05
0.00912469
0.00913674
-3.08423e-06
0.00916258
-4.92602e-06
0.00916568
-6.37536e-06
0.00916923
-8.28214e-06
0.009175
-1.21465e-05
0.00918801
-2.96111e-05
0.00924327
-2.22593e-05
0.00925789
-1.50069e-05
0.00924161
-2.38492e-05
0.00925182
-3.57302e-05
0.00925083
-4.35312e-05
0.00926135
-0.0046292
-0.00462434
-6.88149e-05
0.00884931
-0.00453794
-0.00428609
-9.06437e-05
0.00896391
-0.00440983
-0.00453225
-9.58018e-05
0.00920138
-0.00459483
-0.0046014
-9.52953e-05
0.00918855
-9.22418e-05
0.00918723
-8.57786e-05
0.00916423
-7.89231e-05
0.00915013
-6.71575e-05
0.00914129
-5.6818e-05
0.0091328
-4.89826e-05
0.00912619
-3.73701e-05
0.00912053
-2.74441e-05
0.00911477
0.00913768
-3.90162e-06
0.00916459
-5.71251e-06
0.00916749
-8.21745e-06
0.00917174
-1.07646e-05
0.00917754
-1.48715e-05
0.00919211
-2.50152e-05
0.00925341
-2.12384e-05
0.00925412
-1.93888e-05
0.00923976
-2.60423e-05
0.00925848
-3.5631e-05
0.00926042
-4.25484e-05
0.00926826
-5.89177e-05
0.00886568
-7.38845e-05
0.00897888
-7.90226e-05
0.00920652
-8.15119e-05
0.00919104
-8.00435e-05
0.00918577
-7.57638e-05
0.00915995
-7.02565e-05
0.00914462
-6.1744e-05
0.00913278
-5.34017e-05
0.00912446
-4.57302e-05
0.00911852
-3.69715e-05
0.00911177
-2.86834e-05
0.00910648
0.00913756
-4.75283e-06
0.00916691
-7.44768e-06
0.00917019
-1.03767e-05
0.00917467
-1.33825e-05
0.00918055
-1.64616e-05
0.00919519
-2.04834e-05
0.00925743
-2.08435e-05
0.00925448
-2.2008e-05
0.00924092
-2.76737e-05
0.00926414
-3.57236e-05
0.00926847
-4.05273e-05
0.00927307
-5.27165e-05
0.00887787
-6.39376e-05
0.0089901
-6.77862e-05
0.00921037
-7.08663e-05
0.00919412
-7.00727e-05
0.00918497
-6.7151e-05
0.00915703
-6.32136e-05
0.00914068
-5.69186e-05
0.00912648
-5.01629e-05
0.0091177
-4.34054e-05
0.00911176
-3.58501e-05
0.00910421
-2.86215e-05
0.00909925
0.00913732
-5.60104e-06
0.00916947
-8.58862e-06
0.00917318
-1.13191e-05
0.0091774
-1.46348e-05
0.00918387
-1.79899e-05
0.00919855
-1.97007e-05
0.00925914
-2.20801e-05
0.00925686
-2.67351e-05
0.00924558
-2.84195e-05
0.00926583
-3.50278e-05
0.00927508
-3.8812e-05
0.00927685
-4.81194e-05
0.00888718
-5.61934e-05
0.00899817
-5.95389e-05
0.00921371
-6.22762e-05
0.00919686
-6.19167e-05
0.00918461
-6.00001e-05
0.00915511
-5.72736e-05
0.00913795
-5.17759e-05
0.00912099
-4.72603e-05
0.00911319
-4.06741e-05
0.00910518
-3.46515e-05
0.00909819
-2.88633e-05
0.00909346
0.00913639
-6.92797e-06
0.00917272
-9.12191e-06
0.00917537
-1.25563e-05
0.00918083
-1.55608e-05
0.00918687
-1.90442e-05
0.00920203
-2.08142e-05
0.00926091
-2.32634e-05
0.0092593
-2.75651e-05
0.00924988
-2.84862e-05
0.00926675
-3.39216e-05
0.00928051
-3.69199e-05
0.00927985
-4.42153e-05
0.00889448
-5.01887e-05
0.00900414
-5.2977e-05
0.0092165
-5.53765e-05
0.00919926
-5.52028e-05
0.00918444
-5.38755e-05
0.00915378
-5.13443e-05
0.00913542
-4.78104e-05
0.00911745
-4.37717e-05
0.00910915
-3.81245e-05
0.00909953
-3.29729e-05
0.00909304
-2.75098e-05
0.009088
0.00913618
-7.21945e-06
0.0091756
-1.05556e-05
0.00917871
-1.36054e-05
0.00918388
-1.67132e-05
0.00918998
-2.02213e-05
0.00920554
-2.14571e-05
0.00926215
-2.39195e-05
0.00926177
-2.78232e-05
0.00925378
-3.06726e-05
0.0092696
-3.27901e-05
0.00928263
-3.50272e-05
0.00928209
-4.08743e-05
0.00890032
-4.54094e-05
0.00900868
-4.77509e-05
0.00921884
-4.97756e-05
0.00920128
-4.96962e-05
0.00918436
-4.87268e-05
0.00915281
-4.68e-05
0.0091335
-4.34885e-05
0.00911414
-4.0193e-05
0.00910585
-3.63006e-05
0.00909564
-3.18611e-05
0.0090886
-2.75967e-05
0.00908374
0.00913508
-7.98008e-06
0.00917854
-1.08934e-05
0.00918162
-1.44976e-05
0.00918749
-1.76428e-05
0.00919312
-2.06064e-05
0.0092085
-2.17532e-05
0.0092633
-2.42629e-05
0.00926428
-2.77636e-05
0.00925728
-3.1237e-05
0.00927307
-3.15314e-05
0.00928293
-3.32367e-05
0.00928379
-3.78297e-05
0.00890492
-4.15674e-05
0.00901242
-4.32214e-05
0.0092205
-4.51185e-05
0.00920318
-4.5091e-05
0.00918433
-4.4465e-05
0.00915219
-4.3015e-05
0.00913205
-4.07294e-05
0.00911185
-3.80064e-05
0.00910313
-3.37293e-05
0.00909136
-2.98715e-05
0.00908474
-2.61875e-05
0.00908005
0.0091345
-8.71099e-06
0.0091815
-1.16549e-05
0.00918456
-1.47577e-05
0.00919059
-1.78932e-05
0.00919626
-2.12781e-05
0.00921189
-2.23063e-05
0.00926432
-2.43132e-05
0.00926628
-2.74824e-05
0.00926045
-3.05673e-05
0.00927615
-3.6132e-05
0.00928849
-3.58353e-05
0.0092835
-3.90814e-05
0.00890816
-4.10527e-05
0.00901439
-4.23778e-05
0.00922182
-4.35456e-05
0.00920435
-4.34811e-05
0.00918427
-4.31934e-05
0.0091519
-4.23417e-05
0.00913119
-4.14434e-05
0.00911096
-3.66755e-05
0.00909836
-3.2889e-05
0.00908757
-2.89987e-05
0.00908085
-2.52965e-05
0.00907635
0.00913383
-9.41714e-06
0.00918445
-1.23528e-05
0.0091875
-1.49188e-05
0.00919315
-1.85153e-05
0.00919986
-2.12916e-05
0.00921466
-2.26906e-05
0.00926572
-2.42676e-05
0.00926786
-2.71326e-05
0.00926332
-3.23743e-05
0.0092814
-3.70478e-05
0.00929316
-3.79353e-05
0.00928438
-4.14554e-05
0.00891168
-4.38494e-05
0.00901678
-4.529e-05
0.00922326
-4.63788e-05
0.00920544
-4.62606e-05
0.00918415
-4.57878e-05
0.00915143
-4.4215e-05
0.00912962
-4.26092e-05
0.00910935
-4.06163e-05
0.00909637
-3.76838e-05
0.00908464
-3.51357e-05
0.0090783
-3.18136e-05
0.00907303
0.00912559
-1.01008e-05
0.00918736
-1.29999e-05
0.0091904
-1.60076e-05
0.00919616
-1.85368e-05
0.00920238
-2.1199e-05
0.00921733
-2.24651e-05
0.00926699
-2.41923e-05
0.00926959
-2.92091e-05
0.00926833
-3.37049e-05
0.00928589
-3.61971e-05
0.00929566
-3.66808e-05
0.00928487
-3.97547e-05
0.00891476
-4.17281e-05
0.00901876
-4.2812e-05
0.00922435
-4.37172e-05
0.00920634
-4.36012e-05
0.00918403
-4.31571e-05
0.00915098
-4.21461e-05
0.00912861
-4.02513e-05
0.00910746
-3.84871e-05
0.0090946
-3.63313e-05
0.00908249
-3.35583e-05
0.00907553
-3.10222e-05
0.00907049
0.00911712
-1.07652e-05
0.00919019
-1.31025e-05
0.00919274
-1.60307e-05
0.00919909
-1.84884e-05
0.00920484
-2.15368e-05
0.00922037
-2.26813e-05
0.00926813
-2.64465e-05
0.00927335
-3.12962e-05
0.00927318
-3.33517e-05
0.00928795
-3.54093e-05
0.00929771
-3.57578e-05
0.00928522
-3.83839e-05
0.00891738
-3.99906e-05
0.00902036
-4.09135e-05
0.00922527
-4.16206e-05
0.00920705
-4.14463e-05
0.00918386
-4.09963e-05
0.00915053
-4.00063e-05
0.00912762
-3.87441e-05
0.00910619
-3.66439e-05
0.0090925
-3.42051e-05
0.00908005
-3.2615e-05
0.00907394
-2.98046e-05
0.00906768
0.00910882
-1.09058e-05
0.00919243
-1.41738e-05
0.009196
-1.65068e-05
0.00920142
-1.9393e-05
0.00920773
-2.13274e-05
0.00922231
-2.5384e-05
0.00927219
-2.94559e-05
0.00927742
-3.12197e-05
0.00927495
-3.30992e-05
0.00928983
-3.49097e-05
0.00929952
-3.49767e-05
0.00928528
-3.73301e-05
0.00891974
-3.85938e-05
0.00902163
-3.93266e-05
0.009226
-3.99614e-05
0.00920769
-3.96664e-05
0.00918356
-3.924e-05
0.00915011
-3.8231e-05
0.00912661
-3.70625e-05
0.00910502
-3.5066e-05
0.00909051
-3.32731e-05
0.00907825
-3.08233e-05
0.00907149
-2.86627e-05
0.00906552
0.00910065
-1.20246e-05
0.00919505
-1.42017e-05
0.00919818
-1.64359e-05
0.00920366
-1.92515e-05
0.00921054
-2.46134e-05
0.00922767
-3.10989e-05
0.00927868
-2.95205e-05
0.00927585
-3.11617e-05
0.00927659
-3.28707e-05
0.00929154
-3.45629e-05
0.00930122
-3.45516e-05
0.00928527
-3.65855e-05
0.00892177
-3.766e-05
0.0090227
-3.82156e-05
0.00922656
-3.85872e-05
0.00920806
-3.83111e-05
0.00918329
-3.78451e-05
0.00914964
-3.67837e-05
0.00912555
-3.51749e-05
0.00910342
-3.42258e-05
0.00908956
-3.20414e-05
0.00907607
-3.01644e-05
0.00906961
-2.81042e-05
0.00906346
0.00909205
-1.20994e-05
0.00919703
-1.46915e-05
0.00920077
-1.73208e-05
0.00920629
-1.90705e-05
0.00921229
-3.44176e-05
0.00924302
-3.07721e-05
0.00927503
-2.96667e-05
0.00927474
-3.12446e-05
0.00927817
-3.28882e-05
0.00929318
-3.44411e-05
0.00930277
-3.43601e-05
0.00928519
-3.61529e-05
0.00892356
-3.69765e-05
0.00902352
-3.73953e-05
0.00922698
-3.76637e-05
0.00920833
-3.72316e-05
0.00918286
-3.67155e-05
0.00914912
-3.56255e-05
0.00912446
-3.45444e-05
0.00910233
-3.2623e-05
0.00908764
-3.14987e-05
0.00907495
-2.9155e-05
0.00906727
-2.71519e-05
0.00906146
0.00908344
-1.3121e-05
0.00919936
-1.46248e-05
0.00920228
-1.71405e-05
0.0092088
-2.79201e-05
0.00922307
-3.51174e-05
0.00925021
-3.14574e-05
0.00927137
-2.97828e-05
0.00927307
-3.13669e-05
0.00927975
-3.30003e-05
0.00929481
-3.45781e-05
0.00930435
-3.44569e-05
0.00928507
-3.60507e-05
0.00892516
-3.6745e-05
0.00902422
-3.68915e-05
0.00922712
-3.70005e-05
0.00920843
-3.64898e-05
0.00918235
-3.59258e-05
0.00914856
-3.47243e-05
0.00912326
-3.3671e-05
0.00910128
-3.22247e-05
0.00908619
-3.01618e-05
0.00907288
-2.82998e-05
0.00906541
-2.58294e-05
0.00905899
0.00907528
-1.30526e-05
0.009201
-1.54981e-05
0.00920472
-1.73868e-05
0.00921069
-3.06836e-05
0.00923637
-3.42546e-05
0.00925379
-3.11321e-05
0.00926825
-2.99524e-05
0.00927189
-3.15732e-05
0.00928137
-3.3253e-05
0.00929649
-3.4998e-05
0.00930609
-3.50723e-05
0.00928514
-3.6307e-05
0.00892639
-3.68215e-05
0.00902473
-3.66714e-05
0.00922697
-3.66183e-05
0.00920838
-3.59368e-05
0.00918166
-3.53451e-05
0.00914797
-3.40455e-05
0.00912196
-3.30345e-05
0.00910027
-3.15286e-05
0.00908469
-3.00152e-05
0.00907137
-2.76039e-05
0.009063
-2.56391e-05
0.00905702
0.00906653
-1.33345e-05
0.00920243
-1.52777e-05
0.00920666
-1.69993e-05
0.00921241
-2.73587e-05
0.00924673
-3.27816e-05
0.00925921
-3.18144e-05
0.00926728
-3.00055e-05
0.00927008
-3.18921e-05
0.00928326
-3.3633e-05
0.00929823
-3.58294e-05
0.00930829
-3.63361e-05
0.00928565
-3.70137e-05
0.00892707
-3.73126e-05
0.00902503
-3.67438e-05
0.00922641
-3.65382e-05
0.00920818
-3.55555e-05
0.00918068
-3.508e-05
0.00914749
-3.40525e-05
0.00912093
-3.26621e-05
0.00909888
-3.10235e-05
0.00908305
-2.91224e-05
0.00906947
-2.75811e-05
0.00906145
-2.51693e-05
0.00905461
0.00905762
-1.40019e-05
-1.59691e-05
-1.70254e-05
-2.24551e-05
-2.56966e-05
-3.19614e-05
-3.0067e-05
-3.2155e-05
-3.3921e-05
-3.69018e-05
-3.8323e-05
-3.80932e-05
-3.80467e-05
-3.69185e-05
-3.64936e-05
-3.53117e-05
-3.49162e-05
-3.32132e-05
-3.24539e-05
-3.06704e-05
-2.93798e-05
-2.67227e-05
-2.53524e-05
9.6774e-05
-0.000106675
-0.00121109
0.00129131
0.000131401
-0.00127763
-7.13136e-05
-7.37602e-05
-0.00115747
-0.000165369
0.0011736
3.24763e-05
-3.42289e-05
-0.00126208
0.00134656
3.42971e-05
-0.00134464
-1.67445e-05
-1.94762e-05
0.00130323
-6.56336e-05
-6.7813e-05
-3.10057e-05
3.56768e-05
-0.00125092
0.00131559
-6.43867e-05
-0.00132298
3.6924e-05
3.48521e-05
0.00134702
-9.27263e-06
-1.19574e-05
-6.36882e-05
7.04403e-05
-0.00120483
0.00123981
-0.000113055
-0.0012501
0.000123339
0.00130753
4.17694e-05
3.98995e-05
-6.09362e-05
6.60874e-05
-0.00115385
0.00116087
-0.000110676
-0.00117011
0.000119908
0.000125551
0.00122902
3.7615e-05
-5.21751e-05
-0.0011345
-1.38957e-05
0.000279131
-6.02674e-07
-0.00013857
-0.000126063
-3.14409e-05
-0.000139055
-0.000184543
0.00111603
-6.26352e-05
-0.00111554
6.21389e-05
0.000115062
0.00115322
9.53977e-05
-0.000105409
-0.00110894
-0.00104861
-7.63233e-06
0.00103607
0.000139031
-0.00114354
-0.000152954
-0.00111491
-5.8832e-05
0.00112106
9.48481e-05
-0.000113381
-0.00236373
0.00121642
-0.00120762
8.79707e-05
-0.00113122
9.16928e-05
0.00114156
0.000312295
0.000125788
-0.000616697
0.000313573
-6.66839e-05
-6.82756e-05
0.000116451
-0.000542594
-0.000126457
0.000552601
0.000119177
-0.00127206
0.00247952
0.000128703
-0.00245491
-0.000153305
-0.00237355
-0.000177282
0.0024005
4.46776e-05
-5.08132e-05
-0.00242038
0.00125628
-0.00125456
3.07619e-05
8.17255e-05
0.00122462
0.00125047
6.72762e-05
-7.30708e-05
-0.00124467
0.000639571
-2.33959e-05
-0.00063773
4.37921e-05
-2.2237e-05
-0.000624762
-6.60336e-05
6.34473e-05
0.000627348
0.000330897
8.94004e-06
-0.000339393
-4.44356e-07
-0.000333368
5.11678e-05
-5.62965e-05
0.000338496
3.20188e-05
-0.00133393
0.00253696
4.52977e-05
-0.00253004
-5.22204e-05
-0.000133015
0.00250108
-1.54486e-05
2.19098e-05
-0.00242534
0.00124211
-0.0012462
-2.69193e-05
2.23318e-05
0.0012574
0.00126157
-2.34658e-06
4.18182e-06
-0.0012634
0.000655303
7.43358e-06
-0.000656703
-7.80757e-06
1.77353e-06
-0.000654451
-8.33844e-06
1.44091e-05
0.000654239
-5.85834e-06
0.000309502
-1.0369e-06
-0.000309004
5.38348e-07
-0.000310153
-6.35363e-07
0.000310556
2.3231e-07
-5.72609e-05
-0.00131709
0.00251695
-4.93269e-05
-0.0025284
6.07709e-05
-2.23331e-05
0.00253899
-5.53688e-05
6.76608e-05
-0.00238865
0.0011983
-0.00120453
-5.74599e-05
-3.26216e-05
0.00123771
0.00122406
-5.16986e-05
5.77623e-05
-0.00123012
4.06661e-05
0.000618316
-0.000620332
-3.86503e-05
-0.000634705
1.55685e-05
-2.8711e-05
0.000631724
1.61239e-05
0.000341761
-4.4591e-05
-0.000350361
5.31908e-05
-0.000323143
-1.0541e-05
2.97035e-06
0.000330714
-0.000103133
-0.00124908
0.00244619
-0.000109964
-0.00246649
0.000130267
8.39643e-05
0.00250262
0.000591119
-8.18067e-05
-0.000594054
4.27082e-05
4.20334e-05
-0.000309596
-4.05483e-05
4.14534e-05
0.000308691
-0.000102212
-0.00117538
0.0023668
-0.000123312
-0.0023855
0.000142015
0.000139443
0.00242591
0.000541444
-6.0977e-05
-0.000543829
6.33614e-05
-0.000564606
-7.46898e-05
7.7877e-05
0.000561419
-1.58711e-05
8.06456e-06
-0.00225266
-2.59751e-05
0.000834081
-0.000802634
-5.47161e-06
1.87038e-06
0.000291606
-4.72598e-05
-0.000939865
-8.27448e-05
0.00227464
-0.002284
9.21025e-05
4.06782e-05
0.0011197
-6.72519e-05
-0.000623276
6.57656e-05
-8.94617e-05
-0.000592969
8.38148e-05
0.000598616
-0.00117502
0.00011036
0.0011878
-0.000123144
-0.000593869
0.00060038
-4.83309e-05
-4.76417e-05
0.000625735
-0.000627026
-3.32494e-05
-3.27118e-05
8.31667e-05
-0.000532005
0.000538927
-9.00884e-05
9.13081e-05
-9.71948e-05
-0.000587982
4.54307e-05
-0.000335504
-4.32947e-05
6.25624e-05
-6.43767e-05
0.000314109
-0.00122962
0.000153512
-0.000170559
0.00124667
-0.000621965
-6.17215e-05
0.000629672
0.000116577
0.000334829
4.55247e-05
-0.000334923
-7.12985e-06
-0.000654795
1.74318e-05
-9.9579e-06
-2.36692e-05
4.2561e-05
0.000645284
-2.46048e-05
5.87589e-05
0.0012554
-6.36845e-05
-0.000318094
0.000320901
-2.64757e-05
0.000333194
-7.62744e-06
-0.000332697
0.000314822
0.00031507
-3.38324e-05
-3.63588e-05
-2.39327e-05
-0.000317558
-2.32749e-06
-0.000311923
4.09701e-06
1.53149e-05
-4.90911e-06
0.000320492
-0.00132993
7.3952e-05
0.00133627
-3.8858e-05
-4.14349e-05
-0.000335018
0.000328423
2.19099e-05
0.000339822
4.525e-07
-0.000342602
0.000338602
4.73946e-05
1.66082e-05
-0.000342687
8.67336e-05
-0.00132249
-4.57881e-05
-4.83781e-05
1.57957e-05
-0.00063755
-2.67748e-05
1.38237e-05
6.54876e-06
-1.23629e-05
0.000649494
1.16231e-05
-1.00941e-05
0.00125857
1.30956e-05
-0.000338199
0.000334202
1.05462e-05
0.000319909
1.73258e-05
-0.000321439
0.000332064
-7.208e-06
6.76512e-06
-0.000337531
-1.70631e-05
-0.000314062
7.98155e-06
-1.76894e-06
0.000309702
1.5698e-06
-0.00134001
-3.14318e-05
0.00133526
1.92192e-05
1.69652e-05
-0.000339023
0.000340717
-3.46243e-06
0.000328315
-2.26748e-05
-0.000322703
0.00033841
7.77295e-07
-2.95476e-06
-0.000337105
-1.90385e-05
-0.00134361
1.24828e-05
1.01555e-05
-0.000616886
-4.1576e-05
0.000615955
2.04252e-05
2.20819e-05
0.000599217
-4.84266e-05
5.04264e-05
-0.000601217
0.000317443
1.80345e-05
-0.000618108
2.09812e-05
2.09074e-05
-4.19794e-05
-0.000311575
4.39587e-05
-4.85422e-05
6.12253e-05
0.000329078
-0.00127999
-0.00010091
0.00127008
5.57689e-05
5.50521e-05
-0.000336582
0.000329364
-4.13237e-05
0.000618621
4.14746e-05
-7.81443e-05
-0.00062393
0.000334988
-1.72138e-05
-3.9545e-05
-0.000341628
-9.55605e-05
-0.00128961
5.32e-05
5.19714e-05
-0.00057796
-4.69269e-05
0.000576043
4.88445e-05
0.000565617
-4.16764e-05
4.30979e-05
-0.000567039
-4.93549e-05
0.000597736
5.08364e-05
-4.77858e-05
5.01157e-05
-0.00058029
-7.54569e-05