/*--------------------------------*- C++ -*----------------------------------*\
| =========                 |                                                 |
| \\      /  F ield         | OpenFOAM: The Open Source CFD Toolbox           |
|  \\    /   O peration     | Version:  5.x                                   |
|   \\  /    A nd           | Web:      www.OpenFOAM.org                      |
|    \\/     M anipulation  |                                                 |
\*---------------------------------------------------------------------------*/
FoamFile
{
    version     2.0;
    format      ascii;
    class       volScalarField;
    location    "600";
    object      pSat;
}
// * * * * * * * * * * * * * * * * * * * * * * * * * * * * * * * * * * * * * //

dimensions      [0 2 -2 0 0 0 0];

internalField   nonuniform List<scalar> 
6584
(
697.948
697.948
697.948
697.948
697.948
697.948
697.948
697.948
697.948
697.948
697.948
697.948
697.948
697.948
697.948
697.948
697.948
697.948
697.948
697.948
697.948
697.948
697.948
697.948
697.948
697.948
697.948
697.948
697.948
697.948
697.948
697.948
697.948
697.948
697.948
697.948
697.948
697.948
697.948
697.948
697.948
697.948
697.948
697.948
697.948
697.948
697.948
697.948
697.948
697.948
697.948
697.948
697.948
697.948
697.948
697.948
697.948
697.948
697.948
697.948
697.948
697.948
697.948
697.948
697.948
697.948
697.948
697.948
697.948
697.948
697.948
697.948
697.948
697.948
697.948
697.948
697.948
697.948
697.948
697.948
697.948
697.948
697.948
697.948
697.948
697.948
697.948
697.948
697.948
697.948
697.948
697.948
697.948
697.948
697.948
697.948
697.948
697.948
697.948
697.948
697.948
697.948
697.948
697.948
697.948
697.948
697.948
697.948
697.948
697.948
697.948
697.948
697.948
697.948
697.948
697.948
697.948
697.948
697.948
697.948
697.948
697.948
697.948
697.948
697.948
697.948
697.948
697.948
697.948
697.948
697.948
697.948
697.948
697.948
697.948
697.948
697.948
697.948
697.948
697.948
697.948
697.948
697.948
697.948
697.948
697.948
697.948
697.948
697.948
697.948
697.948
697.948
697.948
697.948
697.948
697.948
697.948
697.948
697.948
697.948
697.948
697.948
697.948
697.948
697.948
697.948
697.948
697.948
697.948
697.948
697.948
697.948
697.948
697.948
697.948
697.948
697.948
697.948
697.948
697.948
697.948
697.948
697.948
697.948
697.948
697.948
697.948
697.948
697.948
697.948
697.948
697.948
697.948
697.948
697.948
697.948
697.948
697.948
697.948
697.948
697.948
697.948
697.948
697.948
697.948
697.948
697.948
697.948
697.948
697.948
697.948
697.948
697.948
697.948
697.948
697.948
697.948
697.948
697.948
697.948
697.948
697.948
697.948
697.948
697.948
697.948
697.948
697.948
697.948
697.948
697.948
697.948
697.948
697.948
697.948
697.948
697.948
697.948
697.948
697.948
697.948
697.948
697.948
697.948
697.948
697.948
697.948
697.948
697.948
697.948
697.948
697.948
697.948
697.948
697.948
697.948
697.948
697.948
697.948
697.948
697.948
697.948
697.948
697.948
697.948
697.948
697.948
697.948
697.948
697.948
697.948
697.948
697.948
697.948
697.948
697.948
697.948
697.948
697.948
697.948
697.948
697.948
697.948
697.948
697.948
697.948
697.948
697.948
697.948
697.948
697.948
697.948
697.948
697.948
697.948
697.948
697.948
697.948
697.948
697.948
697.948
697.948
697.948
697.948
697.948
697.948
697.948
697.948
697.948
697.948
697.948
697.948
697.948
697.948
697.948
697.948
697.948
697.948
555.835
697.948
697.948
697.948
697.948
697.948
697.948
697.948
697.948
697.948
697.948
697.948
697.948
697.948
697.948
697.948
697.948
697.948
697.948
697.948
697.948
697.948
697.948
697.947
661.108
697.948
697.948
697.948
697.948
697.948
697.948
697.948
697.948
697.948
697.948
697.948
697.948
697.948
697.948
697.948
697.948
697.948
697.948
697.948
697.948
697.948
697.948
697.942
664.207
697.948
697.948
697.948
697.948
697.948
697.948
697.948
697.948
697.948
697.948
697.948
697.948
697.948
697.948
697.948
697.948
697.948
697.948
697.948
697.948
697.948
697.948
697.163
681.8
697.948
697.948
697.948
697.948
697.948
697.948
697.948
697.948
697.948
697.948
697.948
697.948
697.948
697.948
697.948
697.948
697.948
697.948
697.948
697.948
697.948
697.948
696.734
682.204
697.948
697.948
697.948
697.948
697.948
697.948
697.948
697.948
697.948
697.948
697.948
697.948
697.948
697.948
697.948
697.948
697.948
697.948
697.948
697.948
697.948
697.821
674.554
690.318
697.947
697.948
697.948
697.948
697.948
697.948
697.948
697.948
697.948
697.948
697.948
697.948
697.948
697.948
697.948
697.948
697.948
697.948
697.948
697.948
697.947
697.712
674.673
690.372
697.947
697.948
697.948
697.948
697.948
697.948
697.948
697.948
697.948
697.948
697.948
697.948
697.948
697.948
697.948
697.948
697.948
697.948
697.948
697.948
697.946
697.609
674.777
690.419
697.946
697.948
697.948
697.948
697.948
697.948
697.948
697.948
697.948
697.948
697.948
697.948
697.948
697.948
697.948
697.948
697.948
697.948
697.948
697.948
697.944
697.511
674.872
690.459
697.945
697.948
697.948
697.948
697.948
697.948
697.948
697.948
697.948
697.948
697.948
697.948
697.948
697.948
697.948
697.948
697.948
697.948
697.948
697.948
697.942
697.419
674.96
690.494
697.944
697.948
697.948
697.948
697.948
697.948
697.948
697.948
697.948
697.948
697.948
697.948
697.948
697.948
697.948
697.948
697.948
697.948
697.948
697.948
697.94
697.332
675.042
690.525
697.943
697.948
697.948
697.948
697.948
697.948
697.948
697.948
697.948
697.948
697.948
697.948
697.948
697.948
697.948
697.948
697.948
697.948
697.948
697.948
697.938
697.251
675.119
690.553
697.942
697.948
697.948
697.948
697.948
697.948
697.948
697.948
697.948
697.948
697.948
697.948
697.948
697.948
697.948
697.948
697.948
697.948
697.948
697.948
697.935
697.164
675.197
690.579
697.941
697.948
697.948
697.948
697.948
697.948
697.948
697.948
697.948
697.948
697.948
697.948
697.948
697.948
697.948
697.948
697.948
697.948
697.948
697.948
697.931
697.073
675.28
690.608
697.94
697.948
697.948
697.948
697.948
697.948
697.948
697.948
697.948
697.948
697.948
697.948
697.948
697.948
697.948
697.948
697.948
697.948
697.948
697.948
697.927
696.986
675.359
690.635
697.939
697.948
697.948
697.948
697.948
697.948
697.948
697.948
697.948
697.948
697.948
697.948
697.948
697.948
697.948
697.948
697.948
697.948
697.948
697.948
697.923
696.902
675.436
690.66
697.938
697.948
697.948
697.948
697.948
697.948
697.948
697.948
697.948
697.948
697.948
697.948
697.948
697.948
697.948
697.948
697.948
697.948
697.948
697.948
697.919
696.821
675.512
690.684
697.937
697.948
697.948
697.948
697.948
697.948
697.948
697.948
697.948
697.948
697.948
697.948
697.948
697.948
697.948
697.948
697.948
697.948
697.948
697.948
697.915
696.741
675.585
690.706
697.937
697.948
697.948
697.948
697.948
697.948
697.948
697.948
697.948
697.948
697.948
697.948
697.948
697.948
697.948
697.948
697.948
697.948
697.948
697.948
697.91
696.663
675.658
690.728
697.936
697.948
697.948
697.948
697.948
697.948
697.948
697.948
697.948
697.948
697.948
697.948
697.948
697.948
697.948
697.948
697.948
697.948
697.948
697.948
697.905
696.585
675.731
690.75
697.935
697.948
697.948
697.948
697.948
697.948
697.948
697.948
697.948
697.948
697.948
697.948
697.948
697.948
697.948
697.948
697.948
697.948
697.948
697.947
697.9
696.506
675.804
690.771
697.934
697.948
697.948
697.948
697.948
697.948
697.948
697.948
697.948
697.948
697.948
697.948
697.948
697.948
697.948
697.948
697.948
697.948
697.948
697.947
697.895
696.425
675.877
690.793
697.933
697.948
697.948
697.948
697.948
697.948
697.948
697.948
697.948
697.948
697.948
697.948
697.948
697.948
697.948
697.948
697.948
697.948
697.948
697.947
697.888
696.34
675.953
690.815
697.932
697.948
697.948
697.948
697.948
697.948
697.948
697.948
697.948
697.948
697.948
697.948
697.948
697.948
697.948
697.948
697.948
697.948
697.948
697.948
697.948
697.948
697.948
697.948
697.948
697.948
697.948
526.143
549.362
697.948
697.948
697.948
697.948
697.948
697.948
697.948
697.948
697.948
697.948
697.948
697.948
697.948
697.948
697.948
697.948
697.948
697.948
697.676
697.897
697.527
697.891
697.948
697.948
697.948
697.948
697.948
697.948
697.948
696.74
696.926
693.35
695.432
697.948
697.948
697.948
697.948
697.948
697.948
697.948
697.142
696.927
696.752
694.733
697.948
697.948
697.948
697.735
697.672
697.948
697.948
697.948
697.898
697.858
697.947
570.063
527.877
631.417
697.948
697.948
697.914
697.948
697.948
697.946
697.803
697.948
697.947
697.902
697.948
697.948
697.948
697.931
696.995
697.608
697.948
696.816
694.186
697.736
696.942
695.556
697.51
697.948
697.729
697.256
697.926
697.739
697.948
696.897
696.751
697.948
693.387
694.608
694.064
693.336
694.648
693.219
697.948
697.133
697.349
697.251
697.141
697.948
694.121
695.327
694.703
693.926
697.649
696.865
697.948
697.684
697.856
697.361
697.665
697.948
696.401
696.879
695.475
696.311
697.849
697.755
697.864
697.902
697.948
697.264
696.839
696.937
697.234
697.915
697.902
697.948
697.948
697.948
697.931
697.948
697.948
697.948
697.948
697.948
697.579
697.416
692.166
688.888
697.948
697.948
697.948
697.948
697.931
697.948
697.948
697.948
697.388
697.174
697.948
506.102
531.233
624.675
640.86
532.794
567.986
688.246
682.125
697.948
697.906
697.925
642.917
653.845
697.927
697.936
697.948
697.948
697.948
697.948
697.948
697.948
697.948
697.923
697.948
697.937
697.948
697.94
697.948
697.657
697.753
694.462
694.58
696.057
695.83
697.661
682.399
697.786
694.595
692.528
692.876
694.75
697.879
694.369
697.931
687.481
696.719
685.52
697.915
696.985
697.929
697.948
697.875
695.343
697.937
697.94
695.36
695.194
697.53
697.473
696.341
696.449
697.284
697.943
697.945
697.942
697.943
697.282
697.859
697.947
697.948
697.946
697.947
697.828
693.961
694.03
693.425
693.364
691.823
691.994
697.08
697.942
697.941
697.943
697.942
697.08
697.205
697.941
697.941
697.941
697.941
697.198
508.399
694.678
535.929
508.669
571.531
537.691
694.846
693.112
511.378
693.311
697.41
697.356
697.506
697.944
697.943
697.945
697.944
697.537
602.568
621.374
695.879
605.22
574.172
631.162
608.833
695.998
571.76
599.681
697.817
689.145
692.512
683.172
688.463
697.804
680.604
654.175
658.268
541.969
655.166
652.549
579.922
694.588
694.786
697.946
697.948
697.948
697.948
697.948
697.819
697.8
620.975
697.748
697.869
697.947
697.698
697.598
697.948
525.689
528.454
517.612
654.188
653.929
534.105
543.782
693.562
694.538
480.856
697.948
697.948
697.948
697.948
697.948
697.948
697.804
697.946
697.944
697.536
697.38
697.831
696.758
697.929
697.929
697.932
697.93
696.781
693.843
695.078
696.461
694.946
666.357
660.247
697.884
694.946
696.207
695.554
695.608
560.812
697.948
697.943
697.948
697.917
697.616
697.45
697.946
697.948
697.948
697.948
697.948
697.945
697.24
697.937
697.933
697.943
697.939
697.328
696.181
669.687
685.912
657.335
660.293
694.588
687.58
689.393
697.206
695.894
696.803
697.471
697.909
697.912
697.883
697.888
697.27
697.929
697.93
696.8
693.672
649.262
639.992
693.743
653.061
656.477
638.359
640.479
693.247
693.552
692.506
697.106
697.886
697.883
697.879
697.901
697.245
697.233
697.879
697.882
697.882
697.88
697.166
697.562
692.403
693.603
690.727
689.951
697.107
697.821
697.945
697.945
697.946
697.946
697.83
696.635
647.668
633.54
664.154
659.325
696.702
575.903
581.897
697.084
669.779
665.69
568.369
574.092
673.719
667.933
697.945
697.947
697.947
660.632
690.968
664.82
667.615
666.872
690.545
697.948
697.938
697.948
697.911
697.947
508.602
516.956
530.203
526.986
632.254
546.343
543.052
555.741
547.351
634.337
541.842
548.524
685.992
684.963
648.239
569.546
560.417
544.808
550.16
697.903
697.945
697.948
697.931
697.943
697.886
697.542
697.82
693.968
694.955
696.388
695.073
683.707
694.227
693.358
695.138
694.499
683.455
691.361
690.514
693.083
691.827
693.871
676.431
679.889
670.08
674.705
693.567
656.901
659.144
691.99
697.621
697.31
697.891
697.709
693.172
695.282
694.604
697.062
695.576
697.769
697.943
697.912
697.652
697.421
697.833
697.657
697.923
697.692
697.879
697.924
697.732
697.859
697.945
697.906
697.845
664.313
667.261
695.938
641.836
630.405
672.2
644.414
614.304
604.537
626.936
618.514
694.737
661.336
663.55
686.09
683.14
694.25
688.565
679.352
675.715
682.587
680.287
697.279
689.802
690.907
696.011
696.743
697.898
697.906
697.363
697.274
697.889
697.895
651.43
650.852
693.757
592.706
592.313
555.834
588.182
588.163
599.808
591.419
588.732
648.113
651.93
693.65
589.414
580.075
602.154
592.349
563.177
554.197
576.546
567.245
693.265
642.267
646.629
692.804
692.365
697.892
697.888
697.098
697.182
697.899
697.893
697.878
697.879
697.226
697.174
697.879
697.878
511.477
520.336
653.023
659.346
644.912
650.799
510.75
557.771
667.964
658.072
661.091
666.316
550.663
619.194
622.347
606.827
618.014
519.308
637.143
643.299
624.165
633.888
519.074
691.326
692.103
697.529
688.108
689.616
690.12
688.051
689.628
697.168
689.515
690.685
609.984
526.796
529.934
540.306
527.031
612.696
530.539
582.466
530.55
587.059
685.944
695.856
695.333
696.471
696.029
686.407
678.238
679.177
584.547
590.97
554.157
566.019
677.633
675.04
697.948
697.948
697.948
697.948
697.941
697.942
697.948
697.948
697.948
697.948
697.948
697.948
697.948
697.948
697.948
697.948
697.947
697.834
697.53
696.817
696.722
693.489
695.31
697.932
697.933
697.014
692.187
691.849
694.797
693.871
694.493
697.729
697.941
697.948
697.948
696.467
696.906
697.85
697.938
697.916
697.946
697.705
694.255
696.268
695.668
696.622
696.517
697.45
697.633
697.634
697.261
697.919
697.923
697.756
696.82
697.93
697.931
654.931
650.937
694.33
694.499
692.666
692.5
693.089
697.126
697.636
697.634
697.245
697.63
697.632
697.632
697.631
697.149
692.739
661.186
656.987
697.394
697.885
697.882
697.883
697.947
697.946
530.774
531.53
674.331
671.036
697.126
529.443
530.083
696.328
696.609
697.911
697.935
697.925
504.325
508.082
509.52
529.049
534.558
505.316
506.592
533.697
528.874
562.943
677.028
675.94
683.084
577.495
571.22
649.739
697.948
697.948
697.948
697.898
697.921
697.938
697.943
697.86
697.877
697.948
697.948
697.947
697.277
697.231
697.591
697.793
697.632
697.547
694.235
694.699
693.26
693.55
696.208
695.548
692.037
692.682
684.879
685
688.602
688.108
682.368
685.294
685.648
697.745
694.737
695.404
693.473
689.623
694.976
694.349
697.475
697.225
696.139
679.071
676.791
692.756
688.272
681.941
697.947
697.945
697.85
697.815
697.559
697.689
696.104
697.765
697.834
691.26
693.1
697.672
673.858
671.169
696.234
696.556
697.937
697.94
697.894
697.763
697.927
697.932
694.253
650.539
651.022
691.84
692.114
697.626
697.626
697.212
697.19
697.626
697.626
510.592
533.67
578.595
581.596
547.44
549.642
505.984
664.128
661.951
692.924
519.179
515.79
536.587
537.041
514.195
545.537
546.39
512.977
513.497
697.892
697.889
697.413
697.597
697.899
697.896
589.935
665.093
667.326
660.407
662.74
584.664
690.71
696.203
696.591
696.519
696.369
691.227
684.312
689.891
689.231
678.949
677.434
680.884
543.192
545.249
547.207
528.341
658.744
590.357
580.718
599.375
592.842
650.815
651.43
652.098
680.807
683.666
695.258
697.945
697.945
697.936
524.673
525.169
585.319
584.941
511.267
539.521
529.303
529.028
527.007
528.389
542.303
482.362
675.656
677.456
697.948
697.948
697.948
696.999
696.91
697.532
697.201
697.496
697.694
697.404
697.459
693.701
695.193
690.415
690.851
690.946
690.433
694.862
691.621
691.461
665.002
654.645
654.534
656.587
656.137
663.272
697.567
697.782
697.79
697.754
697.774
697.511
695.78
697.275
696.397
696.095
697.266
697.636
697.638
692.67
692.766
694.196
692.725
697.641
697.639
697.116
697.629
697.63
697.239
697.158
697.629
697.628
690.73
692.271
691.642
692.807
692.603
690.559
532.402
533.791
528.9
528.989
570.376
545.443
543.694
655.883
656.083
671.961
659.699
662.166
655.259
657.114
669.908
697.941
697.937
697.943
697.934
697.946
697.947
697.948
697.942
697.945
697.941
663.94
678.894
678.027
681.271
680.04
664.885
670.619
674.792
673.022
677.322
676.409
669.064
697.942
697.946
697.944
697.843
697.755
697.93
697.915
504.272
524.964
510.4
509.591
529.336
528.227
567.529
569.744
544.527
506.267
504.713
537.265
519.154
519.862
517.363
556.157
520.611
512.403
677.837
679.432
686.888
673.422
673.891
672.223
672.533
683.958
675.483
676.151
545.879
524.054
525.508
523.499
523.05
547.473
697.929
697.933
697.914
697.84
697.888
697.922
696.87
697.557
697.164
697.085
697.266
697.338
697.098
697.188
694.098
694.825
691.453
691.582
691.048
691.257
696.309
693.709
693.821
691.395
691.575
695.276
691.525
686.232
685.234
682.874
687.69
687.153
691.014
686.185
686.053
687.775
686.858
690.764
692.758
688.522
689.038
686.642
687.626
692.327
685.738
671.617
683.214
682.354
655.859
656.953
691.399
695.511
695.247
690.812
694.174
696.542
695.925
682.872
680.856
690.475
690.931
694.847
687.189
685.057
696.86
697.195
697.739
697.401
696.435
695.065
696.354
697.802
697.877
697.892
697.806
697.836
697.685
697.508
697.642
697.891
697.826
697.801
697.896
697.843
697.906
697.764
697.767
697.674
697.785
638.733
634.33
664.316
630.238
634.194
621.899
646.689
610.599
607.352
623.892
621.274
684.603
671.013
674.146
664.638
667.742
683.752
693.583
688.214
689.721
675.987
684.667
691.992
668.664
663.758
678.389
644.188
647.436
638.527
641.322
677.31
682.007
659.257
661.812
651.031
654.982
681.189
696.127
696.658
593.823
559.808
564.305
550.732
555.044
593.154
564.265
566.677
566.337
576.941
589.697
527.816
531.981
535.07
528.088
593.545
590.548
543.209
546.786
536.325
539.968
589.684
586.942
584.129
599.701
595.769
559.557
556.296
573.515
570.957
692.159
692.234
697.219
697.627
697.628
697.627
697.627
697.182
512.056
567.911
574.245
529.28
505.718
553.887
560.46
526.376
522.659
620.114
562.212
562.774
612.573
556.991
546.496
562.911
561.51
616.088
534.674
530.346
539.153
543.582
517.151
519.052
529.507
691.67
694.613
694.373
694.966
694.795
691.887
688.631
689.37
689.392
688.005
688.023
688.597
689.498
693.28
693.006
694.041
693.649
689.989
527.833
545.828
547.571
543.451
544.623
528.982
535.111
559.915
564.355
550.515
554.895
529.84
529.559
521.358
523.597
520.224
520.592
531.179
538.854
541.794
527.853
533.351
530.602
690.888
690.458
685.35
678.058
680.241
536.548
540.885
558.742
532.559
526.85
541.555
538.263
562.899
529.113
529.058
652.84
653.775
697.948
697.948
697.948
697.948
697.948
697.948
697.948
697.948
697.948
697.948
697.948
697.948
697.948
697.948
697.948
697.948
697.948
697.948
697.948
697.948
697.948
697.948
697.948
697.948
697.948
697.948
697.948
697.948
697.948
697.948
697.948
697.948
697.948
697.948
697.948
697.948
697.948
697.948
697.948
697.948
697.948
697.948
697.948
697.948
697.948
697.948
697.948
697.948
697.948
697.948
697.948
697.948
697.948
697.948
697.948
697.948
697.948
697.948
697.948
697.948
697.948
697.948
697.948
697.948
697.948
697.948
697.948
697.948
697.948
697.948
697.948
697.948
697.948
697.948
697.948
697.948
697.948
697.948
697.948
697.948
697.948
697.948
697.948
697.948
697.948
697.946
697.946
697.948
697.948
697.948
697.948
697.948
697.948
697.948
697.948
697.948
697.948
697.948
697.948
697.948
697.946
697.946
697.948
697.948
697.948
697.948
697.948
697.948
697.948
697.948
697.948
697.948
697.947
697.947
697.948
697.948
697.948
697.948
697.948
697.948
697.948
697.948
697.948
697.948
697.948
697.948
697.948
697.948
697.948
697.948
697.948
697.948
697.948
697.948
697.948
697.948
697.753
697.75
574.568
691.374
691.981
697.948
697.948
697.948
697.948
697.948
697.948
697.948
697.948
697.948
697.948
697.948
697.948
697.944
608.978
605.563
663.521
697.948
697.948
697.948
697.948
697.948
697.948
697.948
697.948
697.948
697.946
697.948
697.432
649.921
609.983
681.564
697.94
697.948
697.948
697.948
697.948
697.948
697.948
697.948
697.948
697.948
697.948
697.948
697.948
697.948
697.946
697.947
697.948
697.948
697.947
697.946
697.948
697.948
697.948
697.946
697.946
697.948
697.948
697.946
697.947
697.946
697.946
697.948
697.947
697.946
697.948
697.948
697.948
697.948
697.947
697.947
697.948
697.948
697.948
697.948
697.948
697.948
697.948
697.749
697.825
697.948
510.527
575.158
575.97
645.914
646.079
484.187
697.948
697.948
697.948
697.948
697.948
697.948
697.948
697.948
697.947
697.948
697.948
697.948
697.948
697.948
697.948
697.948
697.948
697.948
697.948
697.948
697.948
697.948
697.948
697.948
697.948
697.948
697.948
697.948
697.948
697.948
697.946
697.941
697.948
697.948
697.948
697.948
697.948
697.948
697.948
697.948
697.948
697.948
697.948
697.948
697.948
697.948
697.948
697.948
697.948
697.948
697.948
697.948
697.948
697.948
697.948
697.948
697.726
697.887
697.873
697.937
697.932
697.88
697.827
697.759
697.869
697.948
697.948
697.948
697.948
697.948
697.948
697.948
697.948
697.948
697.948
697.948
697.948
697.948
697.948
697.948
697.948
697.948
697.948
697.946
697.946
697.948
696.736
697.645
697.646
697.687
697.672
696.866
697.948
697.948
697.948
697.948
697.948
697.948
697.948
697.948
697.948
697.948
697.948
697.948
697.948
697.948
697.948
697.948
697.948
697.948
697.946
697.946
697.948
697.045
697.934
697.935
697.689
697.696
696.955
696.64
694.308
694.624
697.948
697.948
697.948
697.948
697.948
697.948
697.948
697.948
697.948
697.712
696.21
696.572
697.113
697.177
697.693
697.948
697.948
697.948
697.948
697.948
697.948
697.948
697.948
697.948
697.894
697.736
697.752
697.588
697.62
697.865
697.835
697.752
697.947
563.203
695.608
695.494
654.343
654.991
533.923
697.772
697.753
623.821
697.948
697.936
697.942
697.942
697.936
697.948
697.926
697.944
697.941
697.948
697.948
697.945
697.948
697.948
697.948
697.944
697.876
697.935
697.948
697.948
697.948
697.942
697.946
697.948
697.908
697.863
697.852
697.947
697.946
697.947
697.948
697.948
697.948
697.948
697.948
697.948
697.945
697.946
697.939
697.071
697.725
697.705
697.856
697.836
697.517
697.948
697.947
697.948
696.648
694.85
695.339
689.181
689.417
694.312
695.654
695.874
697.042
697.948
697.947
697.948
697.704
697.828
697.84
697.901
697.942
697.944
697.848
697.853
697.745
697.948
697.948
697.948
696.868
697.675
697.682
697.648
697.651
696.766
697.948
697.946
697.946
693.486
687.417
687.181
689.827
689.595
694.508
693.952
688.74
688.958
687.02
686.924
693.276
697.946
697.946
697.948
697.74
697.731
697.33
697.948
697.946
697.946
694.312
676.518
673.825
687.39
686.768
695.173
694.797
690.291
690.064
672.98
670.052
693.727
697.622
696.957
697.04
694.96
695.241
696.964
697.947
697.948
697.948
697.731
697.911
697.908
697.924
697.923
697.848
697.371
697.754
697.748
697.905
697.902
697.612
697.948
697.947
697.947
696.485
692.148
691.808
693.743
693.519
696.824
695.616
688.562
687.984
691.441
691.044
696.215
697.84
697.513
697.553
696.677
696.947
697.773
697.871
697.928
697.926
697.947
697.947
697.889
697.948
697.948
697.948
697.334
677.593
675.284
673.837
676.665
697.306
696.989
694.15
693.954
697.913
696.656
696.726
697.948
697.948
697.948
697.948
697.948
697.948
697.948
697.948
697.948
697.948
697.948
697.948
697.948
697.948
697.948
697.948
697.948
697.948
697.947
697.947
697.948
697.517
697.928
697.929
697.925
697.926
697.493
691.775
687.237
687.928
682.525
683.645
689.511
697.948
697.948
697.948
697.948
697.948
697.948
697.892
697.923
697.941
697.948
697.948
697.948
697.948
697.948
697.948
697.948
697.948
697.948
697.3
697.938
697.924
697.936
697.937
697.269
697.948
697.946
697.946
627.503
597.732
595.12
612.308
609.37
638.638
687.602
680.466
681.422
697.948
697.948
697.948
697.916
697.948
697.947
697.947
697.948
697.918
644.884
618.108
615.276
630.92
628.888
652.508
697.931
697.947
697.947
697.947
697.947
697.933
697.948
697.948
697.948
697.948
697.948
697.948
697.948
697.948
697.948
697.948
697.948
697.948
697.948
697.948
697.948
697.948
697.948
697.948
697.948
697.948
697.948
697.948
697.947
697.948
697.948
697.948
697.948
697.945
697.946
697.943
697.948
697.948
697.948
695.575
696.063
697.688
697.774
697.438
697.478
694.383
691.47
691.834
688.564
689.117
692.855
693.817
696.773
696.653
696.975
696.88
694.072
697.872
697.649
697.675
697.701
697.842
697.939
697.887
697.068
697.609
697.211
697.705
697.601
697.943
697.937
697.908
697.948
697.948
697.948
697.923
697.915
697.934
697.942
697.933
697.928
691.353
691.697
695.532
695.039
690.755
691.043
696.922
697.063
697.582
697.413
696.647
696.785
697.655
697.664
697.291
697.944
697.934
697.932
697.938
697.936
697.945
697.942
697.928
697.927
697.93
697.929
697.942
697.28
697.647
697.65
697.909
697.916
697.876
697.948
697.946
697.945
697.947
697.946
697.948
697.946
697.941
697.94
697.944
697.942
697.947
697.797
697.887
697.898
688.525
688.406
693.896
694.102
688.774
688.647
687.592
687.766
693.491
693.318
687.282
687.429
697.654
697.65
697.085
697.942
697.927
697.927
697.926
697.926
697.941
697.942
697.93
697.93
697.928
697.929
697.942
697.092
697.666
697.659
697.941
697.925
697.925
697.926
697.925
697.941
697.941
697.925
697.926
697.925
697.925
697.941
684.705
677.442
694.502
568.341
609.423
613.241
584.19
587.083
540.156
695.013
686.088
685.395
693.519
668.788
665.035
696.356
696.48
697.455
697.295
696.035
696.205
697.803
697.793
697.471
697.943
697.933
697.933
697.931
697.932
697.943
697.944
697.936
697.937
697.934
697.935
697.944
697.561
697.818
697.811
605.084
572.643
570.444
591.978
588.256
618.579
689.658
689.124
695.751
600.839
637.73
640.72
616.446
619.757
576.964
621.944
672.871
674.442
669.318
671.147
618.543
696.11
690.612
690.152
575.062
539.395
536.793
567.73
563.891
596.136
697.419
697.468
697.829
689.688
693.18
692.844
695.032
694.807
692.127
692.458
692.041
687.689
697.789
697.302
697.364
655.721
607.72
601.434
615.363
610.033
657.174
656.425
635.042
632.994
694.404
684.422
686.075
692.173
692.496
694.959
697.948
697.948
697.948
697.948
697.948
697.948
697.813
697.935
697.935
697.933
697.934
697.807
686.148
685.702
617.656
697.748
696.351
696.388
696.385
696.361
697.759
697.66
697.932
697.933
697.93
697.931
697.646
697.948
697.947
697.947
542.927
538.837
513.105
653.62
618.363
608.853
619.743
618.915
653.605
694.326
680.222
678.463
685.691
688.371
694.578
481.147
585.38
608.999
697.948
697.948
697.948
697.948
697.948
697.948
697.948
697.948
697.948
697.948
697.948
697.948
697.948
697.948
697.948
697.948
697.948
697.948
697.909
697.899
697.768
697.946
697.936
697.939
697.929
697.933
697.945
697.847
697.711
697.684
697.646
697.645
696.742
697.929
697.871
697.872
697.872
697.871
697.929
697.931
697.878
697.882
697.873
697.875
697.93
696.818
697.66
697.651
693.932
694.079
696.543
697.697
697.718
697.889
695.925
697.135
697.06
697.261
697.201
696.073
695.584
681.198
674.167
681.291
681.308
695.601
558.267
638.078
637.394
697.948
697.948
697.948
697.948
697.948
697.948
697.948
697.948
697.948
697.877
697.87
697.913
697.948
697.948
697.947
697.948
697.948
697.948
697.948
697.948
697.948
697.948
697.948
697.947
697.948
697.948
697.948
697.942
697.947
697.947
697.769
697.747
697.154
697.936
697.897
697.903
697.887
697.892
697.934
697.941
697.92
697.925
697.909
697.914
697.94
697.419
697.814
697.791
693.314
694.122
696.429
674.58
688.323
685.957
692.205
690.771
682.017
658.25
679.05
678.64
679.949
679.489
659.244
694.448
689.668
689.933
688.409
693.374
692.94
693.955
693.687
688.949
697.128
696.051
696.209
697.756
697.803
697.635
697.912
697.901
697.886
697.884
697.814
697.812
697.82
697.817
697.886
697.929
697.873
697.872
697.874
697.873
697.93
696.782
697.655
697.659
687.926
687.679
693.577
646.423
674.956
675.765
673.223
674.03
642.949
688.316
688.523
693.842
654.285
677.389
676.943
678.248
677.839
655.532
637.892
672.471
672.702
672.814
672.443
638.901
693.271
686.894
686.912
697.885
697.813
697.815
697.81
697.812
697.884
697.843
697.847
697.903
697.298
697.718
697.705
697.88
697.807
697.806
697.81
697.809
697.881
697.881
697.808
697.809
697.806
697.807
697.88
696.772
696.867
697.593
692.806
695.363
695.154
695.765
695.574
693.236
697.043
695.438
695.584
697.916
697.914
697.81
697.945
697.939
697.939
697.937
697.938
697.945
697.946
697.941
697.941
697.94
697.94
697.946
697.84
697.92
697.918
692.755
692.461
696.562
641.759
678.366
679.486
675.862
677.162
639.754
662.575
682.315
683.145
680.497
681.437
660.981
696.765
693.281
693.027
577.751
552.006
550.395
555.953
553.77
579.686
694.509
694.335
697.039
668.48
685.326
685.963
683.926
684.648
667.124
548.787
547.14
572.256
697.948
697.947
697.946
685.931
686.556
691.373
690.07
684.601
685.319
697.947
697.948
697.948
697.948
697.948
697.947
697.945
697.937
697.942
602.167
600.002
629.945
545.497
571.485
573.095
551.667
579.767
583.242
574.829
576.972
548.941
636.557
606.731
604.338
622.869
620.632
646.651
567.493
593.354
595.729
586.978
590.463
564.554
697.946
697.942
697.94
697.946
697.944
697.947
697.935
697.916
697.909
697.936
697.926
697.94
697.671
697.66
697.81
693.93
690.465
691.066
689.434
689.891
693.633
694.939
692.305
692.639
691.582
691.974
694.732
690.619
691.069
694.143
677.893
686.35
685.615
687.525
686.971
678.979
684.808
683.999
673.035
693.223
689.63
690.135
697.536
696.86
697.017
696.42
696.696
697.443
697.857
697.681
697.777
697.222
697.471
697.795
695.056
691.272
691.626
696.552
694.121
695.759
692.107
692.907
696.002
697.889
697.809
697.468
697.937
697.909
697.93
697.833
697.875
697.927
697.929
697.901
697.887
697.941
697.937
697.944
697.879
697.92
697.929
697.901
697.91
697.859
665.134
682.702
682.16
684.359
683.382
666.056
695.725
692.107
692.627
690.206
690.479
694.884
662.126
680.839
680.412
681.687
681.254
662.826
696.359
696.505
697.348
690.194
694.449
694.206
694.92
694.687
690.566
697.9
697.846
697.84
697.869
697.856
697.903
697.312
697.68
697.71
697.641
697.644
697.277
697.891
697.827
697.823
697.835
697.83
697.893
651.748
676.896
677.07
676.332
676.673
651.529
693.827
688.278
688.126
649.643
675.672
675.187
676.52
676.109
650.863
693.569
687.943
688.124
687.018
687.146
693.277
643.925
673.803
673.307
674.708
674.254
645.258
697.89
697.821
697.824
697.817
697.819
697.889
697.091
697.647
697.644
697.69
697.677
697.125
697.897
697.833
697.838
697.826
697.83
697.895
697.878
697.805
697.804
697.806
697.805
697.878
697.879
697.805
697.805
697.804
697.804
697.878
655.115
618.572
614.552
624.558
621.849
657.359
646.642
602.649
600.198
610.117
605.95
648.612
600.071
604.502
563.895