/*--------------------------------*- C++ -*----------------------------------*\
| =========                 |                                                 |
| \\      /  F ield         | OpenFOAM: The Open Source CFD Toolbox           |
|  \\    /   O peration     | Version:  5.x                                   |
|   \\  /    A nd           | Web:      www.OpenFOAM.org                      |
|    \\/     M anipulation  |                                                 |
\*---------------------------------------------------------------------------*/
FoamFile
{
    version     2.0;
    format      ascii;
    class       volScalarField;
    location    "600";
    object      T;
}
// * * * * * * * * * * * * * * * * * * * * * * * * * * * * * * * * * * * * * //

dimensions      [0 0 0 1 0 0 0];

internalField   nonuniform List<scalar> 
6584
(
275
275
275
275
275
275
275
275
275
275
275
275
275
275
275
275
275
275
275
275
275
275
275
275
275
275
275
275
275
275
275
275
275
275
275
275
275
275
275
275
275
275
275
275
275
275
275
275
275
275
275
275
275
275
275
275
275
275
275
275
275
275
275
275
275
275
275
275
275
275
275
275
275
275
275
275
275
275
275
275
275
275
275
275
275
275
275
275
275
275
275
275
275
275
275
275
275
275
275
275
275
275
275
275
275
275
275
275
275
275
275
275
275
275
275
275
275
275
275
275
275
275
275
275
275
275
275
275
275
275
275
275
275
275
275
275
275
275
275
275
275
275
275
275
275
275
275
275
275
275
275
275
275
275
275
275
275
275
275
275
275
275
275
275
275
275
275
275
275
275
275
275
275
275
275
275
275
275
275
275
275
275
275
275
275
275
275
275
275
275
275
275
275
275
275
275
275
275
275
275
275
275
275
275
275
275
275
275
275
275
275
275
275
275
275
275
275
275
275
275
275
275
275
275
275
275
275
275
275
275
275
275
275
275
275
275
275
275
275
275
275
275
275
275
275
275
275
275
275
275
275
275
275
275
275
275
275
275
275
275
275
275
275
275
275
275
275
275
275
275
275
275
275
275
275
275
275
275
275
275
275
275
275
275
275
275
275
275
275
275
275
275
275
275
275
275
275
275
275
275
275
275
275
275
275
275
275
275
275
275
275
275
275
275
275
275
275
275
271.853
275
275
275
275
275
275
275
275
275
275
275
275
275
275
275
275
275
275
275
275
275
275
275
274.243
275
275
275
275
275
275
275
275
275
275
275
275
275
275
275
275
275
275
275
275
275
275
275
274.308
275
275
275
275
275
275
275
275
275
275
275
275
275
275
275
275
275
275
275
275
275
275
274.984
274.673
275
275
275
275
275
275
275
275
275
275
275
275
275
275
275
275
275
275
275
275
275
275
274.976
274.681
275
275
275
275
275
275
275
275
275
275
275
275
275
275
275
275
275
275
275
275
275
274.997
274.524
274.846
275
275
275
275
275
275
275
275
275
275
275
275
275
275
275
275
275
275
275
275
275
274.995
274.526
274.847
275
275
275
275
275
275
275
275
275
275
275
275
275
275
275
275
275
275
275
275
275
274.993
274.528
274.848
275
275
275
275
275
275
275
275
275
275
275
275
275
275
275
275
275
275
275
275
275
274.991
274.53
274.849
275
275
275
275
275
275
275
275
275
275
275
275
275
275
275
275
275
275
275
275
275
274.989
274.532
274.85
275
275
275
275
275
275
275
275
275
275
275
275
275
275
275
275
275
275
275
275
275
274.988
274.534
274.85
275
275
275
275
275
275
275
275
275
275
275
275
275
275
275
275
275
275
275
275
275
274.986
274.535
274.851
275
275
275
275
275
275
275
275
275
275
275
275
275
275
275
275
275
275
275
275
275
274.984
274.537
274.851
275
275
275
275
275
275
275
275
275
275
275
275
275
275
275
275
275
275
275
275
275
274.982
274.539
274.852
275
275
275
275
275
275
275
275
275
275
275
275
275
275
275
275
275
275
275
275
275
274.981
274.54
274.853
275
275
275
275
275
275
275
275
275
275
275
275
275
275
275
275
275
275
275
275
274.999
274.979
274.542
274.853
275
275
275
275
275
275
275
275
275
275
275
275
275
275
275
275
275
275
275
275
274.999
274.977
274.543
274.854
275
275
275
275
275
275
275
275
275
275
275
275
275
275
275
275
275
275
275
275
274.999
274.976
274.545
274.854
275
275
275
275
275
275
275
275
275
275
275
275
275
275
275
275
275
275
275
275
274.999
274.974
274.546
274.855
275
275
275
275
275
275
275
275
275
275
275
275
275
275
275
275
275
275
275
275
274.999
274.973
274.548
274.855
275
275
275
275
275
275
275
275
275
275
275
275
275
275
275
275
275
275
275
275
274.999
274.971
274.549
274.855
275
275
275
275
275
275
275
275
275
275
275
275
275
275
275
275
275
275
275
275
274.999
274.969
274.551
274.856
275
275
275
275
275
275
275
275
275
275
275
275
275
275
275
275
275
275
275
275
274.999
274.968
274.553
274.856
275
275
275
275
275
275
275
275
275
275
275
275
275
275
275
275
275
275
275
275
275
275
275
275
275
275
275
271.107
271.694
275
275
275
275
275
275
275
275
275
275
275
275
275
275
275
275
275
275
274.995
274.999
274.992
274.999
275
275
275
275
275
275
275
274.976
274.979
274.907
274.949
275
275
275
275
275
275
275
274.984
274.979
274.976
274.935
275
275
275
274.996
274.994
275
275
275
274.999
274.998
275
272.199
271.151
273.605
275
275
274.999
275
275
275
274.997
275
275
274.999
275
275
275
275
274.981
274.993
275
274.977
274.924
274.996
274.98
274.952
274.991
275
274.996
274.986
275
274.996
275
274.979
274.976
275
274.908
274.933
274.922
274.907
274.934
274.905
275
274.984
274.988
274.986
274.984
275
274.923
274.947
274.935
274.919
274.994
274.978
275
274.995
274.998
274.988
274.994
275
274.969
274.979
274.95
274.967
274.998
274.996
274.998
274.999
275
274.986
274.978
274.98
274.986
274.999
274.999
275
275
275
275
275
275
275
275
275
274.993
274.989
274.884
274.817
275
275
275
275
275
275
275
275
274.989
274.984
275
270.581
271.237
273.457
273.811
271.277
272.149
274.804
274.679
275
274.999
275
273.856
274.09
275
275
275
275
275
275
275
275
275
274.999
275
275
275
275
275
274.994
274.996
274.93
274.932
274.962
274.957
274.994
274.685
274.997
274.933
274.891
274.898
274.936
274.999
274.928
275
274.789
274.975
274.749
274.999
274.981
275
275
274.999
274.948
275
275
274.948
274.945
274.992
274.99
274.968
274.97
274.987
275
275
275
275
274.987
274.998
275
275
275
275
274.998
274.92
274.921
274.909
274.908
274.877
274.88
274.983
275
275
275
275
274.983
274.985
275
275
275
275
274.985
270.643
274.934
271.357
270.65
272.234
271.402
274.938
274.903
270.721
274.907
274.989
274.988
274.991
275
275
275
275
274.992
272.96
273.384
274.958
273.02
272.297
273.6
273.102
274.961
272.239
272.894
274.997
274.822
274.891
274.701
274.809
274.997
274.648
274.097
274.183
271.509
274.118
274.062
272.434
274.932
274.936
275
275
275
275
275
274.997
274.997
273.375
274.996
274.998
275
274.995
274.993
275
271.095
271.166
270.885
274.097
274.091
271.311
271.555
274.912
274.931
269.893
275
275
275
275
275
275
274.997
275
275
274.992
274.989
274.998
274.976
275
275
275
275
274.977
274.917
274.942
274.97
274.94
274.353
274.225
274.999
274.94
274.965
274.952
274.953
271.975
275
275
275
274.999
274.993
274.99
275
275
275
275
275
275
274.986
275
275
275
275
274.988
274.965
274.423
274.757
274.164
274.226
274.932
274.791
274.827
274.985
274.959
274.977
274.99
274.999
274.999
274.999
274.999
274.986
275
275
274.977
274.914
273.992
273.792
274.915
274.073
274.145
273.757
273.803
274.905
274.912
274.89
274.983
274.999
274.999
274.999
274.999
274.986
274.986
274.999
274.999
274.999
274.999
274.984
274.992
274.888
274.913
274.854
274.839
274.983
274.997
275
275
275
275
274.998
274.974
273.958
273.652
274.307
274.206
274.975
272.338
272.48
274.983
274.425
274.339
272.158
272.295
274.506
274.386
275
275
275
274.233
274.859
274.321
274.38
274.364
274.851
275
275
275
274.999
275
270.648
270.868
271.211
271.129
273.624
271.619
271.536
271.851
271.644
273.669
271.506
271.673
274.758
274.737
273.97
272.186
271.966
271.58
271.714
274.999
275
275
275
275
274.999
274.992
274.997
274.92
274.94
274.969
274.942
274.712
274.925
274.908
274.944
274.931
274.707
274.867
274.85
274.902
274.877
274.918
274.562
274.634
274.431
274.527
274.912
274.154
274.202
274.88
274.993
274.987
274.999
274.995
274.904
274.946
274.933
274.982
274.952
274.996
275
274.999
274.994
274.989
274.998
274.994
274.999
274.995
274.999
275
274.996
274.998
275
274.999
274.998
274.31
274.372
274.96
273.832
273.583
274.475
273.888
273.226
273.005
273.507
273.32
274.935
274.248
274.294
274.76
274.7
274.926
274.811
274.623
274.548
274.689
274.642
274.987
274.836
274.858
274.961
274.976
274.999
274.999
274.988
274.986
274.999
274.999
274.038
274.026
274.916
272.733
272.724
271.853
272.628
272.627
272.897
272.703
272.64
273.967
274.049
274.914
272.656
272.437
272.95
272.725
272.033
271.813
272.354
272.131
274.906
273.842
273.935
274.896
274.888
274.999
274.999
274.983
274.985
274.999
274.999
274.999
274.999
274.985
274.984
274.999
274.999
270.724
270.956
274.072
274.206
273.899
274.025
270.705
271.901
274.387
274.179
274.243
274.352
271.726
273.335
273.405
273.057
273.309
270.93
273.73
273.864
273.446
273.66
270.924
274.867
274.882
274.992
274.801
274.832
274.842
274.8
274.832
274.984
274.83
274.854
273.128
271.124
271.204
271.468
271.13
273.19
271.22
272.494
271.22
272.601
274.757
274.958
274.947
274.97
274.961
274.767
274.6
274.619
272.543
272.693
271.812
272.101
274.587
274.534
275
275
275
275
275
275
275
275
275
275
275
275
275
275
275
275
275
274.998
274.992
274.977
274.975
274.91
274.947
275
275
274.981
274.884
274.877
274.937
274.918
274.931
274.996
275
275
275
274.97
274.979
274.998
275
274.999
275
274.995
274.926
274.966
274.954
274.973
274.971
274.99
274.994
274.994
274.986
274.999
274.999
274.996
274.977
275
275
274.113
274.028
274.927
274.931
274.894
274.89
274.902
274.983
274.994
274.994
274.986
274.994
274.994
274.994
274.994
274.984
274.895
274.245
274.156
274.989
274.999
274.999
274.999
275
275
271.226
271.245
274.519
274.451
274.983
271.192
271.208
274.967
274.973
274.999
275
275
270.534
270.634
270.672
271.182
271.322
270.56
270.594
271.3
271.177
272.027
274.575
274.552
274.699
272.376
272.227
274.002
275
275
275
274.999
274.999
275
275
274.998
274.999
275
275
275
274.987
274.986
274.993
274.997
274.994
274.992
274.925
274.935
274.906
274.912
274.965
274.952
274.881
274.894
274.736
274.738
274.811
274.801
274.684
274.744
274.751
274.996
274.935
274.949
274.91
274.832
274.94
274.928
274.991
274.985
274.964
274.617
274.57
274.896
274.805
274.676
275
275
274.998
274.997
274.992
274.995
274.963
274.996
274.998
274.865
274.902
274.994
274.509
274.453
274.966
274.972
275
275
274.999
274.996
275
275
274.926
274.019
274.029
274.877
274.883
274.994
274.994
274.985
274.985
274.994
274.994
270.701
271.3
272.402
272.473
271.646
271.701
270.578
274.307
274.261
274.899
270.926
270.838
271.374
271.385
270.796
271.599
271.62
270.764
270.777
274.999
274.999
274.989
274.993
274.999
274.999
272.669
274.327
274.373
274.228
274.277
272.545
274.854
274.965
274.973
274.971
274.968
274.865
274.724
274.838
274.824
274.614
274.583
274.654
271.54
271.591
271.64
271.163
274.193
272.678
272.452
272.887
272.736
274.025
274.038
274.052
274.652
274.711
274.946
275
275
275
271.069
271.082
272.561
272.552
270.719
271.448
271.188
271.181
271.129
271.165
271.518
269.935
274.546
274.583
275
275
275
274.981
274.979
274.992
274.985
274.991
274.995
274.989
274.99
274.915
274.945
274.848
274.857
274.859
274.849
274.938
274.873
274.869
274.325
274.107
274.104
274.148
274.138
274.289
274.992
274.997
274.997
274.996
274.997
274.991
274.956
274.986
274.969
274.963
274.986
274.994
274.994
274.894
274.896
274.925
274.895
274.994
274.994
274.983
274.994
274.994
274.986
274.984
274.994
274.994
274.855
274.886
274.873
274.897
274.892
274.851
271.267
271.303
271.178
271.18
272.206
271.596
271.553
274.133
274.137
274.47
274.213
274.265
274.12
274.159
274.427
275
275
275
275
275
275
275
275
275
275
274.303
274.613
274.595
274.662
274.637
274.322
274.442
274.529
274.492
274.581
274.562
274.41
275
275
275
274.998
274.996
275
274.999
270.533
271.076
270.696
270.674
271.189
271.16
272.138
272.191
271.573
270.586
270.544
271.391
270.926
270.944
270.879
271.861
270.964
270.749
274.591
274.624
274.777
274.5
274.51
274.475
274.482
274.717
274.543
274.557
271.607
271.053
271.09
271.039
271.027
271.647
275
275
274.999
274.998
274.999
274.999
274.978
274.992
274.984
274.983
274.986
274.988
274.983
274.985
274.923
274.937
274.869
274.872
274.861
274.865
274.967
274.915
274.917
274.868
274.872
274.946
274.871
274.763
274.743
274.695
274.793
274.782
274.86
274.762
274.76
274.795
274.776
274.855
274.896
274.81
274.82
274.772
274.792
274.887
274.753
274.463
274.702
274.684
274.132
274.155
274.868
274.951
274.946
274.856
274.924
274.972
274.959
274.695
274.653
274.849
274.859
274.938
274.783
274.739
274.978
274.985
274.996
274.989
274.97
274.942
274.968
274.997
274.999
274.999
274.997
274.998
274.995
274.991
274.994
274.999
274.998
274.997
274.999
274.998
274.999
274.996
274.996
274.994
274.997
273.765
273.669
274.311
273.58
273.666
273.395
273.937
273.142
273.069
273.44
273.382
274.73
274.45
274.515
274.317
274.382
274.713
274.912
274.804
274.834
274.553
274.731
274.88
274.401
274.299
274.603
273.883
273.953
273.761
273.821
274.58
274.677
274.204
274.258
274.03
274.114
274.66
274.963
274.974
272.759
271.951
272.06
271.728
271.834
272.743
272.059
272.117
272.109
272.363
272.663
271.15
271.257
271.335
271.157
272.752
272.683
271.54
271.63
271.367
271.459
272.663
272.599
272.533
272.894
272.804
271.945
271.865
272.281
272.22
274.883
274.885
274.985
274.994
274.994
274.994
274.994
274.985
270.739
272.147
272.299
271.187
270.571
271.806
271.967
271.113
271.017
273.356
272.009
272.023
273.187
271.882
271.623
272.026
271.992
273.266
271.325
271.215
271.438
271.55
270.873
270.923
271.193
274.874
274.933
274.928
274.94
274.937
274.878
274.812
274.827
274.827
274.799
274.8
274.811
274.83
274.906
274.901
274.921
274.914
274.84
271.15
271.606
271.649
271.546
271.576
271.18
271.336
271.953
272.061
271.722
271.83
271.202
271.195
270.983
271.041
270.954
270.963
271.236
271.431
271.505
271.151
271.291
271.221
274.858
274.849
274.745
274.596
274.641
271.373
271.482
271.925
271.271
271.125
271.499
271.416
272.026
271.183
271.182
274.068
274.088
275
275
275
275
275
275
275
275
275
275
275
275
275
275
275
275
275
275
275
275
275
275
275
275
275
275
275
275
275
275
275
275
275
275
275
275
275
275
275
275
275
275
275
275
275
275
275
275
275
275
275
275
275
275
275
275
275
275
275
275
275
275
275
275
275
275
275
275
275
275
275
275
275
275
275
275
275
275
275
275
275
275
275
275
275
275
275
275
275
275
275
275
275
275
275
275
275
275
275
275
275
275
275
275
275
275
275
275
275
275
275
275
275
275
275
275
275
275
275
275
275
275
275
275
275
275
275
275
275
275
275
275
275
275
275
275
274.996
274.996
272.307
274.868
274.88
275
275
275
275
275
275
275
275
275
275
275
275
275
273.106
273.028
274.294
275
275
275
275
275
275
275
275
275
275
275
274.99
274.006
273.128
274.668
275
275
275
275
275
275
275
275
275
275
275
275
275
275
275
275
275
275
275
275
275
275
275
275
275
275
275
275
275
275
275
275
275
275
275
275
275
275
275
275
275
275
275
275
275
275
275
274.996
274.998
275
270.699
272.321
272.34
273.92
273.924
269.985
275
275
275
275
275
275
275
275
275
275
275
275
275
275
275
275
275
275
275
275
275
275
275
275
275
275
275
275
275
275
275
275
275
275
275
275
275
275
275
275
275
275
275
275
275
275
275
275
275
275
275
275
275
275
275
275
274.996
274.999
274.998
275
275
274.999
274.998
274.996
274.998
275
275
275
275
275
275
275
275
275
275
275
275
275
275
275
275
275
275
275
275
275
274.976
274.994
274.994
274.995
274.994
274.978
275
275
275
275
275
275
275
275
275
275
275
275
275
275
275
275
275
275
275
275
275
274.982
275
275
274.995
274.995
274.98
274.974
274.927
274.933
275
275
275
275
275
275
275
275
275
274.995
274.965
274.972
274.983
274.985
274.995
275
275
275
275
275
275
275
275
275
274.999
274.996
274.996
274.993
274.993
274.998
274.998
274.996
275
272.033
274.953
274.951
274.1
274.114
271.306
274.996
274.996
273.438
275
275
275
275
275
275
275
275
275
275
275
275
275
275
275
275
274.999
275
275
275
275
275
275
275
274.999
274.998
274.998
275
275
275
275
275
275
275
275
275
275
275
275
274.982
274.996
274.995
274.998
274.998
274.991
275
275
275
274.974
274.938
274.948
274.823
274.828
274.927
274.954
274.958
274.982
275
275
275
274.995
274.998
274.998
274.999
275
275
274.998
274.998
274.996
275
275
275
274.978
274.995
274.995
274.994
274.994
274.976
275
275
275
274.91
274.787
274.783
274.836
274.832
274.931
274.92
274.814
274.819
274.779
274.777
274.906
275
275
275
274.996
274.996
274.988
275
275
275
274.927
274.564
274.509
274.787
274.774
274.944
274.937
274.846
274.841
274.491
274.43
274.915
274.993
274.98
274.982
274.94
274.946
274.98
275
275
275
274.996
274.999
274.999
275
274.999
274.998
274.988
274.996
274.996
274.999
274.999
274.993
275
275
275
274.971
274.883
274.876
274.915
274.911
274.977
274.953
274.811
274.799
274.869
274.861
274.965
274.998
274.991
274.992
274.974
274.98
274.996
274.998
275
275
275
275
274.999
275
275
275
274.988
274.586
274.539
274.509
274.567
274.987
274.981
274.924
274.92
274.999
274.974
274.975
275
275
275
275
275
275
275
275
275
275
275
275
275
275
275
275
275
275
275
275
275
274.991
275
275
275
275
274.991
274.876
274.784
274.798
274.688
274.71
274.83
275
275
275
275
275
275
274.999
274.999
275
275
275
275
275
275
275
275
275
275
274.987
275
275
275
275
274.986
275
275
275
273.519
272.849
272.789
273.181
273.115
273.763
274.791
274.645
274.665
275
275
275
274.999
275
275
275
275
274.999
273.898
273.311
273.248
273.595
273.55
274.061
275
275
275
275
275
275
275
275
275
275
275
275
275
275
275
275
275
275
275
275
275
275
275
275
275
275
275
275
275
275
275
275
275
275
275
275
275
275
275
274.952
274.962
274.995
274.996
274.99
274.991
274.928
274.87
274.877
274.811
274.822
274.897
274.917
274.976
274.974
274.98
274.979
274.922
274.998
274.994
274.995
274.995
274.998
275
274.999
274.982
274.993
274.985
274.995
274.993
275
275
274.999
275
275
275
274.999
274.999
275
275
275
275
274.867
274.874
274.951
274.942
274.855
274.861
274.979
274.982
274.993
274.989
274.974
274.977
274.994
274.994
274.987
275
275
275
275
275
275
275
275
275
275
275
275
274.987
274.994
274.994
274.999
274.999
274.999
275
275
275
275
275
275
275
275
275
275
275
275
274.997
274.999
274.999
274.81
274.807
274.919
274.923
274.815
274.812
274.791
274.794
274.91
274.907
274.785
274.788
274.994
274.994
274.983
275
275
275
275
275
275
275
275
275
275
275
275
274.983
274.994
274.994
275
275
275
275
275
275
275
275
275
275
275
275
274.732
274.583
274.931
272.157
273.116
273.202
272.534
272.602
271.464
274.941
274.76
274.746
274.911
274.404
274.326
274.968
274.971
274.99
274.987
274.962
274.965
274.997
274.997
274.99
275
275
275
275
275
275
275
275
275
275
275
275
274.992
274.997
274.997
273.017
272.261
272.208
272.716
272.629
273.321
274.833
274.822
274.956
272.92
273.743
273.808
273.274
273.348
272.364
273.396
274.489
274.521
274.415
274.453
273.321
274.963
274.852
274.843
272.318
271.445
271.379
272.143
272.05
272.812
274.989
274.99
274.998
274.833
274.904
274.897
274.941
274.937
274.883
274.889
274.881
274.793
274.997
274.987
274.988
274.129
273.077
272.934
273.25
273.13
274.16
274.144
273.685
273.64
274.929
274.726
274.76
274.884
274.89
274.94
275
275
275
275
275
275
274.997
275
275
275
275
274.997
274.762
274.752
273.301
274.996
274.968
274.969
274.969
274.968
274.996
274.994
275
275
275
275
274.994
275
275
275
271.533
271.43
270.767
274.085
273.317
273.103
273.347
273.329
274.084
274.927
274.64
274.604
274.752
274.807
274.932
269.901
272.562
273.106
275
275
275
275
275
275
275
275
275
275
275
275
275
275
275
275
275
275
274.999
274.999
274.996
275
275
275
275
275
275
274.998
274.995
274.995
274.994
274.994
274.976
275
274.998
274.998
274.998
274.998
275
275
274.999
274.999
274.998
274.999
275
274.977
274.994
274.994
274.919
274.922
274.972
274.995
274.995
274.999
274.959
274.984
274.982
274.986
274.985
274.962
274.953
274.66
274.516
274.662
274.663
274.953
271.913
273.751
273.736
275
275
275
275
275
275
275
275
275
274.999
274.998
274.999
275
275
275
275
275
275
275
275
275
275
275
275
275
275
275
275
275
275
274.996
274.996
274.984
275
274.999
274.999
274.999
274.999
275
275
274.999
275
274.999
274.999
275
274.989
274.997
274.997
274.907
274.923
274.969
274.524
274.806
274.758
274.884
274.855
274.677
274.183
274.616
274.608
274.635
274.625
274.204
274.93
274.833
274.838
274.807
274.908
274.899
274.92
274.914
274.818
274.984
274.962
274.965
274.996
274.997
274.994
274.999
274.999
274.999
274.999
274.997
274.997
274.997
274.997
274.999
275
274.998
274.998
274.999
274.998
275
274.977
274.994
274.994
274.798
274.793
274.912
273.931
274.532
274.549
274.496
274.513
273.856
274.806
274.81
274.917
274.099
274.582
274.573
274.6
274.591
274.125
273.747
274.48
274.485
274.488
274.48
273.769
274.906
274.777
274.777
274.999
274.997
274.997
274.997
274.997
274.999
274.998
274.998
274.999
274.987
274.995
274.995
274.999
274.997
274.997
274.997
274.997
274.999
274.999
274.997
274.997
274.997
274.997
274.999
274.976
274.978
274.993
274.897
274.948
274.944
274.956
274.952
274.905
274.982
274.95
274.953
274.999
274.999
274.997
275
275
275
275
275
275
275
275
275
275
275
275
274.998
274.999
274.999
274.895
274.89
274.972
273.831
274.602
274.625
274.551
274.577
273.787
274.274
274.683
274.7
274.646
274.665
274.24
274.976
274.906
274.901
272.382
271.759
271.719
271.856
271.803
272.428
274.931
274.927
274.982
274.398
274.745
274.758
274.716
274.731
274.369
271.68
271.639
272.251
275
275
275
274.757
274.77
274.868
274.841
274.73
274.745
275
275
275
275
275
275
275
275
275
272.951
272.901
273.573
271.598
272.233
272.271
271.751
272.43
272.512
272.313
272.364
271.683
273.718
273.055
273
273.417
273.367
273.936
272.137
272.748
272.803
272.6
272.681
272.066
275
275
275
275
275
275
275
274.999
274.999
275
275
275
274.994
274.994
274.997
274.919
274.849
274.861
274.828
274.838
274.913
274.94
274.886
274.893
274.872
274.88
274.935
274.852
274.861
274.923
274.592
274.766
274.751
274.79
274.778
274.615
274.734
274.718
274.492
274.905
274.832
274.842
274.992
274.978
274.981
274.969
274.975
274.99
274.998
274.995
274.997
274.985
274.99
274.997
274.942
274.865
274.873
274.972
274.923
274.956
274.882
274.899
274.961
274.999
274.997
274.99
275
274.999
275
274.998
274.999
275
275
274.999
274.999
275
275
275
274.999
274.999
275
274.999
274.999
274.998
274.328
274.691
274.68
274.725
274.705
274.347
274.955
274.882
274.893
274.844
274.849
274.938
274.265
274.653
274.644
274.67
274.662
274.279
274.968
274.971
274.988
274.844
274.93
274.925
274.939
274.934
274.851
274.999
274.998
274.998
274.998
274.998
274.999
274.987
274.995
274.995
274.994
274.994
274.987
274.999
274.998
274.997
274.998
274.998
274.999
274.045
274.572
274.576
274.56
274.567
274.04
274.917
274.805
274.802
274
274.547
274.537
274.564
274.556
274.026
274.912
274.798
274.802
274.779
274.782
274.906
273.877
274.508
274.498
274.527
274.517
273.906
274.999
274.997
274.997
274.997
274.997
274.999
274.983
274.994
274.994
274.995
274.995
274.983
274.999
274.998
274.998
274.998
274.998
274.999
274.999
274.997
274.997
274.997
274.997
274.999
274.999
274.997
274.997
274.997
274.997
274.999
274.117
273.321
273.231
273.454
273.394
274.164
273.936
272.962
272.906
273.131
273.037
273.978
272.903
273.004
272.05
274.419
273.822
273.757
274.28
273.564
273.508
273.69
273.624
274.315
271.569
272.688
272.792
272.008
271.999
273.377
273.785
272.755
272.658
272.86
272.815
273.828
273.505
272.165
272.059
272.509
272.327
273.58
274.991
274.973
274.975
274.955
274.958
274.986
272.371
272.312
273.072
273.255
272.535
272.445
271.623
271.519
272.399
272.712
271.918
271.765
274.955
274.914
274.92
274.9
274.908
274.951
274.968
274.935
274.939
274.925
274.93
274.965
274.778
274.873
274.865
272.614
272.025
271.931
272.145
272.121
272.681
274.577
274.348
274.345
274.297
274.323
274.557
275
275
275
275
275
275
275
275
275
275
275
275
275
275
275
275
275
275
275
275
275
275
275
275
275
275
275
275
275
275
275
275
275
275
275
275
274.998
275
274.999
274.981
274.995
274.995
274.922
274.962
274.959
274.967
274.965
274.926
274.995
274.986
274.987
275
275
275
274.973
274.989
274.988
274.992
274.991
274.976
275
275
275
275
275
275
275
275
275
274.991
274.994
274.996
274.948
274.978
274.971
274.985
274.983
274.96
274.996
274.998
274.998
274.994
274.994
274.978
275
274.999
274.999
274.999
274.999
275
274.073
274.614
274.626
274.597
274.604
274.044
274.929
274.827
274.824
274.224
274.665
274.675
274.639
274.651
274.195
274.996
274.996
274.989
275
275
274.999
275
275
275
274.498
274.792
274.801
274.77
274.781
274.475
274.984
274.937
274.934
274.97
274.988
274.987
274.99
274.989
274.972
272.314
272.949
273.004
272.851
272.898
272.267
274.032
273.506
273.463
275
275
275
275
275
275
275
275
275
275
275
275
275
275
275
275
275
275
274.988
274.989
274.996
274.94
274.972
274.969
274.976
274.974
274.945
275
275
275
274.999
275
274.999
274.874
274.949
274.944
274.963
274.956
274.885
274.994
274.985
274.988
274.999
274.999
275
274.998
274.999
274.997
274.82
274.818
274.924
274.018
274.587
274.591
274.579
274.583
274.022
274.29
274.701
274.711
274.684
274.693
274.275
274.99
274.997
274.997
274.998
274.998
274.993
273.583
273.668
272.8
272.442
273.416
273.502
274.919
274.912
274.844
274.944
274.948
274.975
274.874
274.932
274.926
273.77
273.729
274.17
272.612
273.188
273.244
273.065
273.128
272.534
272.838
273.425
273.476
273.312
273.371
272.788
274.673
274.811
274.8
274.831
274.821
274.693
274.943
274.896
274.902
272.504
271.97
272.034
272.005
271.98
272.52
270.738
271.407
271.403
272.285
272.38
269.916
274.596
274.031
273.748
274.29
274.203
274.586
275
275
275
275
275
275
275
275
275
275
275
275
275
275
275
275
275
275
275
275
275
275
275
275
275
275
275
275
275
275
275
275
275
275
275
275
275
275
275
275
275
275
275
275
275
275
275
275
275
275
275
275
275
275
275
275
275
275
275
275
275
275
275
275
275
275
275
275
275
275
275
275
275
275
275
275
275
275
275
275
275
275
275
275
275
275
275
275
275
275
275
275
275
275
275
275
275
275
275
275
275
275
275
275
275
275
275
275
275
275
275
275
275
275
275
275
275
272.009
273.934
273.917
275
275
275
275
275
275
275
275
275
275
274.996
274.997
274.262
274.985
274.984
275
275
275
275
275
275
275
275
275
275
275
275
275
275
275
274.979
274.022
274.014
274.677
275
275
275
275
275
275
275
275
275
275
275
275
275
275
275
275
275
275
275
275
275
275
275
275
275
275
275
275
275
275
275
275
275
275
275
275
275
275
275
275
275
275
275
275
274.983
274.996
274.996
275
275
275
272.343
272.337
271.201
275
275
275
275
275
275
275
275
275
274.999
275
275
274.995
274.998
274.998
274.998
274.998
274.994
275
275
274.999
274.987
274.947
274.945
274.943
274.94
274.985
274.996
274.997
274.999
275
275
275
275
275
275
275
275
275
274.992
274.998
274.998
274.997
274.997
274.99
275
275
275
275
275
275
275
275
275
275
275
275
274.988
274.997
274.997
274.996
274.996
274.985
274.999
275
275
275
275
274.999
275
275
275
275
275
275
275
275
275
275
275
275
275
275
275
274.905
274.949
274.946
274.965
274.963
274.931
273.54
274.131
274.166
273.863
273.914
273.176
275
275
275
275
275
275
275
275
275
274.943
274.969
274.967
275
275
275
275
275
275
273.917
274.352
274.373
274.197
274.226
273.699
275
275
275
275
275
275
275
275
275
275
275
275
275
275
275
275
275
275
275
274.999
274.999
274.999
274.999
275
275
275
275
275
275
275
275
275
275
274.999
274.997
274.997
275
275
275
275
275
275
275
275
275
275
275
275
275
275
275
275
275
275
275
275
275
275
275
275
275
275
275
275
275
275
275
275
275
275
275
275
275
275
275
275
275
275
275
275
275
275
275
275
275
275
275
275
275
275
275
275
275
275
275
275
275
275
275
275
275
275
275
275
275
274.996
275
275
275
275
274.996
274.003
273.969
272.156
274.863
274.598
274.613
274.596
274.595
274.864
275
275
275
275
275
275
275
275
275
275
275
275
274.993
274.994
275
273.082
274.759
274.75
274.784
274.771
273.057
274.984
274.985
274.279
275
275
275
275
275
275
275
275
275
275
275
275
275
275
275
275
275
275
275
275
275
275
275
275
275
275
275
275
275
275
275
275
275
275
275
275
275
275
275
274.996
275
275
275
275
274.998
275
275
275
271.398
271.398
270.7
270.298
272.361
272.279
275
275
275
275
275
275
275
275
275
275
275
275
275
275
275
275
275
275
275
275
275
275
275
275
275
275
275
275
275
275
275
275
275
275
275
275
275
275
275
275
275
275
275
275
275
275
275
275
275
275
275
275
275
275
275
275
275
275
275
275
275
275
275
275
275
275
274.995
274.996
274.983
275
274.999
274.999
274.999
274.999
275
275
275
275
274.968
274.986
274.985
274.988
274.987
274.97
273.72
273.706
272.087
274.953
274.653
274.659
274.106
273.371
273.362
273.377
273.376
274.11
271.252
272.329
272.33
274.97
274.971
274.996
273.495
274.776
274.769
275
275
275
275
275
275
275
275
275
275
275
275
274.999
275
275
275
275
274.999
275
275
275
275
275
275
275
275
274.999
275
275
275
275
275
275
275
275
275
275
275
275
275
275
275
275
275
275
274.545
274.811
274.819
274.796
274.804
274.526
274.473
274.78
274.788
274.762
274.772
274.453
275
275
275
274.998
274.998
274.995
274.994
274.998
274.998
275
275
275
275
275
275
274.976
274.99
274.989
274.992
274.991
274.978
275
275
275
275
275
275
274.999
275
275
274.951
274.949
274.987
274.573
274.826
274.832
274.81
274.819
274.557
274.504
274.778
274.781
274.828
274.791
274.518
274.997
274.997
274.999
274.974
274.99
274.99
274.991
274.99
274.975
275
275
275
275
275
275
274.998
274.998
274.992
274.99
274.998
274.998
275
275
275
275
275
275
275
275
275
275
275
275
274.997
274.997
274.988
274.986
274.996
274.997
275
275
274.999
274.999
275
275
275
275
275
275
275
275
275
275
275
275
275
275
275
275
275
275
275
275
275
275
275
275
275
275
275
275
275
275
275
275
275
275
275
275
275
275
275
275
275
275
275
275
275
275
275
275
275
275
274.956
274.98
274.978
274.984
274.982
274.959
274.956
274.953
274.911
274.927
274.961
274.958
274.996
274.999
274.998
274.999
274.999
274.997
274.986
274.995
274.994
274.998
274.997
274.99
274.826
274.833
274.601
274.376
274.741
274.752
274.72
274.73
274.349
274.049
274.092
273.471
273.247
273.959
274.006
273.027
273.605
273.647
273.521
273.565
272.981
273.235
273.756
273.767
273.685
273.724
273.185