/*--------------------------------*- C++ -*----------------------------------*\
| =========                 |                                                 |
| \\      /  F ield         | OpenFOAM: The Open Source CFD Toolbox           |
|  \\    /   O peration     | Version:  5.x                                   |
|   \\  /    A nd           | Web:      www.OpenFOAM.org                      |
|    \\/     M anipulation  |                                                 |
\*---------------------------------------------------------------------------*/
FoamFile
{
    version     2.0;
    format      ascii;
    class       volVectorField;
    location    "600";
    object      U;
}
// * * * * * * * * * * * * * * * * * * * * * * * * * * * * * * * * * * * * * //

dimensions      [0 1 -1 0 0 0 0];

internalField   nonuniform List<vector> 
6584
(
(1.00007 -0.000184246 4.34976e-27)
(1.00005 -0.000403439 2.10919e-25)
(1.00006 -0.000544841 1.85896e-30)
(1.00006 -0.000736705 -3.73709e-25)
(1.00007 -0.000933455 0)
(1.00007 -0.00114238 0)
(1.00005 -0.0013355 0)
(1 -0.00143229 3.62714e-25)
(0.99993 -0.00136378 3.4555e-25)
(0.999819 -0.000985141 0)
(0.999705 -0.000116709 6.60539e-26)
(0.999634 0.00116614 -2.97408e-25)
(0.999672 0.00253949 -1.039e-26)
(0.999808 0.00355258 2.43289e-26)
(0.999959 0.00395102 5.30247e-27)
(1.00012 0.00376818 9.39106e-25)
(1.00018 0.00326858 8.27278e-25)
(1.0002 0.0026746 6.75346e-26)
(1.00018 0.00208922 5.62529e-25)
(1.00016 0.00157923 4.00784e-25)
(1.00013 0.00116752 0)
(1.00011 0.00081739 0)
(1.00008 0.000575608 5.84337e-25)
(1.0001 0.000254263 3.5661e-25)
(1.00029 -0.000387766 -2.06217e-25)
(1.00024 -0.000814034 -8.07253e-25)
(1.00029 -0.00107768 -1.07675e-24)
(1.0003 -0.00146674 0)
(1.00034 -0.00186588 -1.34696e-25)
(1.00033 -0.00230357 -1.17389e-24)
(1.00026 -0.0027334 -7.05941e-25)
(1.00002 -0.00298272 1.17343e-24)
(0.999694 -0.0029028 -1.20055e-25)
(0.998911 -0.00218464 -1.87326e-25)
(0.998027 -0.000412506 -3.86971e-29)
(0.997516 0.00229392 0)
(0.99777 0.0052295 6.258e-25)
(0.998712 0.00735961 2.75685e-25)
(0.999879 0.00818143 -2.13936e-24)
(1.00062 0.00774381 -5.65787e-25)
(1.00091 0.00661755 -1.26662e-24)
(1.00097 0.00535255 -1.64692e-24)
(1.00089 0.00413629 -4.14679e-24)
(1.00075 0.00310228 -3.38885e-24)
(1.0006 0.002287 -2.40568e-25)
(1.0005 0.00159103 -9.93699e-26)
(1.00039 0.00114299 0)
(1.00041 0.000526403 3.12607e-25)
(1.00063 -0.000597479 -5.22284e-25)
(1.00059 -0.00120952 0)
(1.0007 -0.00157638 -2.06952e-25)
(1.00076 -0.0021666 -1.41416e-24)
(1.00085 -0.0027851 -2.11754e-24)
(1.00086 -0.00350451 0)
(1.00073 -0.00429967 0)
(1.00019 -0.00483683 -1.66078e-25)
(0.999248 -0.00535158 -2.25293e-25)
(0.998001 -0.00335063 1.15746e-25)
(0.996511 -0.00114939 -1.92858e-25)
(0.995467 0.00242139 -2.60023e-25)
(0.995806 0.00657449 0)
(0.997507 0.00967799 0)
(0.999555 0.0109488 2.39039e-26)
(1.00161 0.012349 -2.28612e-24)
(1.00236 0.0101387 0)
(1.00249 0.00800041 -7.7003e-25)
(1.00223 0.00604884 0)
(1.00185 0.00446348 -5.56782e-25)
(1.00147 0.00326335 -1.43195e-24)
(1.00119 0.00224651 -8.40281e-25)
(1.00093 0.00163968 0)
(1.00088 0.00078385 2.42246e-25)
(1.00105 -0.000795524 -3.22083e-25)
(1.00106 -0.00155983 0)
(1.00125 -0.00201103 -2.80268e-25)
(1.00141 -0.00279554 0)
(1.00162 -0.00364399 0)
(1.00174 -0.00471255 0)
(1.00161 -0.00603633 -2.0642e-26)
(1.00086 -0.00724116 4.16695e-24)
(0.999028 -0.00873471 -4.31942e-25)
(0.996603 -0.00656834 3.38818e-25)
(0.993286 -0.00383337 -2.10338e-25)
(0.990221 0.0019979 2.0812e-26)
(0.990394 0.00997561 4.72127e-26)
(0.994426 0.0158601 0)
(0.999171 0.0172727 -3.44758e-24)
(1.0024 0.0154462 0)
(1.0051 0.0137481 0)
(1.00488 0.0105626 5.14526e-24)
(1.00423 0.00769763 3.30735e-24)
(1.00339 0.00554366 -1.08752e-24)
(1.00266 0.00400028 -7.44034e-25)
(1.0021 0.00271602 0)
(1.00164 0.00200313 3.57393e-25)
(1.00144 0.000990197 2.84366e-25)
(1.00153 -0.00096359 -1.26121e-25)
(1.00162 -0.00183298 -8.60515e-27)
(1.00193 -0.00233965 -4.11857e-26)
(1.00225 -0.00329361 -6.25008e-26)
(1.00268 -0.00434931 1.76096e-25)
(1.00308 -0.00580639 3.28568e-24)
(1.00318 -0.00779001 -4.37183e-24)
(1.00271 -0.00998524 4.59275e-24)
(0.999328 -0.0105489 1.34163e-25)
(0.995854 -0.0114079 1.3811e-24)
(0.989262 -0.00925266 -3.16868e-25)
(0.980696 -0.00042065 1.95381e-25)
(0.979888 0.0150418 -1.11877e-25)
(0.989961 0.0258098 5.13652e-24)
(1.00016 0.0263405 0)
(1.00566 0.021798 3.23737e-24)
(1.00721 0.0161816 -6.67723e-25)
(1.00822 0.0121374 -3.8554e-24)
(1.00688 0.00881265 -2.19952e-24)
(1.00531 0.0061378 9.70796e-25)
(1.00409 0.00438299 -4.77488e-26)
(1.00314 0.00292103 -2.54534e-26)
(1.00243 0.00217479 4.02828e-25)
(1.00203 0.00111191 -1.47913e-25)
(1.00203 -0.0010832 6.31982e-26)
(1.00224 -0.00199542 -1.66676e-25)
(1.00269 -0.0025113 -1.0634e-26)
(1.00325 -0.00357376 0)
(1.00398 -0.00473711 -6.55455e-25)
(1.0049 -0.00652673 -2.01519e-25)
(1.00551 -0.0087585 -1.86976e-24)
(1.00418 -0.0110498 -5.31971e-25)
(1.00194 -0.0145449 2.40197e-24)
(0.99781 -0.0189241 8.15753e-24)
(0.985365 -0.0183238 1.72127e-24)
(0.968599 -0.00894577 2.44032e-28)
(0.962502 0.019605 -1.02006e-25)
(0.984058 0.0396909 5.71306e-25)
(1.0053 0.0395542 -7.15327e-24)
(1.01244 0.0289037 0)
(1.01286 0.0200806 4.46158e-28)
(1.01251 0.0128178 6.19021e-25)
(1.01003 0.00912403 1.37549e-25)
(1.00749 0.00607778 1.13921e-24)
(1.00566 0.00429674 -3.95455e-25)
(1.00423 0.00279095 0)
(1.00324 0.00210421 -2.02911e-25)
(1.00257 0.00111876 -2.73386e-25)
(1.00251 -0.00113886 8.58124e-28)
(1.00287 -0.0020211 -7.7084e-26)
(1.00348 -0.00248545 9.85565e-26)
(1.00431 -0.00356486 2.67413e-27)
(1.00542 -0.00468093 8.56285e-27)
(1.00699 -0.00665265 -1.10172e-24)
(1.00846 -0.00891454 -1.53918e-24)
(1.00773 -0.0122918 -9.31062e-26)
(1.00764 -0.018035 -3.54916e-25)
(1.00522 -0.0272473 1.14071e-24)
(0.989918 -0.036179 0)
(0.951665 -0.0362 1.22846e-24)
(0.911122 0.0291492 4.2952e-26)
(0.983467 0.0784896 3.17799e-24)
(1.01577 0.0543463 3.67075e-26)
(1.02452 0.0341905 0)
(1.02097 0.0215108 2.22061e-24)
(1.01751 0.0117396 5.74622e-25)
(1.0134 0.00824032 4.60678e-25)
(1.00972 0.00518912 -1.14424e-25)
(1.00719 0.00364745 -8.54062e-25)
(1.00523 0.00227859 0)
(1.00395 0.00175885 -1.81206e-25)
(1.00298 0.000988753 -1.58899e-25)
(1.00293 -0.00112216 -8.00472e-26)
(1.00344 -0.00190068 7.01845e-26)
(1.00419 -0.00224734 3.74411e-26)
(1.00531 -0.00322933 3.03801e-26)
(1.0068 -0.00410264 -3.71158e-26)
(1.00905 -0.0059471 5.14141e-25)
(1.01159 -0.0077101 1.17133e-28)
(1.01232 -0.0116501 -1.80354e-25)
(1.0157 -0.0182404 2.02576e-28)
(1.01949 -0.0301723 -2.91223e-24)
(1.01381 -0.0519224 -3.82274e-26)
(0.987306 -0.103978 1.40171e-26)
(1.02951 0.134074 5.45951e-25)
(1.04653 0.0643782 -5.86648e-25)
(1.04149 0.03283 1.24534e-24)
(1.03073 0.0187697 -2.7224e-25)
(1.02233 0.0083717 8.59807e-25)
(1.01644 0.00592433 8.82346e-25)
(1.01165 0.00339463 5.85242e-25)
(1.00844 0.0024066 -2.38961e-25)
(1.006 0.00138234 0)
(1.00447 0.0011373 0)
(1.00321 0.000714543 -2.88792e-30)
(1.00326 -0.00103556 -1.53556e-26)
(1.0039 -0.00164896 -3.21714e-27)
(1.00475 -0.00182268 -1.29239e-26)
(1.00609 -0.00259571 5.87618e-26)
(1.00788 -0.00304679 6.70424e-26)
(1.01062 -0.00441579 3.79118e-25)
(1.01406 -0.00515744 1.06837e-24)
(1.01666 -0.00863784 0)
(1.02355 -0.0134525 0)
(1.03476 -0.022001 0)
(1.04765 -0.0421411 -1.07436e-25)
(1.07681 -0.0882586 1.32914e-26)
(1.13406 0.108327 0)
(1.08481 0.0458881 0)
(1.05719 0.0206543 0)
(1.03924 0.0108506 2.37868e-25)
(1.0257 0.00292149 0)
(1.01842 0.00230025 -9.1724e-25)
(1.01288 0.000830877 -6.16643e-25)
(1.00918 0.000662445 -5.54135e-26)
(1.00638 0.000168809 0)
(1.00468 0.000279772 6.76353e-27)
(1.00317 0.000308073 -5.30734e-27)
(1.00346 -0.000893533 3.24286e-27)
(1.00419 -0.0013068 -4.67575e-27)
(1.00509 -0.00128267 5.26242e-27)
(1.00653 -0.00177683 2.72827e-26)
(1.00844 -0.00172173 -6.90006e-26)
(1.01132 -0.00239212 -5.35322e-27)
(1.01511 -0.00192717 -1.02275e-25)
(1.01913 -0.0039509 -6.97437e-27)
(1.02759 -0.00505862 0)
(1.04187 -0.00619717 -2.63565e-25)
(1.06468 -0.0121629 1.31399e-30)
(1.11182 -0.0216289 -3.48394e-26)
(1.17742 0.0182607 -9.23599e-26)
(1.10396 0.00570343 -3.44742e-25)
(1.06365 0.000793495 -2.66956e-24)
(1.04309 -0.000628703 0)
(1.02655 -0.0034922 -1.73774e-24)
(1.01878 -0.00204597 0)
(1.01308 -0.00213211 -6.65888e-27)
(1.00922 -0.00137181 0)
(1.00627 -0.00122542 1.35997e-26)
(1.00452 -0.000731713 -4.99812e-27)
(1.00285 -0.000198643 -5.11579e-26)
(1.00355 -0.000719883 0)
(1.00432 -0.000932336 -2.71022e-26)
(1.00518 -0.000725717 -2.86521e-26)
(1.00659 -0.000936417 1.00819e-26)
(1.00841 -0.000423853 4.47959e-27)
(1.01104 -0.000395392 7.29386e-26)
(1.01455 0.00104901 3.35924e-25)
(1.01897 0.000841767 1.59652e-25)
(1.02641 0.00338943 0)
(1.03813 0.00902168 1.31354e-24)
(1.0586 0.0174924 4.07915e-25)
(1.09442 0.0387286 -1.59652e-26)
(1.15219 -0.0652114 -4.45115e-26)
(1.09531 -0.0339787 5.65985e-25)
(1.05849 -0.0189223 1.17732e-25)
(1.04091 -0.0121544 1.54485e-24)
(1.02463 -0.0093969 7.74376e-24)
(1.01743 -0.0062808 4.30931e-24)
(1.0122 -0.0050014 -2.92382e-24)
(1.00851 -0.00341468 -2.07973e-24)
(1.00564 -0.002626 1.5736e-25)
(1.00397 -0.00178889 6.92093e-26)
(1.00224 -0.000759549 -1.54388e-25)
(1.00353 -0.000541646 2.79659e-27)
(1.00428 -0.000584939 4.40997e-27)
(1.00506 -0.000246406 8.26199e-27)
(1.00632 -0.000229929 1.05826e-26)
(1.00791 0.000585418 -3.93073e-34)
(1.01003 0.0011176 1.63439e-25)
(1.01279 0.0030531 5.46052e-25)
(1.01662 0.00429073 1.82818e-25)
(1.0214 0.00890223 0)
(1.02737 0.0176621 -3.69449e-25)
(1.03832 0.0333094 -8.87382e-26)
(1.05114 0.0667098 -1.69948e-26)
(1.09077 -0.107759 -1.43244e-26)
(1.06811 -0.057026 0)
(1.04541 -0.032013 -2.3778e-24)
(1.03404 -0.0205908 1.9357e-24)
(1.02062 -0.0137016 1.10073e-23)
(1.01474 -0.00966938 7.25946e-24)
(1.0104 -0.00735431 0)
(1.00717 -0.00520282 -1.82756e-24)
(1.00457 -0.00387227 -1.00348e-24)
(1.00308 -0.00278376 9.73728e-26)
(1.00139 -0.00132442 -1.1753e-25)
(1.00344 -0.000382295 0)
(1.00414 -0.000309126 4.3055e-27)
(1.00479 9.32364e-05 -5.30616e-27)
(1.00586 0.000247181 -1.4926e-26)
(1.00713 0.00117315 0)
(1.00868 0.00192677 -5.07184e-26)
(1.01058 0.00386014 8.97959e-26)
(1.01325 0.00576162 -2.70274e-26)
(1.01523 0.0104922 -4.12832e-26)
(1.01567 0.0184076 1.9907e-25)
(1.01657 0.0328501 3.89393e-26)
(1.00804 0.0596862 0)
(1.02942 -0.104837 -8.19837e-27)
(1.03754 -0.060478 1.34068e-25)
(1.03036 -0.036391 1.13983e-24)
(1.02518 -0.0246144 1.38744e-25)
(1.01566 -0.0160141 4.81506e-24)
(1.01136 -0.0118323 5.10239e-24)
(1.00804 -0.00896147 0)
(1.00539 -0.00656216 -2.79558e-26)
(1.00317 -0.0048517 4.27114e-25)
(1.00192 -0.00363525 2.321e-25)
(1.00035 -0.00184905 8.3514e-27)
(1.00331 -0.000257457 0)
(1.00393 -0.000127087 0)
(1.00447 0.000273558 0)
(1.00534 0.000473759 0)
(1.00632 0.00134352 -1.02208e-26)
(1.00739 0.00207888 -8.93923e-27)
(1.00857 0.00360003 -1.95912e-25)
(1.00945 0.00585163 2.70761e-24)
(1.01027 0.00902429 0)
(1.00747 0.0138724 0)
(1.00301 0.0217151 6.24045e-25)
(0.982932 0.0302851 2.17645e-24)
(0.597695 -0.0440956 -6.68647e-26)
(0.991914 -0.0660581 -3.92906e-24)
(1.01536 -0.0503798 -7.41049e-25)
(1.01805 -0.0340467 -5.54949e-27)
(1.01682 -0.0247955 -3.12124e-26)
(1.0108 -0.0165765 -1.29211e-24)
(1.00791 -0.0127826 2.11103e-25)
(1.00549 -0.00980411 3.59314e-27)
(1.00343 -0.00743488 -1.85336e-24)
(1.00161 -0.00552362 0)
(1.0006 -0.00429711 8.54014e-26)
(0.999205 -0.00230272 -2.33791e-25)
(1.00319 -0.000173743 0)
(1.00372 -3.95873e-05 -2.3413e-26)
(1.00416 0.000310586 9.54924e-28)
(1.00486 0.000486672 0)
(1.00563 0.00120075 0)
(1.00638 0.00175932 -9.38221e-25)
(1.00712 0.00285439 1.92569e-25)
(1.00763 0.00411869 3.59578e-24)
(1.00732 0.00623437 4.01065e-24)
(1.00433 0.00812106 2.38549e-24)
(0.999554 0.0100369 0)
(0.987394 0.00542195 -2.35235e-25)
(0.874425 -0.0322334 1.46217e-25)
(0.988576 -0.0394119 -4.9921e-25)
(1.0043 -0.0343801 4.19598e-25)
(1.01023 -0.0285157 -4.18602e-25)
(1.00821 -0.0202945 7.39085e-25)
(1.00669 -0.0158732 -1.60812e-25)
(1.0048 -0.0127495 -1.87133e-28)
(1.00303 -0.0100029 -3.61377e-27)
(1.00148 -0.00786633 0)
(1.00002 -0.00590085 -7.98372e-25)
(0.999225 -0.00475996 -9.66925e-25)
(0.998019 -0.00266898 -3.01784e-25)
(1.0031 -0.000130472 6.24373e-28)
(1.00355 -3.2966e-05 -2.16169e-26)
(1.00392 0.000239122 4.55353e-26)
(1.0045 0.000348284 5.30825e-30)
(1.00513 0.000867096 -1.69074e-25)
(1.00572 0.00119373 -6.67043e-25)
(1.0063 0.00182946 -2.10641e-24)
(1.00664 0.00244704 -3.14104e-24)
(1.00617 0.00341111 -9.19818e-25)
(1.00425 0.00335293 -1.37918e-25)
(1.00165 0.00157218 0)
(0.996131 -0.00223066 -9.87876e-26)
(0.903426 -0.0253078 -6.89439e-25)
(0.993987 -0.0247768 -1.29931e-25)
(1.00163 -0.0256631 -1.22133e-25)
(1.00596 -0.0230424 -2.21447e-25)
(1.00474 -0.0177817 -3.463e-24)
(1.0036 -0.0146852 0)
(1.00222 -0.0121614 -5.50724e-25)
(1.00085 -0.00977138 -2.01492e-25)
(0.999663 -0.00794162 -2.50704e-26)
(0.998479 -0.00602967 1.58381e-25)
(0.997869 -0.00502982 0)
(0.996854 -0.00294388 0)
(1.00304 -0.000122409 -1.20188e-28)
(1.00343 -8.69996e-05 1.93472e-27)
(1.00376 9.76879e-05 1.93437e-26)
(1.00427 0.000122737 0)
(1.00485 0.000443682 -7.11481e-26)
(1.00539 0.000559969 0)
(1.006 0.000764483 -1.16952e-24)
(1.00645 0.000952208 3.5232e-25)
(1.00664 0.000431139 -2.16557e-26)
(1.00535 0.000257767 -8.06519e-26)
(1.00506 -0.00220845 3.42916e-25)
(1.00097 -0.0082647 -1.69236e-25)
(0.945556 -0.0191403 -1.12572e-24)
(0.996653 -0.0195968 7.57583e-26)
(1.00125 -0.019952 3.32618e-25)
(1.00374 -0.0186137 1.16028e-25)
(1.00219 -0.0154094 -1.68221e-24)
(1.00132 -0.0131512 1.89498e-24)
(1.00015 -0.0112669 0)
(0.999013 -0.00926145 6.8474e-25)
(0.998052 -0.0077703 -7.51812e-26)
(0.997073 -0.00597502 1.78803e-25)
(0.99659 -0.00514558 0)
(0.995744 -0.00313519 0)
(1.00304 -0.000142364 9.79086e-29)
(1.00337 -0.000180726 3.20433e-27)
(1.00369 -7.98088e-05 -2.35506e-26)
(1.00417 -0.000136343 -9.72699e-27)
(1.00475 8.92121e-06 0)
(1.00531 -2.96366e-05 0)
(1.00606 -0.000126775 5.82843e-25)
(1.00678 -0.000237949 -1.64801e-25)
(1.00751 -0.00106431 1.65229e-25)
(1.00712 -0.00209576 -6.55877e-25)
(1.0074 -0.00395384 0)
(0.99972 -0.00697113 -4.06169e-25)
(0.95372 -0.0174672 -1.8356e-24)
(0.999485 -0.0152575 5.18391e-25)
(1.00177 -0.0147838 1.03813e-24)
(1.00227 -0.0136352 2.72729e-24)
(1.00068 -0.0132246 1.52072e-24)
(0.999741 -0.0115182 1.58944e-24)
(0.998545 -0.0102647 -2.44577e-25)
(0.997513 -0.00859695 -1.62054e-25)
(0.996665 -0.0074409 -3.51526e-25)
(0.995826 -0.00579264 -1.26992e-24)
(0.995423 -0.00513902 4.36367e-27)
(0.994721 -0.00325193 -6.81158e-26)
(1.00308 -0.000183084 -1.27796e-26)
(1.00338 -0.000296168 3.89882e-27)
(1.0037 -0.000268182 -2.49351e-26)
(1.00417 -0.00039255 -3.68276e-26)
(1.00479 -0.000390729 0)
(1.00541 -0.000521024 0)
(1.00632 -0.00082476 1.47702e-24)
(1.00724 -0.000982066 1.50773e-25)
(1.00856 -0.0021255 -2.70626e-25)
(1.00835 -0.00202154 -9.24638e-25)
(1.00995 -0.0062789 0)
(0.963808 -0.00175265 -1.71472e-24)
(0.975912 -0.0133184 1.32476e-25)
(1.00312 -0.0093918 2.91095e-25)
(1.00192 -0.0128008 2.43642e-25)
(1.00202 -0.0113136 -6.3745e-25)
(0.999858 -0.0115028 -4.76033e-25)
(0.998669 -0.0100822 2.69333e-25)
(0.997333 -0.00930527 -7.09791e-26)
(0.996315 -0.00788445 -1.21401e-24)
(0.995499 -0.00703108 -3.94614e-25)
(0.994748 -0.00553296 -1.65172e-24)
(0.994383 -0.00504379 0)
(0.993799 -0.00330748 -2.36223e-25)
(1.00317 -0.000238387 -1.48907e-26)
(1.00345 -0.000420046 -1.38347e-26)
(1.00379 -0.000452047 0)
(1.00425 -0.000626557 -2.40062e-26)
(1.00493 -0.000740201 0)
(1.00561 -0.000906335 -8.44004e-25)
(1.00669 -0.00137769 -1.4413e-25)
(1.00772 -0.0014394 1.2721e-25)
(1.0094 -0.00289829 -2.16743e-25)
(1.00941 -0.00219723 -2.73193e-25)
(1.01036 -0.00654105 -1.618e-25)
(0.965831 -0.00246917 -1.8813e-24)
(0.978279 -0.0112465 1.13148e-24)
(1.00368 -0.00735124 -2.57543e-25)
(1.00221 -0.011148 -1.32103e-25)
(1.00186 -0.00940193 -3.76343e-26)
(0.999283 -0.0101062 -2.71273e-25)
(0.997899 -0.00882302 -3.12002e-25)
(0.996407 -0.00842926 -6.8424e-25)
(0.995362 -0.00718185 -1.72912e-25)
(0.994527 -0.00659257 -1.05847e-25)
(0.993828 -0.00523288 -5.44454e-25)
(0.993471 -0.00488994 -2.33863e-25)
(0.99298 -0.00331442 -1.05189e-25)
(1.0033 -0.000303548 0)
(1.00356 -0.000543548 -3.15775e-26)
(1.00392 -0.000623359 -2.27379e-26)
(1.0044 -0.000829744 -1.22825e-26)
(1.00514 -0.00103761 1.56528e-25)
(1.00587 -0.00119582 -1.00535e-24)
(1.00708 -0.0018114 0)
(1.00822 -0.0017265 -2.55925e-25)
(1.01011 -0.00340044 0)
(1.01042 -0.00232963 0)
(1.01102 -0.0064245 -1.20332e-27)
(0.967614 -0.00262513 2.17174e-27)
(0.979974 -0.00980651 4.05991e-25)
(1.00426 -0.00606104 -1.62905e-25)
(1.00261 -0.00983113 -6.3629e-26)
(1.00179 -0.00789381 -2.99233e-26)
(0.9989 -0.00897116 4.85818e-26)
(0.99734 -0.00772528 -1.36193e-25)
(0.995693 -0.00764915 -1.82048e-25)
(0.994603 -0.00651743 3.06337e-25)
(0.99372 -0.00615558 -1.05795e-25)
(0.993049 -0.00491733 0)
(0.992681 -0.00470034 4.8768e-30)
(0.992261 -0.00328367 0)
(1.00346 -0.000375201 0)
(1.00371 -0.000661316 -4.12438e-26)
(1.0041 -0.000778633 -2.39834e-26)
(1.00458 -0.000999746 5.00628e-26)
(1.00539 -0.0012854 0)
(1.00615 -0.00140468 5.59505e-26)
(1.00749 -0.00213917 -7.5223e-25)
(1.00871 -0.00189511 -5.32653e-25)
(1.01072 -0.00369073 -4.45315e-26)
(1.01127 -0.00236584 -6.82059e-28)
(1.01159 -0.00617976 3.88601e-25)
(0.968849 -0.00263683 -2.78187e-25)
(0.981046 -0.00871856 5.098e-25)
(1.00474 -0.00513052 -1.19526e-25)
(1.00298 -0.0087809 1.27695e-25)
(1.00178 -0.00671229 -2.62561e-27)
(0.998659 -0.00804821 -1.12985e-25)
(0.996933 -0.00678491 9.08215e-26)
(0.995141 -0.00696937 2.37116e-25)
(0.993997 -0.00590685 -4.52298e-30)
(0.993051 -0.00573873 -5.05138e-26)
(0.992394 -0.00460267 -3.39446e-25)
(0.992001 -0.00449172 1.76151e-25)
(0.991635 -0.00322431 1.62485e-25)
(1.00364 -0.000451126 -2.51875e-26)
(1.00388 -0.000770641 -4.84548e-26)
(1.0043 -0.000917379 -8.32007e-34)
(1.00479 -0.00113834 1.14159e-25)
(1.00565 -0.00148873 2.84826e-25)
(1.00645 -0.00155016 3.96816e-26)
(1.00788 -0.00238022 -7.45717e-25)
(1.00918 -0.00198523 -4.82177e-25)
(1.01124 -0.00384552 2.70968e-25)
(1.01196 -0.00235784 0)
(1.01201 -0.00590163 7.7029e-26)
(0.969772 -0.00257762 -9.8895e-26)
(0.981823 -0.00785607 1.59475e-25)
(1.00512 -0.00442567 -9.30979e-26)
(1.0033 -0.00792577 -5.46059e-31)
(1.00178 -0.00577555 -1.75987e-25)
(0.998506 -0.00729112 -9.23001e-26)
(0.996629 -0.00598672 -1.95736e-26)
(0.99471 -0.00638386 1.2719e-25)
(0.993511 -0.00535665 -1.84229e-25)
(0.992496 -0.00535219 -2.88199e-25)
(0.991842 -0.00429925 -1.43765e-25)
(0.991418 -0.00427629 -1.5207e-25)
(0.991091 -0.0031437 1.41964e-25)
(1.00384 -0.000529914 -3.17148e-34)
(1.00408 -0.000870746 -2.67404e-26)
(1.00452 -0.00104078 2.98503e-26)
(1.00502 -0.00124963 6.12239e-26)
(1.00593 -0.00165431 2.91165e-29)
(1.00676 -0.00164837 0)
(1.00824 -0.00255433 -2.38649e-26)
(1.00961 -0.00202636 -4.51361e-25)
(1.01169 -0.0039125 2.3263e-25)
(1.01253 -0.00232519 0)
(1.01233 -0.00561652 -1.75295e-30)
(0.97051 -0.00247857 7.54794e-26)
(0.982418 -0.00716251 -1.63103e-25)
(1.00543 -0.00388472 0)
(1.00356 -0.00722364 1.09201e-26)
(1.0018 -0.00502779 4.44188e-26)
(0.998405 -0.00666545 0)
(0.996394 -0.00531211 4.18448e-26)
(0.99437 -0.00588237 4.16316e-26)
(0.993116 -0.00486715 -4.73563e-25)
(0.992034 -0.0050002 -1.21133e-25)
(0.991377 -0.00401296 1.22311e-25)
(0.990917 -0.00406207 -1.56991e-25)
(0.99062 -0.00304768 0)
(1.00405 -0.000610801 2.88283e-26)
(1.00428 -0.000961992 -2.83331e-26)
(1.00475 -0.00115088 0)
(1.00525 -0.00133856 2.47248e-26)
(1.0062 -0.00178898 7.33036e-26)
(1.00705 -0.00171278 1.87906e-26)
(1.00858 -0.00267787 0)
(1.01 -0.00203758 2.57753e-27)
(1.01207 -0.00392284 2.05571e-25)
(1.01301 -0.0022801 0)
(1.01257 -0.00534246 5.2868e-26)
(0.97111 -0.00236525 3.11208e-26)
(0.982873 -0.00659841 -1.10082e-25)
(1.00569 -0.00346242 1.50056e-26)
(1.00378 -0.00664375 -3.8502e-26)
(1.00181 -0.00442834 -9.98291e-28)
(0.998338 -0.00614568 3.13431e-26)
(0.996209 -0.00474393 -1.23228e-26)
(0.994096 -0.00545412 1.36349e-27)
(0.992792 -0.00443575 -1.71837e-25)
(0.991646 -0.00468384 6.46508e-26)
(0.990981 -0.00374682 7.2312e-26)
(0.990487 -0.00385456 -2.47919e-26)
(0.990209 -0.0029408 -1.26566e-26)
(1.00427 -0.000693342 -2.76199e-27)
(1.00449 -0.0010454 -3.77364e-26)
(1.00498 -0.00124991 -6.70751e-27)
(1.00549 -0.00140996 0)
(1.00647 -0.00189907 5.71656e-25)
(1.00734 -0.00175411 0)
(1.00889 -0.0027642 -3.26808e-25)
(1.01035 -0.00203209 0)
(1.0124 -0.00389867 1.75314e-25)
(1.0134 -0.00223238 1.01419e-25)
(1.01274 -0.00508879 0)
(0.971606 -0.00225762 2.47173e-26)
(0.983229 -0.00613716 0)
(1.00589 -0.0031296 1.19527e-26)
(1.00396 -0.0061616 -1.0344e-26)
(1.00182 -0.00394657 0)
(0.998291 -0.00571205 0)
(0.996057 -0.00426741 -1.02669e-26)
(0.993873 -0.00508923 1.50928e-26)
(0.992521 -0.00405876 0)
(0.991316 -0.00440196 0)
(0.990642 -0.00350201 6.0408e-26)
(0.990113 -0.00365702 1.17969e-26)
(0.989848 -0.00282665 -4.83123e-26)
(1.00448 -0.00077726 2.80028e-27)
(1.00471 -0.00112218 2.63718e-27)
(1.00521 -0.00133999 0)
(1.00572 -0.00146825 -8.36709e-27)
(1.00672 -0.00199008 2.88612e-25)
(1.00761 -0.00178067 8.87424e-27)
(1.00917 -0.0028242 -2.91873e-25)
(1.01067 -0.00201937 -5.84462e-28)
(1.01269 -0.00385625 0)
(1.01373 -0.00218657 1.01767e-25)
(1.01284 -0.00486247 0)
(0.972022 -0.00216682 0)
(0.983521 -0.00575601 0)
(1.00606 -0.00286579 6.56127e-26)
(1.00411 -0.00575853 9.82341e-26)
(1.00183 -0.00355991 0)
(0.998253 -0.00534945 -3.17097e-27)
(0.995927 -0.00387002 0)
(0.993685 -0.00477897 0)
(0.992289 -0.0037318 0)
(0.991033 -0.00415252 0)
(0.990348 -0.00327921 -5.43967e-26)
(0.989787 -0.0034714 -4.416e-26)
(0.989529 -0.0027085 7.62008e-31)
(1.00469 -0.00086227 0)
(1.00492 -0.00119349 1.45801e-26)
(1.00543 -0.00142292 -2.66933e-26)
(1.00595 -0.00151698 3.09394e-26)
(1.00696 -0.00206659 2.75086e-25)
(1.00786 -0.00179863 5.50109e-25)
(1.00943 -0.0028665 0)
(1.01096 -0.00200621 0)
(1.01295 -0.00380746 1.71807e-26)
(1.014 -0.00214833 1.66513e-27)
(1.01291 -0.00466789 -3.2027e-33)
(0.972375 -0.00209258 3.6393e-26)
(0.983758 -0.00543888 1.43133e-25)
(1.0062 -0.0026579 5.13753e-26)
(1.00423 -0.00542491 3.20699e-27)
(1.00183 -0.00324972 0)
(0.99822 -0.00504687 -7.38261e-26)
(0.995811 -0.00353936 -9.7638e-26)
(0.993523 -0.00451586 0)
(0.992086 -0.00344946 -9.72456e-26)
(0.990784 -0.00393331 -8.81177e-41)
(0.990086 -0.00307736 1.34152e-25)
(0.989496 -0.00329901 8.18058e-26)
(0.989242 -0.00258842 6.81413e-26)
(1.0049 -0.000947957 -3.14767e-26)
(1.00512 -0.00126014 1.1985e-26)
(1.00565 -0.00149992 -1.49329e-26)
(1.00616 -0.0015589 6.01698e-26)
(1.00719 -0.00213215 2.52113e-25)
(1.0081 -0.00181251 1.0466e-24)
(1.00967 -0.0028976 0)
(1.01122 -0.00199652 0)
(1.01317 -0.00375985 1.54455e-26)
(1.01424 -0.00212158 0)
(1.01295 -0.00450519 0)
(0.972681 -0.00203795 0)
(0.983951 -0.00517824 0)
(1.00632 -0.00249811 -3.91687e-26)
(1.00433 -0.00515039 -6.23903e-26)
(1.00182 -0.003003 -6.01517e-26)
(0.998188 -0.00479568 -1.1611e-25)
(0.995706 -0.00326628 -8.21568e-26)
(0.993379 -0.00429389 0)
(0.991904 -0.00320748 -2.55009e-26)
(0.990562 -0.00374217 0)
(0.98985 -0.00289579 0)
(0.989233 -0.00314056 3.74646e-26)
(0.988978 -0.00246837 2.87514e-26)
(1.00509 -0.00103367 -2.61302e-26)
(1.00532 -0.00132258 -1.70844e-26)
(1.00585 -0.00157169 -4.9111e-27)
(1.00637 -0.00159587 5.50012e-27)
(1.00741 -0.00218931 -7.08425e-34)
(1.00833 -0.0018255 4.96102e-25)
(1.00989 -0.00292228 0)
(1.01145 -0.00199286 -3.30002e-26)
(1.01337 -0.00371862 6.22747e-27)
(1.01444 -0.00210907 -2.15796e-27)
(1.01296 -0.0043746 5.54385e-26)
(0.972949 -0.00200535 1.49342e-26)
(0.984107 -0.00496865 4.53431e-26)
(1.00642 -0.00238083 0)
(1.00441 -0.00492726 0)
(1.00181 -0.00281008 8.44089e-28)
(0.998155 -0.00458917 4.69452e-26)
(0.995606 -0.00304327 3.40261e-31)
(0.993247 -0.00410837 -4.27735e-26)
(0.991736 -0.00300219 0)
(0.99036 -0.00357708 0)
(0.989631 -0.00273401 1.53385e-26)
(0.988991 -0.00299659 0)
(0.98873 -0.0023502 0)
(1.00528 -0.00111842 0)
(1.00551 -0.00138057 -2.6661e-26)
(1.00605 -0.00163824 -1.83126e-26)
(1.00657 -0.00162876 -3.06575e-26)
(1.00761 -0.00223973 0)
(1.00855 -0.00183931 0)
(1.0101 -0.0029436 0)
(1.01168 -0.00199711 -3.05255e-26)
(1.01356 -0.00368782 0)
(1.01462 -0.0021133 -3.444e-27)
(1.01296 -0.00427723 1.96789e-26)
(0.973185 -0.00199738 1.2254e-27)
(0.984236 -0.00480641 3.37662e-26)
(1.00649 -0.00230254 3.71352e-26)
(1.00447 -0.00474993 3.78467e-26)
(1.00179 -0.00266361 0)
(0.998117 -0.004422 -3.71674e-26)
(0.995507 -0.00286425 -4.34986e-26)
(0.993124 -0.00395552 0)
(0.991576 -0.00283049 0)
(0.990171 -0.00343662 0)
(0.989423 -0.00259175 1.46825e-26)
(0.988762 -0.00286772 0)
(0.988491 -0.00223581 0)
(1.00545 -0.0012006 1.35612e-27)
(1.00568 -0.00143332 -2.09845e-26)
(1.00623 -0.00169882 4.16664e-27)
(1.00677 -0.00165771 0)
(1.00781 -0.00228394 2.66552e-26)
(1.00876 -0.00185352 9.9077e-27)
(1.01029 -0.00296315 0)
(1.01189 -0.00200965 -1.46994e-26)
(1.01373 -0.00366971 8.17041e-28)
(1.01479 -0.00213618 -7.1527e-27)
(1.01295 -0.00421563 -2.53519e-27)
(0.973393 -0.00201735 -5.8094e-27)
(0.984341 -0.00468951 4.53397e-26)
(1.00655 -0.00226107 5.39984e-28)
(1.00451 -0.00461397 -2.97533e-28)
(1.00176 -0.00255783 2.52675e-26)
(0.998074 -0.0042899 9.83993e-28)
(0.995407 -0.00272413 -3.73394e-27)
(0.993004 -0.00383213 0)
(0.99142 -0.0026898 -2.81522e-26)
(0.989991 -0.00331962 -2.64697e-26)
(0.989221 -0.00246904 0)
(0.988541 -0.0027549 3.3932e-26)
(0.988255 -0.00212737 9.20445e-27)
(1.0056 -0.00127774 0)
(1.00585 -0.00147923 -1.37423e-26)
(1.0064 -0.00175203 -5.52439e-27)
(1.00696 -0.0016825 -1.86196e-27)
(1.008 -0.00232152 0)
(1.00896 -0.00186773 2.2762e-25)
(1.01048 -0.00298159 -5.97971e-26)
(1.0121 -0.00202956 -2.78828e-26)
(1.0139 -0.00366545 2.483e-27)
(1.01495 -0.0021792 1.21185e-26)
(1.01293 -0.00419558 -1.71983e-27)
(0.973576 -0.00207102 -2.85157e-26)
(0.984425 -0.00461794 1.15347e-26)
(1.00658 -0.00225556 2.02847e-28)
(1.00454 -0.00451563 -1.89329e-26)
(1.00172 -0.0024877 -1.63256e-26)
(0.998026 -0.00418904 2.15953e-27)
(0.995302 -0.00261865 -3.89262e-27)
(0.992889 -0.0037358 0)
(0.991265 -0.00257835 -1.80213e-26)
(0.989818 -0.00322562 -2.07336e-26)
(0.989021 -0.00236663 0)
(0.988326 -0.00265963 1.15102e-26)
(0.988018 -0.00202775 -1.67579e-26)
(1.00574 -0.00134651 -1.02312e-26)
(1.00602 -0.0015163 1.19117e-26)
(1.00656 -0.001796 -2.65709e-26)
(1.00715 -0.00170151 -1.45997e-27)
(1.00818 -0.00235146 1.9067e-26)
(1.00918 -0.00188066 2.44626e-25)
(1.01067 -0.00299822 -2.61536e-26)
(1.01232 -0.00205447 -7.62109e-27)
(1.01408 -0.00367461 5.68571e-27)
(1.01512 -0.00224153 3.02311e-26)
(1.01293 -0.00422547 1.16695e-26)
(0.97373 -0.00216632 2.46827e-26)
(0.98449 -0.0045921 -2.78853e-28)
(1.00659 -0.00228528 0)
(1.00455 -0.00445072 -1.10164e-26)
(1.00166 -0.002448 -8.70052e-27)
(0.997972 -0.00411554 1.18823e-27)
(0.995185 -0.00254369 0)
(0.992773 -0.003664 2.18273e-27)
(0.991101 -0.0024943 2.97506e-27)
(0.989647 -0.00315379 -1.51739e-26)
(0.988811 -0.00228528 -1.89204e-26)
(0.988106 -0.00258332 7.82965e-27)
(0.987765 -0.00194035 0)
(1.00584 -0.00139895 -7.45288e-27)
(1.00616 -0.0015401 1.0954e-26)
(1.0067 -0.00182595 -9.95501e-27)
(1.00732 -0.00171215 0)
(1.00833 -0.00237055 0)
(1.00937 -0.00188934 -5.42265e-26)
(1.01083 -0.0030093 2.80471e-26)
(1.01252 -0.00207796 1.37633e-26)
(1.01425 -0.00369238 1.53438e-26)
(1.0153 -0.00232027 -3.39131e-27)
(1.01293 -0.00433676 -3.21099e-26)
(0.973846 -0.00232677 0)
(0.984538 -0.00461711 0)
(1.00657 -0.00235147 0)
(1.00454 -0.00441361 0)
(1.00159 -0.0024322 -1.43254e-27)
(0.997924 -0.00406652 0)
(0.995072 -0.0024972 0)
(0.992675 -0.00361603 1.9161e-27)
(0.99095 -0.00243885 0)
(0.989499 -0.00310557 0)
(0.988619 -0.00222913 0)
(0.987912 -0.00253037 7.01781e-27)
(0.98753 -0.00187328 0)
(1.00596 -0.00143552 0)
(1.00638 -0.00155338 -1.0739e-27)
(1.00686 -0.00184441 -2.86191e-27)
(1.0076 -0.0017167 -5.37842e-28)
(1.00852 -0.00238145 4.38522e-27)
(1.0097 -0.00189451 -8.67444e-26)
(1.01105 -0.00301519 3.77968e-27)
(1.01289 -0.00209684 4.56013e-30)
(1.01451 -0.00371338 3.63691e-33)
(1.0157 -0.00239323 -6.57144e-31)
(1.01308 -0.00452565 -5.17751e-26)
(0.973861 -0.00255825 0)
(0.984553 -0.00467861 -2.11651e-26)
(1.00643 -0.00244673 -2.48527e-26)
(1.0045 -0.00439485 4.75396e-28)
(1.00143 -0.0024312 -1.97729e-27)
(0.997867 -0.00403351 0)
(0.994861 -0.00247006 0)
(0.992553 -0.0035844 0)
(0.990687 -0.0024043 0)
(0.989298 -0.00307411 0)
(0.988298 -0.00219236 0)
(0.987628 -0.00249539 4.96031e-27)
(0.987138 -0.00182513 0)
(1.06842 -0.0948972 1.79205e-26)
(1.13001 0.128483 7.00464e-26)
(1.02117 0.150092 2.7597e-25)
(1.11054 -0.0305787 -3.4286e-26)
(1.18551 0.0316234 -1.09909e-26)
(1.1414 0.118287 -5.70988e-26)
(1.09861 0.0328249 -1.44335e-26)
(1.16436 -0.070466 -1.60373e-25)
(1.18689 0.0177362 -4.75593e-26)
(1.05719 0.0650879 -8.24244e-26)
(1.10093 -0.114884 2.27767e-25)
(1.15782 -0.0791329 0)
(1.01255 0.0618681 6.86281e-30)
(1.03293 -0.115059 -1.60013e-25)
(1.09195 -0.117414 1.54284e-25)
(0.98447 0.0346805 0)
(0.474401 0.00771526 -5.66916e-26)
(0.573625 -0.0478656 1.30072e-25)
(0.988966 -0.0780639 8.30778e-25)
(1.02541 -0.112134 -2.36897e-25)
(0.976352 -0.0973183 2.03223e-25)
(0.90905 0.00901791 4.37222e-26)
(1.00576 0.14279 4.15156e-25)
(0.963818 0.0713112 1.02222e-24)
(1.04001 -0.0472722 -1.2672e-25)
(1.06436 -0.0848616 5.13018e-27)
(0.996472 -0.0935292 -2.54744e-25)
(1.08836 0.243082 0)
(0.958455 0.232927 -2.25967e-25)
(1.12376 0.117203 0)
(1.08285 0.0654881 1.30317e-26)
(1.04596 0.0765508 -1.42921e-24)
(1.0627 -0.0204322 1.24828e-25)
(1.10338 -0.0280162 -3.27828e-26)
(1.07199 -0.0790099 6.04791e-27)
(1.09656 -0.065317 -5.83691e-27)
(1.12678 -0.0816817 5.39913e-27)
(1.10042 -0.120868 -7.60757e-27)
(1.20358 0.0976876 8.38343e-26)
(1.17394 0.170922 3.12985e-26)
(1.17569 0.0303146 5.04971e-27)
(1.11315 0.0216047 -4.12454e-25)
(1.09331 0.0567422 1.49652e-25)
(1.06193 0.0110368 2.6349e-25)
(1.09399 0.0293885 1.25513e-26)
(1.1047 -0.0197795 -2.74044e-28)
(1.11041 0.00409386 2.16187e-30)
(1.13722 0.0155364 -3.34325e-26)
(1.14219 -0.0272561 -6.44599e-28)
(1.21776 -0.0222659 2.25193e-27)
(1.22536 0.0479482 -4.04254e-26)
(1.15852 -0.0565828 -1.80272e-25)
(1.109 -0.0289517 5.96776e-26)