/*--------------------------------*- C++ -*----------------------------------*\
| =========                 |                                                 |
| \\      /  F ield         | OpenFOAM: The Open Source CFD Toolbox           |
|  \\    /   O peration     | Version:  5.x                                   |
|   \\  /    A nd           | Web:      www.OpenFOAM.org                      |
|    \\/     M anipulation  |                                                 |
\*---------------------------------------------------------------------------*/
FoamFile
{
    version     2.0;
    format      ascii;
    class       volScalarField;
    location    "600";
    object      xf;
}
// * * * * * * * * * * * * * * * * * * * * * * * * * * * * * * * * * * * * * //

dimensions      [0 0 0 0 0 0 0];

internalField   nonuniform List<scalar> 
6584
(
0.317357
0.317357
0.317357
0.317357
0.317357
0.317357
0.317357
0.317357
0.317358
0.317358
0.317358
0.317358
0.317358
0.317358
0.317358
0.317358
0.317357
0.317357
0.317357
0.317357
0.317356
0.317356
0.317356
0.317356
0.31701
0.317011
0.31701
0.317011
0.317011
0.317011
0.317012
0.317013
0.317013
0.317014
0.317014
0.317014
0.317014
0.317014
0.317014
0.317013
0.317013
0.317012
0.317012
0.317011
0.317011
0.31701
0.31701
0.31701
0.316664
0.316664
0.316664
0.316664
0.316665
0.316665
0.316666
0.316668
0.316669
0.316841
0.316841
0.316841
0.316841
0.316841
0.316841
0.316669
0.316668
0.316667
0.316666
0.316665
0.316665
0.316665
0.316664
0.316664
0.316318
0.316318
0.316318
0.316319
0.316319
0.31632
0.316321
0.316323
0.316324
0.316496
0.316495
0.316495
0.316495
0.316496
0.316496
0.316497
0.316322
0.316322
0.316321
0.31632
0.316319
0.316319
0.316318
0.316318
0.315972
0.315972
0.315973
0.315973
0.315974
0.315974
0.315975
0.315975
0.316149
0.31615
0.316148
0.316146
0.316146
0.316147
0.31615
0.31615
0.31615
0.315978
0.315976
0.315975
0.315974
0.315973
0.315973
0.315972
0.315626
0.315626
0.315627
0.315628
0.315629
0.315629
0.31563
0.315802
0.315801
0.3158
0.315885
0.315881
0.31588
0.315884
0.315802
0.315806
0.315806
0.315635
0.315632
0.315631
0.315629
0.315628
0.315627
0.315627
0.315281
0.315281
0.315282
0.315282
0.315284
0.315285
0.315287
0.315457
0.315456
0.315453
0.315529
0.315565
0.31556
0.315527
0.315543
0.315463
0.315464
0.315295
0.31529
0.315287
0.315285
0.315283
0.315282
0.315281
0.314935
0.314936
0.314937
0.314938
0.314939
0.314941
0.314945
0.315114
0.315113
0.315113
0.315181
0.315196
0.315212
0.315201
0.315126
0.315125
0.314955
0.314948
0.314944
0.314941
0.314939
0.314937
0.314936
0.31459
0.314591
0.314592
0.314594
0.314596
0.314598
0.314603
0.314773
0.314773
0.314777
0.314845
0.314859
0.31488
0.314872
0.314795
0.314789
0.314617
0.314607
0.314601
0.314598
0.314595
0.314593
0.314591
0.314245
0.314246
0.314248
0.314249
0.314252
0.314256
0.314262
0.314432
0.314435
0.314445
0.314517
0.314544
0.314576
0.314552
0.314466
0.314455
0.314279
0.314266
0.314259
0.314254
0.31425
0.314248
0.314246
0.3139
0.313901
0.313903
0.313905
0.313909
0.313913
0.313921
0.314092
0.314098
0.314112
0.314192
0.31423
0.314275
0.314235
0.314139
0.314122
0.313941
0.313926
0.313917
0.31391
0.313906
0.313903
0.313901
0.313555
0.313557
0.313559
0.313561
0.313565
0.313571
0.31358
0.313752
0.313761
0.313777
0.313862
0.313906
0.313962
0.313912
0.313808
0.313788
0.313602
0.313585
0.313575
0.313567
0.313562
0.313558
0.313556
0.31321
0.313212
0.313214
0.313218
0.313222
0.313228
0.313238
0.313411
0.313422
0.313439
0.313525
0.313567
0.313629
0.31358
0.313474
0.313451
0.313262
0.313243
0.313232
0.313223
0.313216
0.313213
0.31321
0.312865
0.312867
0.31287
0.312873
0.312878
0.312885
0.312896
0.312901
0.313078
0.313094
0.313176
0.313204
0.223332
0.31323
0.313239
0.313136
0.313111
0.312921
0.312901
0.312889
0.312878
0.312872
0.312867
0.312864
0.31252
0.312522
0.312525
0.312529
0.312534
0.312541
0.312551
0.312554
0.31273
0.312745
0.312827
0.312806
0.288646
0.312877
0.3128
0.312792
0.312589
0.312576
0.312555
0.312543
0.312534
0.312527
0.312522
0.312517
0.312175
0.312177
0.31218
0.312185
0.31219
0.312197
0.312205
0.312208
0.312385
0.312401
0.312396
0.312455
0.289482
0.312443
0.312454
0.312448
0.312245
0.312231
0.31221
0.312197
0.312187
0.312179
0.312175
0.312171
0.31183
0.311833
0.311836
0.31184
0.311846
0.311852
0.31186
0.311865
0.311875
0.312057
0.312051
0.311682
0.30026
0.312093
0.312107
0.312102
0.311899
0.311886
0.311864
0.31185
0.31184
0.311832
0.311827
0.311823
0.311485
0.311487
0.311491
0.311495
0.311501
0.311506
0.311515
0.311521
0.311531
0.311537
0.311706
0.311128
0.300051
0.311743
0.311591
0.311572
0.311553
0.31154
0.311517
0.311503
0.311493
0.311484
0.31148
0.311474
0.31114
0.311142
0.311146
0.311151
0.311156
0.311161
0.311171
0.311178
0.311188
0.311193
0.311132
0.295989
0.30544
0.31123
0.311245
0.311226
0.311207
0.311193
0.311171
0.311156
0.311145
0.311137
0.311132
0.311126
0.310795
0.310797
0.310801
0.310806
0.310812
0.310817
0.310827
0.310835
0.310845
0.310849
0.310742
0.295679
0.305103
0.310881
0.310899
0.31088
0.31086
0.310847
0.310824
0.310809
0.310798
0.310789
0.310783
0.310777
0.310449
0.310452
0.310456
0.310461
0.310467
0.310473
0.310484
0.310491
0.310502
0.310506
0.310356
0.295364
0.304762
0.310532
0.310553
0.310534
0.310514
0.3105
0.310477
0.310461
0.31045
0.310441
0.310435
0.310429
0.310104
0.310107
0.310111
0.310116
0.310123
0.310129
0.310141
0.310148
0.310159
0.310162
0.309971
0.295045
0.304418
0.310183
0.310207
0.310189
0.310167
0.310153
0.310129
0.310114
0.310102
0.310092
0.310087
0.31008
0.309759
0.309762
0.309766
0.309772
0.309779
0.309785
0.309797
0.309805
0.309817
0.309818
0.309589
0.294724
0.304072
0.309834
0.309861
0.309843
0.309821
0.309806
0.309782
0.309766
0.309754
0.309744
0.309738
0.309731
0.309414
0.309417
0.309421
0.309427
0.309434
0.309441
0.309454
0.309462
0.309474
0.309475
0.309209
0.294399
0.303724
0.309485
0.309516
0.309498
0.309475
0.30946
0.309435
0.309418
0.309405
0.309395
0.309389
0.309382
0.309069
0.309072
0.309076
0.309083
0.30909
0.309097
0.309111
0.30912
0.309132
0.309132
0.30883
0.294073
0.303375
0.309136
0.30917
0.309152
0.309128
0.309113
0.309087
0.30907
0.309057
0.309047
0.30904
0.309033
0.308724
0.308727
0.308732
0.308738
0.308746
0.308754
0.308768
0.308777
0.30879
0.308789
0.30845
0.293747
0.303027
0.308787
0.308825
0.308807
0.308782
0.308766
0.30874
0.308722
0.308709
0.308698
0.308692
0.308684
0.308379
0.308382
0.308387
0.308394
0.308402
0.30841
0.308425
0.308434
0.308448
0.308446
0.308066
0.293424
0.302681
0.30844
0.308481
0.308462
0.308437
0.30842
0.308393
0.308375
0.308361
0.30835
0.308344
0.308336
0.308034
0.308038
0.308042
0.308049
0.308058
0.308067
0.308082
0.308092
0.308106
0.308102
0.307685
0.293099
0.302334
0.308093
0.308136
0.308118
0.308091
0.308074
0.308046
0.308028
0.308014
0.308002
0.307995
0.307988
0.307689
0.307693
0.307698
0.307705
0.307714
0.307723
0.307739
0.30775
0.307765
0.307759
0.307304
0.292773
0.301986
0.307746
0.307792
0.307773
0.307745
0.307728
0.3077
0.30768
0.307666
0.307654
0.307647
0.30764
0.307344
0.307348
0.307353
0.307361
0.30737
0.30738
0.307396
0.307408
0.307423
0.307416
0.306925
0.292446
0.301638
0.307399
0.307447
0.307428
0.3074
0.307381
0.307353
0.307333
0.307318
0.307306
0.307299
0.307291
0.307
0.307004
0.307009
0.307016
0.307026
0.307036
0.307054
0.307066
0.307082
0.307073
0.306546
0.292118
0.30129
0.307052
0.307103
0.307084
0.307054
0.307035
0.307006
0.306986
0.30697
0.306958
0.30695
0.306943
0.306655
0.306659
0.306664
0.306672
0.306682
0.306693
0.306712
0.306724
0.30674
0.30673
0.306168
0.291791
0.300941
0.306704
0.306759
0.306739
0.306709
0.306689
0.306659
0.306638
0.306622
0.30661
0.306602
0.306594
0.30631
0.306314
0.30632
0.306328
0.306338
0.30635
0.306369
0.306382
0.306399
0.306386
0.30579
0.291463
0.300592
0.306357
0.306414
0.306394
0.306363
0.306343
0.306312
0.306291
0.306274
0.306262
0.306253
0.306246
0.305966
0.30597
0.305976
0.305984
0.305995
0.306008
0.306027
0.30604
0.306058
0.306043
0.305412
0.291135
0.300243
0.30601
0.30607
0.306049
0.306017
0.305996
0.305965
0.305943
0.305926
0.305913
0.305905
0.305897
0.305621
0.305625
0.305631
0.305639
0.305651
0.305665
0.305685
0.305699
0.305716
0.305699
0.305034
0.290807
0.299894
0.305663
0.305725
0.305705
0.305672
0.30565
0.305618
0.305596
0.305578
0.305565
0.305556
0.305549
0.305276
0.305281
0.305287
0.305296
0.305308
0.305322
0.305343
0.305357
0.305375
0.305356
0.304654
0.29048
0.299546
0.305316
0.305381
0.30536
0.305326
0.305304
0.305271
0.305248
0.30523
0.305217
0.305208
0.3052
0.3149
0.314916
0.315203
0.314583
0.314613
0.314877
0.314269
0.314314
0.314576
0.313947
0.314003
0.314276
0.313611
0.313673
0.313963
0.313249
0.193041
0.220137
0.313322
0.31363
0.315241
0.315559
0.315247
0.315567
0.314928
0.314905
0.315205
0.315032
0.315192
0.31492
0.314947
0.315194
0.314599
0.314585
0.314865
0.31474
0.314633
0.314835
0.314557
0.314831
0.314614
0.31463
0.314867
0.314273
0.31427
0.314546
0.314426
0.314046
0.314242
0.312597
0.313599
0.314314
0.314316
0.314551
0.313945
0.313947
0.31423
0.31411
0.313839
0.313916
0.313319
0.312788
0.314002
0.313997
0.314237
0.313231
0.313527
0.313672
0.313669
0.313916
0.312908
0.313072
0.312894
0.223596
0.193853
0.269204
0.312954
0.313275
0.31486
0.315016
0.315023
0.31501
0.314823
0.315192
0.315031
0.314845
0.315022
0.315034
0.315018
0.314866
0.314282
0.314594
0.3147
0.314364
0.313445
0.314783
0.314411
0.313659
0.314541
0.314725
0.314622
0.314296
0.314853
0.314636
0.314763
0.313928
0.314028
0.314387
0.312976
0.313172
0.313397
0.312975
0.312784
0.312528
0.314427
0.314067
0.313981
0.314284
0.314081
0.314464
0.312825
0.313068
0.313191
0.312783
0.313529
0.313363
0.314122
0.313904
0.313866
0.313969
0.313904
0.314161
0.313219
0.313223
0.313094
0.313211
0.313093
0.313218
0.313848
0.313713
0.313841
0.313139
0.312746
0.313218
0.313154
0.312592
0.312882
0.315066
0.315038
0.3152
0.315075
0.315175
0.31361
0.31361
0.313905
0.313781
0.313641
0.313738
0.309449
0.308232
0.313322
0.31333
0.313585
0.31518
0.315079
0.3152
0.315038
0.315075
0.313751
0.313829
0.31407
0.215512
0.231407
0.28041
0.288246
0.232233
0.251265
0.307996
0.305821
0.313799
0.313692
0.313533
0.289185
0.293926
0.313509
0.313332
0.3135
0.315385
0.315367
0.315216
0.315217
0.315368
0.315386
0.315064
0.315098
0.315068
0.315182
0.31508
0.31512
0.314671
0.314715
0.313123
0.313182
0.313179
0.313089
0.313261
0.306052
0.313497
0.310369
0.309585
0.309842
0.310549
0.313004
0.313977
0.314943
0.311975
0.314635
0.311402
0.314917
0.31472
0.315072
0.315097
0.315049
0.314259
0.31493
0.314942
0.313878
0.313819
0.314661
0.314635
0.314034
0.314085
0.314389
0.314661
0.314718
0.314586
0.314642
0.314378
0.314757
0.314815
0.314873
0.314737
0.314795
0.314735
0.313063
0.313072
0.313116
0.313084
0.311794
0.311891
0.313957
0.314366
0.314421
0.314293
0.314348
0.313942
0.314193
0.314512
0.314568
0.314439
0.314494
0.31418
0.217308
0.312944
0.236237
0.218859
0.256329
0.237245
0.312977
0.312601
0.220881
0.312645
0.313506
0.313492
0.313934
0.314218
0.314274
0.314142
0.314199
0.313939
0.268908
0.278707
0.313159
0.272575
0.257656
0.28444
0.274188
0.313175
0.253082
0.267395
0.313151
0.308437
0.309702
0.306309
0.308184
0.313169
0.305285
0.293068
0.294723
0.209914
0.294471
0.292392
0.250648
0.310255
0.310438
0.315153
0.313267
0.313254
0.313567
0.313437
0.313373
0.313498
0.264902
0.311928
0.312249
0.315153
0.313506
0.313625
0.313739
0.217903
0.220517
0.178748
0.291979
0.291364
0.223708
0.229061
0.309475
0.310197
0.174646
0.315273
0.31528
0.315195
0.315191
0.31528
0.315274
0.314729
0.314786
0.314725
0.314589
0.314657
0.314781
0.314113
0.314467
0.314409
0.314546
0.314487
0.31414
0.312834
0.313427
0.313243
0.312773
0.299317
0.297074
0.31298
0.310621
0.311118
0.312128
0.311987
0.219873
0.31512
0.315089
0.315188
0.314881
0.314774
0.31469
0.314955
0.314975
0.315038
0.314893
0.314954
0.314934
0.314411
0.314625
0.314565
0.314705
0.314645
0.314455
0.314153
0.306521
0.311282
0.302218
0.303297
0.313599
0.311754
0.312287
0.314517
0.313822
0.314256
0.314498
0.314675
0.314695
0.314551
0.314581
0.314332
0.31439
0.314332
0.313981
0.313025
0.298336
0.295219
0.313263
0.300618
0.301895
0.29471
0.295669
0.312991
0.312389
0.31221
0.314021
0.314365
0.314392
0.314248
0.314288
0.31397
0.314245
0.314512
0.314541
0.314401
0.314428
0.314124
0.313519
0.310449
0.310929
0.310098
0.309662
0.313432
0.31393
0.314065
0.314123
0.313985
0.314046
0.313916
0.313231
0.292075
0.28555
0.2995
0.297483
0.313231
0.245429
0.248184
0.313198
0.30169
0.300118
0.242127
0.244646
0.302026
0.299887
0.315114
0.315152
0.315129
0.297483
0.309001
0.29915
0.300147
0.299925
0.308846
0.315136
0.315119
0.315163
0.315102
0.315121
0.217287
0.222644
0.220453
0.218524
0.284193
0.231021
0.228831
0.23696
0.231651
0.285192
0.237123
0.240873
0.307181
0.306809
0.291556
0.245405
0.239911
0.229485
0.232129
0.315028
0.315052
0.31509
0.315002
0.31504
0.315014
0.314601
0.314767
0.312898
0.313367
0.313244
0.312796
0.306607
0.310854
0.310525
0.311192
0.310959
0.306499
0.309768
0.309505
0.31043
0.309947
0.310099
0.303294
0.304526
0.301037
0.302671
0.309983
0.295813
0.29687
0.313273
0.314863
0.314741
0.314988
0.3149
0.313611
0.31411
0.313883
0.314658
0.314206
0.314978
0.31505
0.315006
0.314951
0.314874
0.314882
0.314797
0.314893
0.314837
0.314944
0.31499
0.31486
0.314928
0.314977
0.314945
0.314896
0.304745
0.305754
0.314074
0.297743
0.29352
0.307402
0.298615
0.286965
0.282573
0.292171
0.288791
0.313653
0.303667
0.304471
0.311431
0.310551
0.313772
0.312146
0.309467
0.308435
0.310386
0.30973
0.314548
0.312411
0.312754
0.313877
0.314225
0.314632
0.314664
0.314448
0.314344
0.314591
0.314622
0.298893
0.29884
0.313038
0.273731
0.273384
0.255769
0.27167
0.271189
0.276404
0.272878
0.271459
0.298715
0.300188
0.313223
0.27515
0.270177
0.281466
0.276648
0.260441
0.255076
0.268226
0.262872
0.313013
0.296394
0.298136
0.31209
0.312128
0.31433
0.314356
0.314005
0.313952
0.314296
0.314321
0.314474
0.314502
0.314232
0.314138
0.314437
0.314465
0.220482
0.22659
0.297871
0.300204
0.29484
0.297042
0.220415
0.248824
0.303274
0.299086
0.300831
0.302692
0.244764
0.284755
0.285944
0.27953
0.284301
0.22702
0.29188
0.294244
0.286665
0.290586
0.227211
0.310126
0.310348
0.313518
0.308646
0.309296
0.309374
0.308604
0.309349
0.313439
0.309466
0.309872
0.272794
0.216487
0.218358
0.226941
0.21724
0.274213
0.220744
0.258321
0.219028
0.260727
0.307289
0.31146
0.311265
0.311689
0.311523
0.307441
0.304462
0.304815
0.249532
0.2526
0.234382
0.240984
0.303403
0.302508
0.315256
0.315278
0.315537
0.313457
0.313343
0.313146
0.315222
0.315227
0.315174
0.315165
0.315225
0.315223
0.315383
0.315375
0.315225
0.314867
0.314806
0.314757
0.314568
0.314317
0.314273
0.312669
0.313541
0.314234
0.314176
0.313882
0.311578
0.3114
0.312781
0.311021
0.311216
0.313515
0.31493
0.31495
0.314888
0.314419
0.314577
0.314857
0.314999
0.31496
0.314988
0.314753
0.313752
0.314351
0.313713
0.314226
0.314178
0.31451
0.314442
0.314453
0.314308
0.314717
0.314737
0.31467
0.313966
0.314312
0.314254
0.299842
0.298572
0.313118
0.31275
0.311867
0.311747
0.312458
0.314053
0.314268
0.314277
0.314271
0.314422
0.314432
0.314286
0.314295
0.314096
0.312522
0.301888
0.300528
0.313928
0.314213
0.314231
0.313794
0.313904
0.313964
0.214083
0.213892
0.303328
0.302154
0.313188
0.214621
0.214321
0.311148
0.311197
0.312795
0.315086
0.315085
0.214251
0.214868
0.216351
0.230177
0.233138
0.212018
0.213365
0.228634
0.226046
0.248713
0.30393
0.303512
0.30615
0.249698
0.246311
0.292198
0.315292
0.315285
0.315198
0.315048
0.315052
0.31506
0.315074
0.314976
0.314991
0.315103
0.315143
0.315121
0.314539
0.314514
0.314638
0.314739
0.314682
0.314643
0.31303
0.313242
0.311752
0.311844
0.313228
0.312974
0.311226
0.311507
0.307059
0.307114
0.308383
0.308212
0.306065
0.307261
0.307424
0.313511
0.31131
0.311568
0.313719
0.312598
0.314083
0.313897
0.314853
0.314771
0.314461
0.309488
0.308809
0.313441
0.31217
0.310374
0.315085
0.315062
0.315013
0.31502
0.314942
0.314989
0.31448
0.31493
0.31496
0.312865
0.313417
0.314733
0.30791
0.307085
0.313983
0.314136
0.3148
0.31482
0.3148
0.314682
0.314757
0.314778
0.313105
0.298488
0.298742
0.311763
0.311971
0.314362
0.314372
0.314206
0.314166
0.314342
0.314352
0.219123
0.234924
0.262037
0.263558
0.244984
0.246211
0.217014
0.302767
0.30212
0.312561
0.227507
0.225082
0.240548
0.240567
0.223056
0.243849
0.244367
0.223293
0.223828
0.314179
0.314196
0.31392
0.313926
0.314145
0.314163
0.265348
0.30161
0.302402
0.299932
0.300768
0.262777
0.309015
0.311476
0.311731
0.311576
0.31153
0.309212
0.306716
0.308861
0.308614
0.304704
0.304094
0.30545
0.217691
0.220534
0.22107
0.216264
0.295927
0.25676
0.251496
0.261134
0.258013
0.291661
0.292643
0.293103
0.304852
0.305888
0.310602
0.315142
0.315155
0.315129
0.217603
0.218285
0.247729
0.246164
0.178297
0.226834
0.220721
0.220891
0.218655
0.219833
0.228351
0.174735
0.301687
0.303259
0.315237
0.31523
0.315173
0.314403
0.314361
0.314578
0.31459
0.314684
0.31476
0.314635
0.314662
0.312762
0.313483
0.310146
0.310349
0.310294
0.310114
0.312773
0.311252
0.311128
0.298836
0.29464
0.294493
0.295547
0.295301
0.298211
0.314748
0.314818
0.31483
0.31479
0.314806
0.31472
0.313767
0.314437
0.314125
0.314007
0.31432
0.314463
0.314473
0.311969
0.311961
0.312644
0.312313
0.31425
0.314259
0.314037
0.314402
0.314412
0.314258
0.31411
0.314304
0.314314
0.310047
0.310855
0.310593
0.311008
0.310962
0.309921
0.213834
0.214166
0.21559
0.21499
0.243033
0.226578
0.225972
0.294796
0.294911
0.301377
0.296394
0.297353
0.294696
0.295389
0.300615
0.315108
0.315098
0.315101
0.315108
0.315142
0.315146
0.315161
0.31512
0.31513
0.315131
0.298817
0.304328
0.304028
0.305187
0.30474
0.299163
0.301361
0.302907
0.302281
0.303793
0.303482
0.300755
0.315129
0.315137
0.315122
0.315057
0.31502
0.315104
0.315089
0.214256
0.227711
0.217455
0.217389
0.219873
0.219206
0.245898
0.247323
0.22984
0.212188
0.21124
0.234584
0.217939
0.217385
0.217536
0.245087
0.221068
0.215904
0.304157
0.304722
0.307507
0.302464
0.302659
0.301991
0.302117
0.306451
0.30333
0.303565
0.229929
0.216184
0.217394
0.215358
0.215295
0.23069
0.315037
0.315048
0.315041
0.314992
0.315003
0.315024
0.314404
0.314616
0.314481
0.314443
0.314567
0.314602
0.314491
0.314531
0.312963
0.313303
0.310778
0.3109
0.310489
0.310635
0.313243
0.311872
0.311877
0.311041
0.311058
0.312866
0.31094
0.307559
0.307197
0.30627
0.308075
0.307893
0.309649
0.307709
0.307653
0.308308
0.307964
0.309576
0.310313
0.308562
0.308737
0.307864
0.30823
0.310145
0.307486
0.301577
0.305889
0.305581
0.295486
0.295976
0.313133
0.314255
0.31417
0.312938
0.313902
0.314567
0.314383
0.310596
0.310008
0.312716
0.312855
0.313964
0.311857
0.311234
0.314723
0.314828
0.314987
0.314907
0.314582
0.314198
0.314571
0.314863
0.314889
0.314904
0.314845
0.314865
0.314814
0.314762
0.314813
0.314958
0.314937
0.31492
0.314978
0.314951
0.314973
0.314879
0.3149
0.314863
0.314894
0.296656
0.295013
0.305003
0.293911
0.295366
0.291012
0.299398
0.28533
0.283865
0.29097
0.289925
0.310993
0.307041
0.307978
0.305161
0.306073
0.310736
0.313573
0.31206
0.312494
0.308522
0.311039
0.313116
0.30632
0.304884
0.309197
0.298786
0.299836
0.296932
0.297856
0.308892
0.310216
0.303609
0.304342
0.300991
0.302251
0.309984
0.313932
0.314183
0.274196
0.256158
0.258907
0.25042
0.25317
0.273867
0.260005
0.260393
0.260474
0.266293
0.271844
0.235321
0.237984
0.239911
0.235564
0.273577
0.272392
0.245546
0.247878
0.24096
0.24342
0.271931
0.273877
0.272384
0.280301
0.278361
0.258258
0.25629
0.266519
0.265053
0.311855
0.312048
0.314219
0.314382
0.314392
0.314323
0.314332
0.314152
0.220492
0.256357
0.259766
0.232261
0.216912
0.248598
0.25227
0.232801
0.230075
0.285102
0.255491
0.255779
0.282029
0.252633
0.246647
0.255845
0.255103
0.28352
0.238826
0.235711
0.240109
0.242742
0.225292
0.227551
0.234165
0.310237
0.311679
0.311599
0.311772
0.311727
0.310291
0.308859
0.30915
0.309097
0.308499
0.308452
0.308789
0.309425
0.311146
0.311055
0.311463
0.311296
0.309589
0.216877
0.231386
0.23258
0.22981
0.230574
0.217599
0.223333
0.240892
0.243825
0.234593
0.237548
0.219734
0.220252
0.215332
0.216174
0.216499
0.215743
0.219804
0.226734
0.228727
0.218903
0.22285
0.219733
0.309226
0.309072
0.307087
0.304386
0.305208
0.215505
0.217975
0.236997
0.220307
0.217116
0.225102
0.223474
0.23933
0.216558
0.216235
0.293524
0.293922
0.315973
0.315972
0.316147
0.31597
0.315969
0.316146
0.315969
0.315969
0.316146
0.315972
0.315975
0.316148
0.315625
0.315622
0.315798
0.315618
0.315615
0.315884
0.315611
0.315606
0.31588
0.315607
0.315613
0.315881
0.315618
0.315624
0.315887
0.31563
0.315632
0.315803
0.315282
0.315274
0.315534
0.315268
0.31525
0.315524
0.315425
0.315421
0.315564
0.315412
0.315417
0.315559
0.315437
0.315443
0.315529
0.315286
0.315295
0.315462
0.314944
0.314934
0.315188
0.315096
0.315094
0.315179
0.315152
0.315148
0.315193
0.315083
0.315101
0.315228
0.314953
0.314964
0.315128
0.314611
0.314603
0.314851
0.314762
0.314762
0.314844
0.314819
0.314819
0.314859
0.314765
0.314779
0.314897
0.314632
0.314639
0.314801
0.314279
0.314275
0.314521
0.314436
0.314439
0.31452
0.314504
0.314505
0.314544
0.314464
0.31447
0.314585
0.314315
0.314315
0.314477
0.313945
0.313945
0.314193
0.31411
0.314115
0.314197
0.31419
0.314191
0.314231
0.31416
0.314158
0.314275
0.313994
0.313989
0.314152
0.313609
0.31361
0.313862
0.313864
0.313866
0.313907
0.31384
0.313832
0.313955
0.313664
0.313658
0.313824
0.313268
0.313267
0.313525
0.313499
0.313502
0.313586
0.313325
0.313322
0.31349
0.312918
0.31291
0.313085
0.312914
0.312901
0.313164
0.313071
0.312964
0.313101
0.232895
0.308087
0.308589
0.312967
0.312984
0.313245
0.312975
0.312981
0.313152
0.312573
0.312566
0.312738
0.312569
0.312552
0.312814
0.312543
0.253419
0.252374
0.289323
0.312595
0.312864
0.312611
0.312634
0.312893
0.312626
0.312634
0.312807
0.312224
0.312213
0.312388
0.311974
0.281002
0.253688
0.300351
0.312118
0.312504
0.312267
0.312286
0.31246
0.314899
0.31494
0.314941
0.314954
0.314969
0.314905
0.3152
0.315157
0.31516
0.314583
0.314622
0.314622
0.31465
0.314651
0.314595
0.314885
0.314824
0.314839
0.31427
0.31431
0.314309
0.314352
0.314355
0.314299
0.314576
0.31452
0.314539
0.313949
0.31399
0.313988
0.314043
0.31405
0.313993
0.31428
0.314224
0.314238
0.313715
0.313709
0.313667
0.313953
0.313913
0.313923
0.313147
0.31333
0.313392
0.178231
0.237732
0.237788
0.285121
0.285339
0.175142
0.313624
0.313582
0.313587
0.315224
0.315373
0.315379
0.31518
0.315179
0.315166
0.31556
0.315416
0.315411
0.315178
0.315181
0.315292
0.315289
0.315243
0.315566
0.315424
0.315428
0.314926
0.31501
0.315012
0.315031
0.315007
0.314925
0.315175
0.31509
0.315073
0.315054
0.315049
0.315012
0.315187
0.315162
0.315168
0.314938
0.31506
0.315041
0.315029
0.315029
0.314949
0.315192
0.31511
0.315111
0.3146
0.314681
0.31468
0.314704
0.314682
0.314602
0.314843
0.314762
0.314744
0.314739
0.314779
0.314779
0.314667
0.314718
0.314694
0.314852
0.31483
0.31481
0.314806
0.314773
0.314814
0.314624
0.31474
0.314727
0.314708
0.314713
0.314635
0.314869
0.314791
0.314787
0.314278
0.314358
0.314355
0.314388
0.314362
0.314282
0.314522
0.314442
0.314428
0.314427
0.314466
0.314465
0.314065
0.314336
0.314317
0.314466
0.314442
0.314205
0.314315
0.314431
0.314427
0.314394
0.314403
0.314325
0.314558
0.31448
0.314473
0.313951
0.314033
0.314028
0.314069
0.314039
0.313956
0.314201
0.31412
0.31411
0.314111
0.314151
0.31415
0.313871
0.314156
0.314097
0.314153
0.314135
0.313904
0.313278
0.31198
0.312111
0.313997
0.314117
0.314121
0.314078
0.314088
0.314008
0.314246
0.314168
0.314158
0.313243
0.311862
0.311987
0.312966
0.312979
0.313524
0.31367
0.313753
0.313798
0.313752
0.313762
0.313678
0.313926
0.313844
0.313834
0.312932
0.312304
0.312288
0.312375
0.312367
0.31305
0.312827
0.312918
0.312982
0.220836
0.311932
0.311735
0.291456
0.291405
0.19675
0.311766
0.311886
0.266131
0.313043
0.312728
0.312733
0.313073
0.312777
0.313139
0.314884
0.314895
0.314873
0.315035
0.314971
0.314951
0.314982
0.314981
0.315022
0.314988
0.314957
0.31501
0.315168
0.315163
0.315188
0.315025
0.315048
0.315053
0.314858
0.314838
0.314825
0.315019
0.315007
0.315011
0.315031
0.31499
0.314993
0.314997
0.315003
0.315024
0.31488
0.314899
0.314891
0.314323
0.314515
0.31449
0.31467
0.314644
0.314548
0.314661
0.314661
0.3147
0.314306
0.31379
0.313938
0.311988
0.312073
0.313494
0.314038
0.314111
0.31445
0.314727
0.31467
0.314688
0.314603
0.314652
0.314666
0.314812
0.31484
0.31486
0.314679
0.314691
0.314647
0.314801
0.314805
0.314746
0.313939
0.314188
0.314171
0.314298
0.314279
0.314012
0.314348
0.314349
0.314388
0.312994
0.311121
0.31107
0.311621
0.311563
0.313151
0.313351
0.311824
0.311906
0.311043
0.311037
0.31297
0.314428
0.314373
0.314389
0.314175
0.314181
0.313988
0.314502
0.314502
0.314447
0.312867
0.306782
0.305916
0.310361
0.310178
0.31304
0.31321
0.311743
0.311683
0.305648
0.304701
0.312739
0.313526
0.312919
0.312947
0.312259
0.312378
0.313399
0.314128
0.31407
0.314083
0.313894
0.314075
0.314093
0.313963
0.313982
0.313882
0.313955
0.314159
0.314167
0.31411
0.314128
0.313915
0.3142
0.314205
0.314147
0.313225
0.311696
0.311604
0.312098
0.312047
0.313227
0.313118
0.310696
0.310531
0.311503
0.311393
0.313202
0.313113
0.312385
0.312381
0.312023
0.312112
0.313203
0.31383
0.313925
0.313944
0.313821
0.313882
0.313774
0.313882
0.313873
0.313833
0.313089
0.304411
0.303654
0.301995
0.303798
0.313044
0.313213
0.312185
0.312144
0.312754
0.311183
0.311118
0.315064
0.315106
0.315108
0.315105
0.315122
0.315057
0.315189
0.315144
0.315128
0.315169
0.315153
0.315159
0.313738
0.313706
0.313621
0.313873
0.31379
0.31378
0.313782
0.313824
0.313823
0.313685
0.313809
0.313767
0.31389
0.313849
0.313699
0.309302
0.307494
0.307749
0.305801
0.306206
0.308463
0.31333
0.313416
0.313455
0.315165
0.31516
0.315176
0.315063
0.315084
0.315094
0.315128
0.315148
0.315216
0.31506
0.315126
0.315105
0.315117
0.315115
0.315073
0.313786
0.313996
0.31393
0.314077
0.314017
0.313797
0.314029
0.31403
0.314071
0.281847
0.265222
0.263736
0.273006
0.271484
0.287214
0.307764
0.305078
0.305409
0.313792
0.313751
0.313758
0.313626
0.313738
0.3138
0.313652
0.313716
0.313603
0.290077
0.275961
0.274528
0.282059
0.28112
0.293366
0.313434
0.313567
0.31361
0.313481
0.313524
0.313409
0.313544
0.313538
0.313495
0.315388
0.315308
0.315303
0.315316
0.315313
0.315391
0.315203
0.315286
0.315291
0.315242
0.315239
0.315213
0.315391
0.315312
0.315318
0.315304
0.315308
0.315387
0.315101
0.315062
0.315076
0.315136
0.315156
0.315182
0.315087
0.3151
0.315092
0.315144
0.315139
0.315115
0.311627
0.311807
0.313252
0.313503
0.313036
0.313044
0.310291
0.309067
0.309202
0.307984
0.308188
0.309707
0.3102
0.311647
0.311615
0.311694
0.311673
0.310296
0.313027
0.312357
0.312346
0.314861
0.314936
0.314966
0.314888
0.314635
0.314823
0.314795
0.314942
0.314901
0.315083
0.315068
0.315053
0.315075
0.31507
0.315092
0.314919
0.314906
0.314918
0.314954
0.314944
0.314932
0.312737
0.312848
0.313937
0.313763
0.312539
0.312635
0.314484
0.314534
0.314687
0.314607
0.314384
0.314434
0.314528
0.314541
0.314402
0.31468
0.314671
0.314652
0.31471
0.31469
0.314699
0.314605
0.314595
0.314576
0.314633
0.314614
0.314623
0.314367
0.314506
0.314517
0.31478
0.314793
0.314773
0.314834
0.314827
0.314808
0.314867
0.314847
0.314854
0.314756
0.314749
0.314729
0.314788
0.314768
0.314776
0.314714
0.314751
0.314766
0.311347
0.311328
0.313056
0.313082
0.311388
0.311366
0.311375
0.311445
0.313149
0.313058
0.311246
0.311308
0.314215
0.314223
0.313973
0.314384
0.314373
0.314355
0.31441
0.314392
0.314403
0.314311
0.314301
0.314283
0.314337
0.314319
0.314329
0.313933
0.3142
0.314207
0.314531
0.31452
0.314502
0.314557
0.314539
0.314549
0.314457
0.314446
0.314428
0.314483
0.314465
0.314476
0.309552
0.307082
0.312908
0.25467
0.277002
0.278728
0.264841
0.266263
0.23866
0.31301
0.309973
0.309762
0.312692
0.304284
0.303054
0.312744
0.312784
0.313516
0.313471
0.312615
0.312685
0.31412
0.314124
0.313927
0.314237
0.314227
0.314209
0.314264
0.314246
0.314255
0.314161
0.314153
0.314134
0.31419
0.314172
0.31418
0.31394
0.314108
0.314114
0.270228
0.25059
0.249303
0.261924
0.259763
0.277269
0.311007
0.310856
0.313139
0.270566
0.289143
0.290362
0.280129
0.281559
0.259022
0.280116
0.304355
0.304919
0.303099
0.303742
0.278539
0.31319
0.311272
0.311144
0.254639
0.231272
0.230095
0.247717
0.245452
0.265528
0.312385
0.312385
0.313133
0.308635
0.31008
0.309953
0.310805
0.310719
0.309556
0.309806
0.309646
0.307896
0.313185
0.312373
0.31238
0.293703
0.265089
0.262092
0.268666
0.266233
0.294299
0.29499
0.283943
0.283011
0.310207
0.306163
0.306738
0.309328
0.309447
0.3105
0.313348
0.313362
0.313272
0.313535
0.31345
0.313436
0.313415
0.313469
0.313426
0.313556
0.313513
0.313456
0.305208
0.305094
0.263434
0.31198
0.310754
0.31072
0.310885
0.310808
0.312064
0.313559
0.313642
0.313599
0.313726
0.313684
0.313576
0.313696
0.313697
0.31374
0.21253
0.207414
0.178521
0.291448
0.269218
0.263759
0.269602
0.269324
0.291318
0.309962
0.303183
0.302065
0.306546
0.307521
0.31018
0.174514
0.251028
0.266942
0.315276
0.315244
0.315241
0.315251
0.31525
0.315279
0.315182
0.315234
0.315223
0.315207
0.315203
0.315186
0.315279
0.315247
0.315252
0.315241
0.315243
0.315275
0.314764
0.314741
0.314699
0.314766
0.314757
0.314778
0.314716
0.314736
0.314745
0.314796
0.314747
0.314728
0.314376
0.314356
0.314088
0.314448
0.314427
0.314446
0.314388
0.314407
0.314428
0.314526
0.314506
0.314526
0.314466
0.314486
0.314506
0.314171
0.314419
0.314397
0.311882
0.311905
0.313251
0.312333
0.312318
0.312956
0.311037
0.311721
0.31171
0.311733
0.311729
0.31108
0.312085
0.30531
0.302066
0.305157
0.305261
0.312038
0.218846
0.28011
0.279509
0.315115
0.315139
0.315144
0.31513
0.315134
0.315109
0.315183
0.315158
0.315144
0.314862
0.31485
0.314869
0.314961
0.314982
0.314976
0.314996
0.314989
0.314968
0.315032
0.31501
0.315017
0.314914
0.314907
0.314887
0.314947
0.314927
0.314934
0.314912
0.31492
0.31494
0.314567
0.314541
0.314367
0.314605
0.314589
0.31461
0.314547
0.314568
0.314585
0.314685
0.314674
0.314695
0.314631
0.314652
0.314665
0.314501
0.314618
0.314592
0.313339
0.313576
0.314233
0.308004
0.311942
0.31126
0.313044
0.312635
0.310172
0.302558
0.30901
0.30886
0.309329
0.309166
0.30292
0.313546
0.312163