/*--------------------------------*- C++ -*----------------------------------*\
| =========                 |                                                 |
| \\      /  F ield         | OpenFOAM: The Open Source CFD Toolbox           |
|  \\    /   O peration     | Version:  5.x                                   |
|   \\  /    A nd           | Web:      www.OpenFOAM.org                      |
|    \\/     M anipulation  |                                                 |
\*---------------------------------------------------------------------------*/
FoamFile
{
    version     2.0;
    format      ascii;
    class       volScalarField;
    location    "600";
    object      Y;
}
// * * * * * * * * * * * * * * * * * * * * * * * * * * * * * * * * * * * * * //

dimensions      [0 0 0 0 0 0 0];

internalField   nonuniform List<scalar> 
6584
(
0.00632781
0.00632781
0.00632781
0.00632781
0.00632781
0.00632781
0.00632781
0.00632782
0.00632782
0.00632782
0.00632782
0.00632782
0.00632782
0.00632782
0.00632782
0.00632782
0.00632782
0.00632781
0.00632781
0.00632781
0.00632781
0.00632781
0.00632781
0.00632781
0.00632561
0.00632561
0.00632561
0.00632562
0.00632562
0.00632562
0.00632562
0.00632563
0.00632563
0.00632563
0.00632563
0.00632563
0.00632564
0.00632564
0.00632563
0.00632563
0.00632563
0.00632563
0.00632562
0.00632562
0.00632562
0.00632561
0.00632561
0.00632561
0.00632341
0.00632342
0.00632342
0.00632342
0.00632342
0.00632342
0.00632343
0.00632344
0.00632345
0.00632454
0.00632454
0.00632454
0.00632454
0.00632454
0.00632454
0.00632345
0.00632344
0.00632344
0.00632343
0.00632343
0.00632342
0.00632342
0.00632342
0.00632341
0.00632122
0.00632122
0.00632122
0.00632122
0.00632123
0.00632123
0.00632124
0.00632125
0.00632126
0.00632235
0.00632235
0.00632234
0.00632234
0.00632235
0.00632235
0.00632236
0.00632125
0.00632124
0.00632124
0.00632123
0.00632123
0.00632123
0.00632122
0.00632122
0.00631902
0.00631902
0.00631903
0.00631903
0.00631903
0.00631904
0.00631904
0.00631904
0.00632015
0.00632015
0.00632014
0.00632013
0.00632013
0.00632014
0.00632016
0.00632016
0.00632016
0.00631906
0.00631905
0.00631904
0.00631904
0.00631903
0.00631903
0.00631903
0.00631683
0.00631683
0.00631683
0.00631684
0.00631684
0.00631685
0.00631685
0.00631794
0.00631793
0.00631793
0.00631847
0.00631845
0.00631845
0.00631847
0.00631796
0.00631798
0.00631798
0.00631689
0.00631687
0.00631686
0.00631685
0.00631684
0.00631684
0.00631683
0.00631464
0.00631464
0.00631464
0.00631465
0.00631465
0.00631466
0.00631467
0.00631575
0.00631574
0.00631572
0.00631621
0.00631644
0.00631642
0.00631622
0.00631632
0.00631581
0.00631581
0.00631473
0.0063147
0.00631468
0.00631466
0.00631465
0.00631465
0.00631464
0.00631244
0.00631245
0.00631245
0.00631246
0.00631247
0.00631247
0.0063125
0.00631357
0.00631356
0.00631356
0.00631399
0.00631409
0.00631423
0.00631416
0.00631367
0.00631366
0.00631258
0.00631253
0.0063125
0.00631248
0.00631247
0.00631246
0.00631245
0.00631025
0.00631026
0.00631026
0.00631027
0.00631028
0.0063103
0.00631033
0.0063114
0.0063114
0.00631142
0.00631185
0.00631195
0.00631215
0.00631208
0.00631158
0.00631153
0.00631043
0.00631036
0.00631033
0.0063103
0.00631028
0.00631027
0.00631026
0.00630806
0.00630807
0.00630808
0.00630809
0.0063081
0.00630812
0.00630816
0.00630924
0.00630925
0.00630931
0.00630977
0.00630993
0.00631024
0.00631006
0.0063095
0.00630942
0.00630829
0.0063082
0.00630815
0.00630812
0.0063081
0.00630808
0.00630807
0.00630587
0.00630588
0.00630589
0.0063059
0.00630592
0.00630594
0.00630599
0.00630708
0.00630711
0.00630719
0.00630769
0.00630794
0.00630835
0.00630806
0.00630742
0.00630731
0.00630614
0.00630604
0.00630598
0.00630594
0.00630591
0.00630589
0.00630588
0.00630368
0.00630369
0.0063037
0.00630372
0.00630374
0.00630377
0.00630382
0.00630491
0.00630496
0.00630506
0.0063056
0.00630589
0.00630638
0.00630602
0.00630533
0.00630518
0.00630399
0.00630388
0.00630381
0.00630376
0.00630372
0.0063037
0.00630368
0.00630149
0.0063015
0.00630151
0.00630153
0.00630156
0.00630159
0.00630165
0.00630274
0.0063028
0.00630291
0.00630346
0.00630375
0.00630429
0.00630391
0.00630321
0.00630305
0.00630183
0.00630171
0.00630163
0.00630157
0.00630153
0.00630151
0.00630149
0.0062993
0.00629931
0.00629933
0.00629935
0.00629937
0.00629941
0.00629947
0.0062995
0.00630062
0.00630071
0.00630124
0.00630146
0.0050548
0.00630177
0.00630175
0.00630106
0.00630089
0.00629966
0.00629953
0.00629945
0.00629938
0.00629934
0.00629931
0.00629929
0.00629711
0.00629712
0.00629714
0.00629716
0.00629719
0.00629723
0.00629728
0.0062973
0.00629841
0.0062985
0.00629903
0.00629895
0.00600101
0.00629956
0.00629896
0.00629888
0.00629756
0.00629747
0.00629733
0.00629725
0.0062972
0.00629714
0.00629711
0.00629708
0.00629492
0.00629493
0.00629495
0.00629497
0.006295
0.00629504
0.00629508
0.0062951
0.00629621
0.00629631
0.0062963
0.0062967
0.006025
0.0062968
0.00629677
0.00629669
0.00629538
0.00629528
0.00629514
0.00629505
0.00629499
0.00629493
0.00629491
0.00629488
0.00629273
0.00629274
0.00629276
0.00629278
0.00629281
0.00629285
0.00629289
0.00629292
0.00629297
0.00629413
0.00629411
0.00628762
0.00616579
0.00629459
0.00629457
0.00629449
0.00629318
0.00629308
0.00629294
0.00629285
0.00629278
0.00629273
0.0062927
0.00629266
0.00629054
0.00629055
0.00629057
0.0062906
0.00629062
0.00629065
0.0062907
0.00629074
0.00629079
0.00629084
0.00629193
0.00628195
0.00616699
0.00629239
0.00629128
0.00629112
0.00629098
0.00629088
0.00629073
0.00629064
0.00629057
0.00629052
0.00629048
0.00629045
0.00628835
0.00628836
0.00628838
0.00628841
0.00628844
0.00628846
0.00628851
0.00628856
0.00628861
0.00628865
0.00628761
0.00609867
0.00622864
0.0062891
0.00628908
0.00628892
0.00628878
0.00628867
0.00628853
0.00628843
0.00628836
0.0062883
0.00628827
0.00628823
0.00628616
0.00628617
0.00628619
0.00628622
0.00628625
0.00628627
0.00628633
0.00628638
0.00628643
0.00628647
0.00628456
0.00609741
0.00622691
0.0062869
0.00628688
0.00628672
0.00628657
0.00628647
0.00628632
0.00628622
0.00628615
0.00628609
0.00628606
0.00628601
0.00628397
0.00628398
0.006284
0.00628403
0.00628406
0.00628409
0.00628415
0.0062842
0.00628426
0.00628428
0.00628155
0.00609606
0.00622511
0.0062847
0.00628468
0.00628452
0.00628437
0.00628426
0.00628411
0.00628401
0.00628393
0.00628387
0.00628384
0.0062838
0.00628177
0.00628179
0.00628181
0.00628184
0.00628188
0.00628191
0.00628197
0.00628202
0.00628209
0.00628209
0.00627859
0.00609464
0.00622327
0.00628251
0.00628249
0.00628233
0.00628217
0.00628205
0.0062819
0.0062818
0.00628172
0.00628166
0.00628162
0.00628158
0.00627958
0.0062796
0.00627962
0.00627965
0.00627969
0.00627972
0.00627979
0.00627985
0.00627991
0.0062799
0.00627567
0.00609317
0.00622138
0.00628031
0.0062803
0.00628013
0.00627997
0.00627985
0.00627969
0.00627958
0.0062795
0.00627944
0.0062794
0.00627936
0.00627739
0.00627741
0.00627744
0.00627747
0.00627751
0.00627754
0.00627761
0.00627767
0.00627774
0.00627772
0.0062728
0.00609165
0.00621946
0.00627812
0.00627811
0.00627794
0.00627776
0.00627764
0.00627748
0.00627737
0.00627729
0.00627722
0.00627718
0.00627714
0.00627521
0.00627522
0.00627525
0.00627528
0.00627532
0.00627536
0.00627543
0.0062755
0.00627557
0.00627553
0.00626997
0.00609008
0.00621752
0.00627592
0.00627591
0.00627574
0.00627556
0.00627543
0.00627526
0.00627515
0.00627507
0.006275
0.00627496
0.00627492
0.00627302
0.00627304
0.00627306
0.0062731
0.00627314
0.00627318
0.00627326
0.00627333
0.0062734
0.00627334
0.00626709
0.00608853
0.00621557
0.00627373
0.00627372
0.00627355
0.00627336
0.00627322
0.00627305
0.00627294
0.00627285
0.00627278
0.00627274
0.00627269
0.00627083
0.00627085
0.00627087
0.00627091
0.00627096
0.006271
0.00627108
0.00627115
0.00627123
0.00627114
0.00626419
0.00608702
0.00621365
0.00627154
0.00627154
0.00627136
0.00627116
0.00627102
0.00627085
0.00627073
0.00627064
0.00627057
0.00627053
0.00627048
0.00626864
0.00626866
0.00626869
0.00626872
0.00626877
0.00626882
0.00626891
0.00626898
0.00626907
0.00626895
0.00626131
0.00608547
0.00621171
0.00626936
0.00626935
0.00626917
0.00626896
0.00626882
0.00626864
0.00626852
0.00626842
0.00626835
0.00626831
0.00626826
0.00626645
0.00626647
0.0062665
0.00626654
0.00626659
0.00626664
0.00626673
0.00626681
0.0062669
0.00626675
0.00625846
0.00608391
0.00620976
0.00626717
0.00626717
0.00626698
0.00626676
0.00626661
0.00626643
0.00626631
0.00626621
0.00626614
0.00626609
0.00626604
0.00626427
0.00626429
0.00626432
0.00626436
0.00626441
0.00626446
0.00626456
0.00626464
0.00626474
0.00626456
0.00625563
0.00608234
0.0062078
0.00626498
0.00626498
0.00626478
0.00626457
0.00626441
0.00626422
0.00626409
0.00626399
0.00626392
0.00626387
0.00626382
0.00626208
0.0062621
0.00626213
0.00626217
0.00626223
0.00626228
0.00626239
0.00626247
0.00626257
0.00626236
0.00625281
0.00608074
0.00620583
0.0062628
0.0062628
0.00626259
0.00626237
0.00626221
0.00626201
0.00626188
0.00626178
0.0062617
0.00626165
0.00626161
0.00625989
0.00625992
0.00625995
0.00625999
0.00626005
0.00626011
0.00626021
0.00626031
0.00626041
0.00626016
0.00625
0.00607915
0.00620386
0.00626061
0.00626062
0.0062604
0.00626017
0.00626
0.0062598
0.00625967
0.00625956
0.00625949
0.00625943
0.00625939
0.00625771
0.00625773
0.00625776
0.00625781
0.00625787
0.00625793
0.00625804
0.00625814
0.00625824
0.00625796
0.00624719
0.00607755
0.00620189
0.00625842
0.00625843
0.00625821
0.00625797
0.0062578
0.00625759
0.00625746
0.00625735
0.00625727
0.00625721
0.00625717
0.00625552
0.00625555
0.00625558
0.00625562
0.00625569
0.00625576
0.00625587
0.00625597
0.00625608
0.00625575
0.00624438
0.00607595
0.00619991
0.00625624
0.00625625
0.00625602
0.00625577
0.00625559
0.00625538
0.00625524
0.00625513
0.00625505
0.00625499
0.00625495
0.00625334
0.00625336
0.0062534
0.00625344
0.00625351
0.00625359
0.0062537
0.00625381
0.00625391
0.00625354
0.00624154
0.00607436
0.00619794
0.00625405
0.00625406
0.00625383
0.00625358
0.00625339
0.00625317
0.00625303
0.00625291
0.00625283
0.00625277
0.00625273
0.00625115
0.00625118
0.00625122
0.00625126
0.00625133
0.00625141
0.00625154
0.00625164
0.00625175
0.00625133
0.00623868
0.00607278
0.00619597
0.00625187
0.00625188
0.00625164
0.00625138
0.00625118
0.00625096
0.00625081
0.0062507
0.00625061
0.00625055
0.00625051
0.0063122
0.00631237
0.00631417
0.00631018
0.00631047
0.00631213
0.00630819
0.0063086
0.00631024
0.00630615
0.00630665
0.00630836
0.00630402
0.00630458
0.0063064
0.00630174
0.00476015
0.00499133
0.00630238
0.00630431
0.00631438
0.00631641
0.00631445
0.00631647
0.00631238
0.00631224
0.00631415
0.00631309
0.0063141
0.00631239
0.00631256
0.00631411
0.00631029
0.0063102
0.00631198
0.00631118
0.00630884
0.00631148
0.00630772
0.00631151
0.00631047
0.00631056
0.00631205
0.00630821
0.0063082
0.00630995
0.00630919
0.00629939
0.00630172
0.00627244
0.00628999
0.00630859
0.00630857
0.00631006
0.00630613
0.00630615
0.00630794
0.00630718
0.00630067
0.00629981
0.00629788
0.00628257
0.00630664
0.00630656
0.00630808
0.00630379
0.00630421
0.00630456
0.00630448
0.00630605
0.00630296
0.0063036
0.0062995
0.00518949
0.00477731
0.00574957
0.00630011
0.00630208
0.00631174
0.00631294
0.00631299
0.00631289
0.00631083
0.00631407
0.00631303
0.00631166
0.00631302
0.00631311
0.006313
0.00631196
0.00630239
0.00630817
0.00631093
0.00630184
0.00627972
0.00631017
0.00630292
0.00629105
0.00630753
0.00631118
0.00630929
0.00630466
0.00631185
0.00630944
0.00631141
0.00629968
0.00629935
0.00630894
0.00627229
0.00628132
0.00627868
0.00627193
0.00628195
0.00627133
0.00630931
0.00630272
0.0063036
0.00630456
0.00630284
0.00630954
0.00627637
0.00628519
0.00628203
0.00627493
0.00630409
0.00629873
0.00630739
0.0063053
0.00630579
0.00630364
0.0063052
0.00630764
0.0062926
0.00629546
0.00628625
0.00629202
0.00630367
0.00630382
0.00630573
0.00630517
0.00630563
0.00629723
0.00629276
0.00629577
0.00629714
0.00630189
0.00630284
0.00631326
0.00631308
0.00631412
0.00631326
0.00631398
0.006304
0.00630402
0.00630589
0.0063051
0.00630211
0.00630173
0.00625772
0.0062318
0.00630235
0.00630234
0.00630395
0.00631399
0.00631325
0.00631415
0.00631313
0.00631337
0.00630163
0.00630081
0.00630693
0.00456729
0.00482886
0.00570154
0.005839
0.00484502
0.00518935
0.00622668
0.00617745
0.00630537
0.00630507
0.0063043
0.0058562
0.0059466
0.00630417
0.00630327
0.00630349
0.0063153
0.00631518
0.00631422
0.00631425
0.00631521
0.00631531
0.00631314
0.00631351
0.00631325
0.00631403
0.00631334
0.00631365
0.00630916
0.00630999
0.00628176
0.00628276
0.00629273
0.00629096
0.00630357
0.00618009
0.0063047
0.0062766
0.00626056
0.00626379
0.00627833
0.00630336
0.00628411
0.00631237
0.00622814
0.00630295
0.00621219
0.00631211
0.00630515
0.00631319
0.00631347
0.00631272
0.00629199
0.0063124
0.00631248
0.00628969
0.00628829
0.00630813
0.00630762
0.00629773
0.00629866
0.00630533
0.00631075
0.00631112
0.00631028
0.00631063
0.00630526
0.00631087
0.00631173
0.0063121
0.00631124
0.00631161
0.00631055
0.00627655
0.00627705
0.00627309
0.00627254
0.00625963
0.00626107
0.0063019
0.00630892
0.00630926
0.00630847
0.00630881
0.00630184
0.0063038
0.00630982
0.00631016
0.00630937
0.00630971
0.00630369
0.00459129
0.00628048
0.00487428
0.00459189
0.00522196
0.0048924
0.00628171
0.00626885
0.00461998
0.00627034
0.0063026
0.00630224
0.0063044
0.00630801
0.00630835
0.00630755
0.0063079
0.00630459
0.00550768
0.00567305
0.00628909
0.0055313
0.00524706
0.00575791
0.00556348
0.00628992
0.00522512
0.00548182
0.00630381
0.00623429
0.00626093
0.00618634
0.00622884
0.00630383
0.00616511
0.00594778
0.00598086
0.00492405
0.00595737
0.00593449
0.00528481
0.00627602
0.00627806
0.00631383
0.00630182
0.00630176
0.00630374
0.00630293
0.00630184
0.0063025
0.00565859
0.0062994
0.00630122
0.00631381
0.00630197
0.00630212
0.00630483
0.00477292
0.00480054
0.00467428
0.00594616
0.0059429
0.00485762
0.00495369
0.00626729
0.00627547
0.00427508
0.00631459
0.00631463
0.00631409
0.00631408
0.00631465
0.00631461
0.00631024
0.00631146
0.00631106
0.00630796
0.0063074
0.00631085
0.00629989
0.00630935
0.00630898
0.00630986
0.00630947
0.00630019
0.00627657
0.00628699
0.00629573
0.0062841
0.00604747
0.00599655
0.00630327
0.00627984
0.00628941
0.00628223
0.00628176
0.00510216
0.00631361
0.00631338
0.00631405
0.00631197
0.00630951
0.00630801
0.0063126
0.00631274
0.00631314
0.00631223
0.00631261
0.00631246
0.00630473
0.00631039
0.00630999
0.00631093
0.00631053
0.00630556
0.00629655
0.00608
0.00621372
0.00597536
0.00600053
0.00628315
0.00622735
0.00624226
0.00630522
0.00629392
0.0063017
0.00630705
0.00631065
0.00631079
0.00630975
0.00630996
0.00630494
0.00630886
0.00630849
0.00629939
0.00627443
0.005907
0.00582742
0.0062759
0.00593895
0.00596803
0.00581326
0.00583135
0.00627138
0.00627332
0.00626542
0.00630233
0.00630864
0.00630879
0.00630789
0.00630824
0.00630294
0.00630425
0.00630949
0.00630968
0.00630884
0.00630899
0.00630321
0.00630358
0.00626214
0.00627162
0.00624932
0.00624289
0.00630049
0.00630599
0.00630707
0.00630743
0.00630657
0.00630695
0.00630595
0.00629406
0.00589711
0.00577822
0.00603283
0.00599366
0.00629446
0.00525787
0.00531214
0.00629651
0.006078
0.00604521
0.00518874
0.00524135
0.00610814
0.00606055
0.00631358
0.00631383
0.00631369
0.00599974
0.00624829
0.00603472
0.00605792
0.00605179
0.00624496
0.00631371
0.00631354
0.00631388
0.00631327
0.00631361
0.00459433
0.00468202
0.00481925
0.00478629
0.00576637
0.00498077
0.00494834
0.00507191
0.00499065
0.00578402
0.00493593
0.00500191
0.00620864
0.00620036
0.00590048
0.00520284
0.00511668
0.00496365
0.00501553
0.00631279
0.0063132
0.00631345
0.0063128
0.00631311
0.0063126
0.00630807
0.0063107
0.00627763
0.00628595
0.0062952
0.00628507
0.00619092
0.0062759
0.0062691
0.00628295
0.00627802
0.00618882
0.00625333
0.00624668
0.00626696
0.00625703
0.00627102
0.00613041
0.00615854
0.00607832
0.00611631
0.00626867
0.00596848
0.00598731
0.00626475
0.00630997
0.00630729
0.00631242
0.00631075
0.00627432
0.00629072
0.00628511
0.00630524
0.00629314
0.00631162
0.00631313
0.00631266
0.00631073
0.00630882
0.00631147
0.00630989
0.00631208
0.00631035
0.00631213
0.00631268
0.00631073
0.00631191
0.00631273
0.0063123
0.00631163
0.00603475
0.00605968
0.00629453
0.0058441
0.00574442
0.00610117
0.0058664
0.00560139
0.00551318
0.00571383
0.00563905
0.00628441
0.00600938
0.00602824
0.00621606
0.00619185
0.0062822
0.00623618
0.00616049
0.00613031
0.00618726
0.00616823
0.00630587
0.00624565
0.00625478
0.00629492
0.00630117
0.00631032
0.00631057
0.00630613
0.00630502
0.00631003
0.00631025
0.00592563
0.00592059
0.00627506
0.00540718
0.00540427
0.00505669
0.00536518
0.00536725
0.00547477
0.00539638
0.00537227
0.00589673
0.0059293
0.00627509
0.00537439
0.00528736
0.00549149
0.00540154
0.00512703
0.00504045
0.00525422
0.00516601
0.00627158
0.00584671
0.00588406
0.00626736
0.00626423
0.00630846
0.0063086
0.00630221
0.00630249
0.00630829
0.00630841
0.00630926
0.00630943
0.00630414
0.00630333
0.00630904
0.0063092
0.00462261
0.00471471
0.00594167
0.00599443
0.00587312
0.005923
0.00461477
0.00509023
0.0060654
0.00598415
0.00600892
0.00605192
0.00502113
0.00564926
0.00567756
0.00553849
0.00563867
0.00470119
0.00580651
0.00585937
0.00569372
0.00577845
0.00469843
0.00625371
0.00625979
0.00630338
0.00622752
0.00623988
0.00624356
0.006227
0.00624003
0.00630091
0.00623931
0.0062486
0.00557352
0.00478535
0.0048173
0.00492113
0.0047877
0.0055974
0.00482273
0.00532501
0.00482352
0.00536734
0.00620869
0.00628844
0.00628445
0.0062931
0.00628976
0.00621239
0.00614589
0.00615361
0.00533599
0.00539347
0.00505406
0.00516682
0.00614002
0.00611896
0.0063145
0.00631465
0.00631628
0.00630322
0.00630304
0.00630217
0.00631427
0.0063143
0.00631396
0.00631392
0.0063143
0.00631428
0.0063153
0.00631525
0.00631431
0.00631199
0.0063116
0.0063106
0.0063078
0.0063021
0.00630128
0.00627361
0.00628896
0.00630789
0.00630753
0.00630014
0.00626207
0.00625929
0.00628303
0.00627372
0.00627853
0.00630449
0.00631235
0.00631252
0.00631213
0.00630006
0.00630376
0.00631133
0.00631282
0.00631245
0.00631281
0.00630979
0.00628206
0.0062984
0.006292
0.00630042
0.00629952
0.006307
0.00630769
0.00630776
0.00630476
0.00631096
0.00631111
0.00630974
0.00629943
0.00630837
0.00630801
0.00595583
0.00592187
0.00627924
0.00628081
0.00626604
0.00626465
0.00627023
0.0063026
0.00630671
0.00630675
0.00630446
0.00630756
0.00630762
0.00630679
0.00630683
0.00630296
0.00626607
0.00600842
0.0059732
0.00630373
0.00630771
0.0063078
0.00630552
0.00630606
0.00630644
0.00481626
0.00482318
0.00611411
0.006088
0.0062967
0.00480401
0.00480979
0.00629024
0.00629204
0.00630247
0.00631335
0.00631328
0.00454891
0.00458972
0.00460466
0.00480651
0.00486298
0.00456106
0.00457438
0.00485481
0.00480599
0.00514136
0.00613581
0.00612687
0.00618521
0.00527634
0.00521838
0.00591283
0.00631473
0.00631468
0.00631413
0.00631289
0.00631305
0.0063132
0.00631332
0.00631221
0.00631241
0.00631354
0.00631379
0.00631364
0.00630611
0.00630569
0.00630857
0.00631037
0.00630907
0.00630833
0.00627988
0.00628378
0.00627025
0.00627253
0.00629388
0.00628876
0.00626052
0.00626566
0.00620057
0.00620159
0.00623039
0.00622646
0.00617988
0.00620403
0.00620695
0.00630455
0.00628042
0.00628559
0.00627686
0.00624554
0.00628863
0.00628353
0.00630902
0.00630695
0.00629825
0.00615924
0.00614047
0.00627067
0.00623443
0.00618301
0.00631338
0.00631322
0.00631233
0.00631216
0.00631011
0.00631121
0.00629815
0.00631135
0.00631195
0.00625769
0.00627271
0.00630946
0.00611627
0.00609399
0.00629682
0.00629957
0.00631158
0.00631173
0.00631133
0.00630986
0.00631126
0.00631142
0.00627868
0.00591842
0.00592229
0.00625972
0.0062621
0.00630719
0.00630724
0.00630391
0.00630357
0.00630707
0.00630713
0.00461409
0.00485127
0.00528635
0.0053146
0.00498653
0.00500866
0.00456414
0.00603304
0.00601488
0.00626745
0.0046975
0.00466298
0.00487231
0.00487739
0.00464906
0.00496686
0.00497584
0.00463404
0.00463981
0.00630754
0.00630763
0.00630382
0.00630489
0.00630737
0.00630746
0.00539324
0.00604178
0.00605998
0.00600341
0.00602254
0.00534486
0.00624671
0.0062907
0.00629399
0.00629297
0.0062919
0.00625081
0.00619556
0.00624068
0.00623541
0.00615163
0.00613917
0.00616762
0.00493682
0.00495791
0.00497653
0.00479539
0.00598655
0.00539343
0.00530589
0.00547354
0.0054156
0.00592026
0.00592268
0.00592834
0.00616598
0.00618902
0.00628162
0.00631373
0.00631381
0.0063136
0.00476238
0.00476726
0.00534055
0.00533545
0.00460656
0.00491169
0.00480836
0.00480577
0.00478448
0.00479883
0.0049392
0.00429199
0.00612379
0.00613859
0.00631438
0.00631433
0.00631397
0.00630367
0.0063029
0.00630787
0.00630592
0.00630826
0.0063099
0.00630742
0.00630791
0.00627537
0.00628796
0.00624701
0.00625059
0.00625119
0.0062471
0.00628349
0.0062574
0.00625605
0.00603622
0.00594958
0.00594872
0.00596589
0.00596213
0.00602184
0.00630906
0.00631077
0.00631089
0.00631044
0.00631066
0.00630856
0.00629295
0.00630553
0.00629852
0.00629605
0.00630485
0.00630782
0.0063079
0.00626619
0.00626691
0.00627844
0.00626724
0.00630663
0.00630667
0.00630246
0.00630743
0.00630749
0.00630435
0.00630309
0.00630687
0.00630692
0.0062493
0.00626175
0.00625674
0.00626594
0.00626437
0.00624786
0.00483145
0.00484494
0.00479965
0.00479991
0.00520722
0.00496589
0.004949
0.00596018
0.00596183
0.00609373
0.00599215
0.0060128
0.00595485
0.00597046
0.00607685
0.00631352
0.00631344
0.00631349
0.00631348
0.00631376
0.00631379
0.00631389
0.0063136
0.00631368
0.00631366
0.00602741
0.00615067
0.00614364
0.00616997
0.00616
0.00603526
0.00608282
0.00611721
0.00610268
0.0061379
0.00613046
0.00606997
0.00631364
0.00631371
0.0063136
0.00631258
0.00631182
0.0063134
0.00631322
0.00454848
0.00476467
0.00461371
0.00460499
0.00481043
0.00479906
0.00518532
0.00520618
0.00496294
0.00457153
0.004555
0.00489028
0.00470654
0.00471405
0.00468785
0.00507616
0.0047215
0.00463623
0.00614231
0.00615531
0.00621584
0.00610604
0.00610993
0.00609613
0.00609871
0.00619225
0.00612308
0.00612853
0.00497402
0.00475367
0.00476887
0.00474722
0.00474298
0.00498948
0.006313
0.0063131
0.00631294
0.00631218
0.00631255
0.00631288
0.00630288
0.00630824
0.0063051
0.00630441
0.0063062
0.00630683
0.00630475
0.00630552
0.00627873
0.00628484
0.00625562
0.00625671
0.00625223
0.00625397
0.00629463
0.00627374
0.00627459
0.00625546
0.00625685
0.00628663
0.0062563
0.00621144
0.00620339
0.00618404
0.00622314
0.00621885
0.0062506
0.00621155
0.00621042
0.00622453
0.00621705
0.00624864
0.0062644
0.00623026
0.00623437
0.00621515
0.00622306
0.00626099
0.00620773
0.00609097
0.00618567
0.00617874
0.00595971
0.00596891
0.00626012
0.00629303
0.00629086
0.00625519
0.00628242
0.00630142
0.00629641
0.00619041
0.0061739
0.00625187
0.00625561
0.00628711
0.0062256
0.00620825
0.00630439
0.00630714
0.00631149
0.00630892
0.00630086
0.0062899
0.00630028
0.00631117
0.00631178
0.00631196
0.00631109
0.00631138
0.00631017
0.00630878
0.0063099
0.00631229
0.00631177
0.00631151
0.00631244
0.00631195
0.00631247
0.00631104
0.00631118
0.00631039
0.00631126
0.00581714
0.0057788
0.00603542
0.00574368
0.00577838
0.00567003
0.00588603
0.00556805
0.00553872
0.0056869
0.00566364
0.0062039
0.00609241
0.00611836
0.00603923
0.00606518
0.0061969
0.00627678
0.00623347
0.00624572
0.00613358
0.00620464
0.00626391
0.00607317
0.00603224
0.00615249
0.00586531
0.00589328
0.00581615
0.00584045
0.00614353
0.00618245
0.00599391
0.00601548
0.00592407
0.00595771
0.00617569
0.00629591
0.00630044
0.00541775
0.00509694
0.00514009
0.00500911
0.00505105
0.0054118
0.00513876
0.00516262
0.00515909
0.00525981
0.00538179
0.00478212
0.00482409
0.0048564
0.00478542
0.00541741
0.00538857
0.00493556
0.00497071
0.0048676
0.00490378
0.00538083
0.0053515
0.00532531
0.00546909
0.00543304
0.00509227
0.00506074
0.0052256
0.00520137
0.00626223
0.00626312
0.00630402
0.00630731
0.00630737
0.00630697
0.00630702
0.00630345
0.00462917
0.00518534
0.00524546
0.00480663
0.00456158
0.00505031
0.00511403
0.00477048
0.004733
0.00565762
0.00512579
0.00513084
0.00559007
0.00507385
0.00497082
0.00513181
0.005118
0.00562147
0.00485397
0.00481055
0.0049026
0.00494717
0.00467945
0.00469779
0.00480523
0.00625642
0.0062801
0.00627824
0.00628282
0.00628151
0.00625811
0.0062318
0.00623784
0.00623774
0.0062265
0.00622659
0.00623137
0.00623912
0.00626963
0.00626748
0.00627564
0.00627254
0.00624304
0.00479599
0.00497638
0.00499357
0.0049528
0.00496448
0.00480771
0.00486927
0.00511296
0.0051553
0.0050223
0.00506473
0.00481611
0.00481281
0.00472978
0.00475293
0.00471789
0.0047218
0.00482991
0.00490704
0.00493636
0.00479632
0.00485196
0.00482407
0.00624859
0.00624519
0.00620393
0.00614438
0.00616234
0.00487217
0.00491505
0.00509798
0.00483876
0.00478107
0.00492815
0.00489569
0.00513746
0.00480275
0.00480174
0.00593461
0.00594249
0.00631903
0.00631902
0.00632014
0.00631901
0.00631901
0.00632013
0.00631901
0.00631901
0.00632013
0.00631903
0.00631905
0.00632015
0.00631682
0.0063168
0.00631792
0.00631677
0.00631675
0.00631846
0.00631673
0.00631671
0.00631844
0.00631671
0.00631676
0.00631845
0.00631679
0.00631683
0.00631849
0.00631686
0.00631688
0.00631796
0.00631464
0.00631459
0.00631624
0.00631454
0.00631443
0.00631617
0.00631555
0.00631553
0.00631643
0.00631548
0.00631551
0.00631642
0.00631565
0.00631568
0.00631623
0.00631469
0.00631474
0.0063158
0.00631249
0.00631242
0.00631404
0.00631345
0.00631344
0.00631398
0.00631381
0.00631379
0.00631407
0.00631341
0.00631353
0.00631433
0.00631259
0.00631265
0.00631369
0.00631036
0.00631031
0.00631189
0.00631133
0.00631133
0.00631185
0.00631169
0.00631169
0.00631194
0.00631142
0.00631151
0.00631225
0.00631056
0.00631059
0.00631162
0.00630825
0.00630823
0.00630979
0.00630925
0.00630927
0.00630978
0.00630969
0.00630968
0.00630992
0.00630954
0.00630956
0.00631029
0.00630856
0.00630854
0.00630957
0.00630613
0.00630613
0.00630771
0.00630717
0.00630721
0.00630773
0.00630769
0.00630769
0.00630794
0.00630763
0.0063076
0.00630834
0.00630653
0.00630648
0.00630752
0.00630399
0.006304
0.0063056
0.00630563
0.00630563
0.00630589
0.00630562
0.00630554
0.00630631
0.00630444
0.00630438
0.00630544
0.00630182
0.00630183
0.00630346
0.00630347
0.00630346
0.00630399
0.0063023
0.00630225
0.00630332
0.0062996
0.00629956
0.00630067
0.00629958
0.00629953
0.00630119
0.00630062
0.00629898
0.00629981
0.00523501
0.00624944
0.00625459
0.00630012
0.00630015
0.0063018
0.00630007
0.00630009
0.00630117
0.0062974
0.00629737
0.00629847
0.00629739
0.00629732
0.00629898
0.00629727
0.00554499
0.00551626
0.00601976
0.00629787
0.00629955
0.00629788
0.00629794
0.00629957
0.00629786
0.00629788
0.00629898
0.0062952
0.00629515
0.00629626
0.00629089
0.00589951
0.00555333
0.00616493
0.00629552
0.0062973
0.00629569
0.00629574
0.00629684
0.0063122
0.00631246
0.00631246
0.00631261
0.0063127
0.0063123
0.00631415
0.00631388
0.0063139
0.00631017
0.00631042
0.00631043
0.00631071
0.00631071
0.00631036
0.00631218
0.0063118
0.00631189
0.00630819
0.00630844
0.00630844
0.00630884
0.00630887
0.00630852
0.00631024
0.0063099
0.00631001
0.00630616
0.00630642
0.00630641
0.0063069
0.00630697
0.0063066
0.00630841
0.00630806
0.00630812
0.00630484
0.00630482
0.00630456
0.00630636
0.00630611
0.00630614
0.00630008
0.0063016
0.00630264
0.00459841
0.00524324
0.00525021
0.00587537
0.00587682
0.00431229
0.00630429
0.00630402
0.00630404
0.00631427
0.00631522
0.00631526
0.006314
0.00631399
0.0063139
0.00631641
0.0063155
0.00631547
0.006314
0.00631401
0.00631473
0.00631471
0.00631443
0.00631646
0.00631556
0.00631559
0.00631237
0.0063129
0.00631291
0.00631304
0.00631288
0.00631236
0.00631395
0.00631342
0.00631331
0.00631323
0.00631319
0.00631292
0.00631407
0.00631391
0.00631394
0.0063125
0.00631327
0.00631315
0.00631307
0.00631307
0.00631257
0.0063141
0.00631358
0.00631359
0.00631029
0.00631081
0.00631081
0.00631095
0.00631081
0.0063103
0.00631184
0.00631132
0.00631121
0.00631118
0.00631143
0.00631144
0.00630937
0.00631067
0.00631044
0.00631183
0.00631166
0.00631121
0.00631097
0.00631037
0.00631127
0.00631053
0.00631126
0.00631118
0.00631105
0.00631108
0.00631059
0.00631207
0.00631157
0.00631155
0.00630824
0.00630876
0.00630873
0.00630895
0.00630878
0.00630827
0.00630979
0.00630929
0.0063092
0.00630918
0.00630943
0.00630944
0.00629947
0.00630678
0.00630667
0.00630784
0.0063076
0.00630112
0.00630859
0.00630932
0.0063093
0.00630907
0.00630913
0.00630864
0.00631011
0.00630962
0.00630957
0.00630616
0.00630669
0.00630665
0.00630693
0.00630672
0.0063062
0.00630775
0.00630724
0.00630718
0.00630718
0.00630744
0.00630744
0.00630027
0.00630741
0.00630704
0.00630592
0.00630585
0.00629991
0.00629704
0.00627832
0.0062808
0.00630658
0.00630734
0.00630738
0.00630707
0.00630714
0.00630663
0.00630814
0.00630764
0.00630757
0.00630373
0.00629173
0.00629443
0.00629973
0.00630018
0.00630432
0.00630452
0.00630504
0.00630536
0.00630501
0.00630508
0.00630455
0.00630612
0.0063056
0.00630553
0.00630307
0.00630178
0.00630177
0.00630141
0.00630153
0.00630353
0.00629855
0.00629869
0.00630006
0.00512472
0.00628146
0.00627964
0.00594593
0.00595026
0.00483778
0.00629847
0.00629917
0.00568359
0.00630066
0.00630069
0.00629995
0.00630188
0.00630097
0.00630123
0.00631197
0.00631214
0.00631199
0.00631307
0.00631266
0.00631251
0.00631272
0.00631272
0.00631298
0.00631274
0.00631213
0.00631283
0.00631391
0.00631389
0.00631404
0.00631297
0.00631314
0.00631318
0.00631177
0.00631139
0.00631124
0.00631301
0.00631292
0.00631295
0.00631309
0.00631284
0.00631285
0.00631287
0.00631291
0.00631304
0.00631212
0.00631225
0.00631216
0.00630313
0.00630839
0.00630811
0.00631018
0.00630989
0.00630732
0.00631068
0.00631067
0.00631093
0.00630043
0.00628597
0.00628997
0.0062392
0.00624117
0.0062808
0.00629256
0.00629439
0.00630379
0.00631119
0.00631083
0.00631094
0.00630904
0.00631005
0.00631021
0.00631145
0.00631186
0.006312
0.00631033
0.00631043
0.00630954
0.00631165
0.00631167
0.00631131
0.00629958
0.00630605
0.00630598
0.00630656
0.00630647
0.00629935
0.00630869
0.00630869
0.00630894
0.00627304
0.00622385
0.00622198
0.00624278
0.00624095
0.00628057
0.00627771
0.00623548
0.00623732
0.00622071
0.00621998
0.0062715
0.00630932
0.00630898
0.00630907
0.00630675
0.00630673
0.00630351
0.00630977
0.00630978
0.00630944
0.00627779
0.00613486
0.00611295
0.00622196
0.00621708