/*--------------------------------*- C++ -*----------------------------------*\
| =========                 |                                                 |
| \\      /  F ield         | OpenFOAM: The Open Source CFD Toolbox           |
|  \\    /   O peration     | Version:  5.x                                   |
|   \\  /    A nd           | Web:      www.OpenFOAM.org                      |
|    \\/     M anipulation  |                                                 |
\*---------------------------------------------------------------------------*/
FoamFile
{
    version     2.0;
    format      ascii;
    class       volScalarField;
    location    "600";
    object      YSat;
}
// * * * * * * * * * * * * * * * * * * * * * * * * * * * * * * * * * * * * * //

dimensions      [0 0 0 0 0 0 0];

internalField   nonuniform List<scalar> 
6584
(
0.00431405
0.00431405
0.00431405
0.00431405
0.00431405
0.00431405
0.00431405
0.00431405
0.00431405
0.00431405
0.00431405
0.00431405
0.00431405
0.00431405
0.00431405
0.00431405
0.00431405
0.00431405
0.00431405
0.00431405
0.00431405
0.00431405
0.00431405
0.00431405
0.00431405
0.00431405
0.00431405
0.00431405
0.00431405
0.00431405
0.00431405
0.00431405
0.00431405
0.00431405
0.00431405
0.00431405
0.00431405
0.00431405
0.00431405
0.00431405
0.00431405
0.00431405
0.00431405
0.00431405
0.00431405
0.00431405
0.00431405
0.00431405
0.00431405
0.00431405
0.00431405
0.00431405
0.00431405
0.00431405
0.00431405
0.00431405
0.00431405
0.00431405
0.00431405
0.00431405
0.00431405
0.00431405
0.00431405
0.00431405
0.00431405
0.00431405
0.00431405
0.00431405
0.00431405
0.00431405
0.00431405
0.00431405
0.00431405
0.00431405
0.00431405
0.00431405
0.00431405
0.00431405
0.00431405
0.00431405
0.00431405
0.00431405
0.00431405
0.00431405
0.00431405
0.00431405
0.00431405
0.00431405
0.00431405
0.00431405
0.00431405
0.00431405
0.00431405
0.00431405
0.00431405
0.00431405
0.00431405
0.00431405
0.00431405
0.00431405
0.00431405
0.00431405
0.00431405
0.00431405
0.00431405
0.00431405
0.00431405
0.00431405
0.00431405
0.00431405
0.00431405
0.00431405
0.00431405
0.00431405
0.00431405
0.00431405
0.00431405
0.00431405
0.00431405
0.00431405
0.00431405
0.00431405
0.00431405
0.00431405
0.00431405
0.00431405
0.00431405
0.00431405
0.00431405
0.00431405
0.00431405
0.00431405
0.00431405
0.00431405
0.00431405
0.00431405
0.00431405
0.00431405
0.00431405
0.00431405
0.00431405
0.00431405
0.00431405
0.00431405
0.00431405
0.00431405
0.00431405
0.00431405
0.00431405
0.00431405
0.00431405
0.00431405
0.00431405
0.00431405
0.00431405
0.00431405
0.00431405
0.00431405
0.00431405
0.00431405
0.00431405
0.00431405
0.00431405
0.00431405
0.00431405
0.00431405
0.00431405
0.00431405
0.00431405
0.00431405
0.00431405
0.00431405
0.00431405
0.00431405
0.00431405
0.00431405
0.00431405
0.00431405
0.00431405
0.00431405
0.00431405
0.00431405
0.00431405
0.00431405
0.00431405
0.00431405
0.00431405
0.00431405
0.00431405
0.00431405
0.00431405
0.00431405
0.00431405
0.00431405
0.00431405
0.00431405
0.00431405
0.00431405
0.00431405
0.00431405
0.00431405
0.00431405
0.00431405
0.00431405
0.00431405
0.00431405
0.00431405
0.00431405
0.00431405
0.00431405
0.00431405
0.00431405
0.00431405
0.00431405
0.00431405
0.00431405
0.00431405
0.00431405
0.00431405
0.00431405
0.00431405
0.00431405
0.00431405
0.00431405
0.00431405
0.00431405
0.00431405
0.00431405
0.00431405
0.00431405
0.00431405
0.00431405
0.00431405
0.00431405
0.00431405
0.00431405
0.00431405
0.00431405
0.00431405
0.00431405
0.00431405
0.00431405
0.00431405
0.00431405
0.00431405
0.00431405
0.00431405
0.00431405
0.00431405
0.00431405
0.00431405
0.00431405
0.00431405
0.00431405
0.00431405
0.00431405
0.00431405
0.00431405
0.00431405
0.00431405
0.00431405
0.00431405
0.00431405
0.00431405
0.00431405
0.00431405
0.00431405
0.00431405
0.00431405
0.00431405
0.00431405
0.00431405
0.00431405
0.00431405
0.00431405
0.00431405
0.00431405
0.00431405
0.00431405
0.00431405
0.00431405
0.00431405
0.00431405
0.00431405
0.00431405
0.00431405
0.00431405
0.00431405
0.00431405
0.00431405
0.00431405
0.00431405
0.00431405
0.00431405
0.00431405
0.00431405
0.00431405
0.00431405
0.00431405
0.00431405
0.00431405
0.00431405
0.00431405
0.00431405
0.00431405
0.00431405
0.00431405
0.00431405
0.00431405
0.00431405
0.00431405
0.00431405
0.00431405
0.00431405
0.00431405
0.00431405
0.00431405
0.00431405
0.00343079
0.00431405
0.00431405
0.00431405
0.00431405
0.00431405
0.00431405
0.00431405
0.00431405
0.00431405
0.00431405
0.00431405
0.00431405
0.00431405
0.00431405
0.00431405
0.00431405
0.00431405
0.00431405
0.00431405
0.00431405
0.00431405
0.00431405
0.00431404
0.00408484
0.00431405
0.00431405
0.00431405
0.00431405
0.00431405
0.00431405
0.00431405
0.00431405
0.00431405
0.00431405
0.00431405
0.00431405
0.00431405
0.00431405
0.00431405
0.00431405
0.00431405
0.00431405
0.00431405
0.00431405
0.00431405
0.00431405
0.00431401
0.00410412
0.00431405
0.00431405
0.00431405
0.00431405
0.00431405
0.00431405
0.00431405
0.00431405
0.00431405
0.00431405
0.00431405
0.00431405
0.00431405
0.00431405
0.00431405
0.00431405
0.00431405
0.00431405
0.00431405
0.00431405
0.00431405
0.00431405
0.00430916
0.00421356
0.00431405
0.00431405
0.00431405
0.00431405
0.00431405
0.00431405
0.00431405
0.00431405
0.00431405
0.00431405
0.00431405
0.00431405
0.00431405
0.00431405
0.00431405
0.00431405
0.00431405
0.00431405
0.00431405
0.00431405
0.00431405
0.00431405
0.00430649
0.00421607
0.00431405
0.00431405
0.00431405
0.00431405
0.00431405
0.00431405
0.00431405
0.00431405
0.00431405
0.00431405
0.00431405
0.00431405
0.00431405
0.00431405
0.00431405
0.00431405
0.00431405
0.00431405
0.00431405
0.00431405
0.00431405
0.00431326
0.00416848
0.00426656
0.00431404
0.00431405
0.00431405
0.00431405
0.00431405
0.00431405
0.00431405
0.00431405
0.00431405
0.00431405
0.00431405
0.00431405
0.00431405
0.00431405
0.00431405
0.00431405
0.00431405
0.00431405
0.00431405
0.00431405
0.00431404
0.00431258
0.00416922
0.00426689
0.00431404
0.00431405
0.00431405
0.00431405
0.00431405
0.00431405
0.00431405
0.00431405
0.00431405
0.00431405
0.00431405
0.00431405
0.00431405
0.00431405
0.00431405
0.00431405
0.00431405
0.00431405
0.00431405
0.00431405
0.00431403
0.00431193
0.00416986
0.00426719
0.00431403
0.00431405
0.00431405
0.00431405
0.00431405
0.00431405
0.00431405
0.00431405
0.00431405
0.00431405
0.00431405
0.00431405
0.00431405
0.00431405
0.00431405
0.00431405
0.00431405
0.00431405
0.00431405
0.00431405
0.00431402
0.00431132
0.00417046
0.00426744
0.00431402
0.00431405
0.00431405
0.00431405
0.00431405
0.00431405
0.00431405
0.00431405
0.00431405
0.00431405
0.00431405
0.00431405
0.00431405
0.00431405
0.00431405
0.00431405
0.00431405
0.00431405
0.00431405
0.00431405
0.00431401
0.00431075
0.004171
0.00426766
0.00431402
0.00431405
0.00431405
0.00431405
0.00431405
0.00431405
0.00431405
0.00431405
0.00431405
0.00431405
0.00431405
0.00431405
0.00431405
0.00431405
0.00431405
0.00431405
0.00431405
0.00431405
0.00431405
0.00431405
0.004314
0.00431021
0.00417151
0.00426785
0.00431401
0.00431405
0.00431405
0.00431405
0.00431405
0.00431405
0.00431405
0.00431405
0.00431405
0.00431405
0.00431405
0.00431405
0.00431405
0.00431405
0.00431405
0.00431405
0.00431405
0.00431405
0.00431405
0.00431405
0.00431398
0.00430971
0.00417199
0.00426802
0.00431401
0.00431405
0.00431405
0.00431405
0.00431405
0.00431405
0.00431405
0.00431405
0.00431405
0.00431405
0.00431405
0.00431405
0.00431405
0.00431405
0.00431405
0.00431405
0.00431405
0.00431405
0.00431405
0.00431405
0.00431396
0.00430917
0.00417248
0.00426819
0.004314
0.00431405
0.00431405
0.00431405
0.00431405
0.00431405
0.00431405
0.00431405
0.00431405
0.00431405
0.00431405
0.00431405
0.00431405
0.00431405
0.00431405
0.00431405
0.00431405
0.00431405
0.00431405
0.00431405
0.00431394
0.0043086
0.00417299
0.00426837
0.004314
0.00431405
0.00431405
0.00431405
0.00431405
0.00431405
0.00431405
0.00431405
0.00431405
0.00431405
0.00431405
0.00431405
0.00431405
0.00431405
0.00431405
0.00431405
0.00431405
0.00431405
0.00431405
0.00431405
0.00431392
0.00430806
0.00417349
0.00426853
0.00431399
0.00431405
0.00431405
0.00431405
0.00431405
0.00431405
0.00431405
0.00431405
0.00431405
0.00431405
0.00431405
0.00431405
0.00431405
0.00431405
0.00431405
0.00431405
0.00431405
0.00431405
0.00431405
0.00431405
0.00431389
0.00430754
0.00417397
0.00426869
0.00431399
0.00431405
0.00431405
0.00431405
0.00431405
0.00431405
0.00431405
0.00431405
0.00431405
0.00431405
0.00431405
0.00431405
0.00431405
0.00431405
0.00431405
0.00431405
0.00431405
0.00431405
0.00431405
0.00431405
0.00431387
0.00430703
0.00417443
0.00426884
0.00431398
0.00431405
0.00431405
0.00431405
0.00431405
0.00431405
0.00431405
0.00431405
0.00431405
0.00431405
0.00431405
0.00431405
0.00431405
0.00431405
0.00431405
0.00431405
0.00431405
0.00431405
0.00431405
0.00431404
0.00431384
0.00430653
0.00417489
0.00426898
0.00431397
0.00431405
0.00431405
0.00431405
0.00431405
0.00431405
0.00431405
0.00431405
0.00431405
0.00431405
0.00431405
0.00431405
0.00431405
0.00431405
0.00431405
0.00431405
0.00431405
0.00431405
0.00431405
0.00431404
0.00431381
0.00430605
0.00417535
0.00426911
0.00431397
0.00431405
0.00431405
0.00431405
0.00431405
0.00431405
0.00431405
0.00431405
0.00431405
0.00431405
0.00431405
0.00431405
0.00431405
0.00431405
0.00431405
0.00431405
0.00431405
0.00431405
0.00431405
0.00431404
0.00431378
0.00430556
0.0041758
0.00426925
0.00431396
0.00431405
0.00431405
0.00431405
0.00431405
0.00431405
0.00431405
0.00431405
0.00431405
0.00431405
0.00431405
0.00431405
0.00431405
0.00431405
0.00431405
0.00431405
0.00431405
0.00431405
0.00431405
0.00431404
0.00431375
0.00430507
0.00417625
0.00426938
0.00431396
0.00431405
0.00431405
0.00431405
0.00431405
0.00431405
0.00431405
0.00431405
0.00431405
0.00431405
0.00431405
0.00431405
0.00431405
0.00431405
0.00431405
0.00431405
0.00431405
0.00431405
0.00431405
0.00431404
0.00431371
0.00430457
0.00417671
0.00426952
0.00431395
0.00431405
0.00431405
0.00431405
0.00431405
0.00431405
0.00431405
0.00431405
0.00431405
0.00431405
0.00431405
0.00431405
0.00431405
0.00431405
0.00431405
0.00431405
0.00431405
0.00431405
0.00431405
0.00431404
0.00431367
0.00430404
0.00417718
0.00426965
0.00431395
0.00431405
0.00431405
0.00431405
0.00431405
0.00431405
0.00431405
0.00431405
0.00431405
0.00431405
0.00431405
0.00431405
0.00431405
0.00431405
0.00431405
0.00431405
0.00431405
0.00431405
0.00431405
0.00431405
0.00431405
0.00431405
0.00431405
0.00431405
0.00431405
0.00431405
0.00431405
0.00324657
0.00339062
0.00431405
0.00431405
0.00431405
0.00431405
0.00431405
0.00431405
0.00431405
0.00431405
0.00431405
0.00431404
0.00431405
0.00431405
0.00431405
0.00431405
0.00431405
0.00431405
0.00431405
0.00431405
0.00431235
0.00431373
0.00431142
0.00431369
0.00431405
0.00431405
0.00431405
0.00431405
0.00431405
0.00431405
0.00431405
0.00430653
0.00430768
0.00428543
0.00429839
0.00431405
0.00431405
0.00431405
0.00431405
0.00431405
0.00431405
0.00431405
0.00430903
0.00430769
0.0043066
0.00429404
0.00431405
0.00431405
0.00431405
0.00431272
0.00431233
0.00431405
0.00431405
0.00431405
0.00431373
0.00431348
0.00431404
0.00351911
0.00325732
0.00390024
0.00431405
0.00431405
0.00431383
0.00431405
0.00431405
0.00431403
0.00431315
0.00431405
0.00431404
0.00431376
0.00431404
0.00431405
0.00431405
0.00431394
0.00430811
0.00431193
0.00431405
0.004307
0.00429063
0.00431273
0.00430778
0.00429916
0.00431132
0.00431405
0.00431268
0.00430974
0.00431391
0.00431275
0.00431405
0.0043075
0.00430659
0.00431405
0.00428566
0.00429326
0.00428988
0.00428534
0.00429351
0.00428462
0.00431405
0.00430897
0.00431032
0.00430971
0.00430902
0.00431405
0.00429023
0.00429773
0.00429385
0.00428902
0.00431218
0.0043073
0.00431405
0.0043124
0.00431347
0.00431039
0.00431229
0.00431405
0.00430442
0.00430739
0.00429865
0.00430386
0.00431343
0.00431284
0.00431352
0.00431376
0.00431405
0.00430979
0.00430715
0.00430775
0.0043096
0.00431384
0.00431376
0.00431405
0.00431405
0.00431405
0.00431394
0.00431405
0.00431405
0.00431405
0.00431405
0.00431405
0.00431175
0.00431073
0.00427806
0.00425766
0.00431405
0.00431405
0.00431405
0.00431405
0.00431394
0.00431405
0.00431405
0.00431405
0.00431056
0.00430923
0.00431405
0.00312228
0.00327814
0.00385833
0.00395893
0.00328783
0.00350621
0.00425367
0.00421558
0.00431405
0.00431378
0.0043139
0.00397172
0.00403967
0.00431391
0.00431397
0.00431405
0.00431405
0.00431405
0.00431405
0.00431405
0.00431405
0.00431405
0.00431389
0.00431405
0.00431398
0.00431405
0.004314
0.00431405
0.00431224
0.00431283
0.00429235
0.00429308
0.00430228
0.00430086
0.00431226
0.00421728
0.00431304
0.00429318
0.00428031
0.00428248
0.00429414
0.00431361
0.00429177
0.00431394
0.0042489
0.0043064
0.0042367
0.00431384
0.00430805
0.00431393
0.00431405
0.00431359
0.00429783
0.00431398
0.004314
0.00429794
0.0042969
0.00431144
0.00431109
0.00430404
0.00430472
0.00430991
0.00431402
0.00431403
0.00431401
0.00431401
0.0043099
0.00431349
0.00431404
0.00431405
0.00431403
0.00431404
0.0043133
0.00428923
0.00428966
0.00428589
0.00428551
0.00427592
0.00427699
0.00430865
0.00431401
0.004314
0.00431401
0.00431401
0.00430865
0.00430942
0.004314
0.004314
0.004314
0.004314
0.00430938
0.00313653
0.00429369
0.00330727
0.0031382
0.00352822
0.0033182
0.00429474
0.00428395
0.003155
0.00428519
0.00431069
0.00431036
0.0043113
0.00431402
0.00431401
0.00431402
0.00431402
0.00431149
0.00372097
0.00383782
0.00430117
0.00373745
0.00354462
0.00389865
0.00375989
0.00430191
0.00352965
0.00370303
0.00431323
0.00425926
0.00428021
0.00422209
0.00425502
0.00431315
0.00420612
0.00404173
0.00406718
0.00334475
0.00404789
0.00403162
0.00358032
0.00429313
0.00429437
0.00431403
0.00431405
0.00431405
0.00431405
0.00431405
0.00431325
0.00431312
0.00383534
0.0043128
0.00431355
0.00431404
0.00431249
0.00431187
0.00431405
0.00324375
0.0032609
0.00319366
0.00404181
0.0040402
0.00329596
0.003356
0.00428675
0.00429282
0.00296579
0.00431405
0.00431405
0.00431405
0.00431405
0.00431405
0.00431405
0.00431315
0.00431403
0.00431402
0.00431148
0.00431051
0.00431332
0.00430664
0.00431393
0.00431393
0.00431395
0.00431393
0.00430678
0.0042885
0.00429618
0.00430479
0.00429536
0.00411749
0.00407948
0.00431365
0.00429536
0.00430321
0.00429915
0.00429948
0.00346168
0.00431405
0.00431401
0.00431405
0.00431386
0.00431198
0.00431095
0.00431404
0.00431405
0.00431405
0.00431405
0.00431405
0.00431403
0.00430964
0.00431398
0.00431395
0.00431401
0.00431399
0.00431019
0.00430305
0.0041382
0.00423915
0.00406137
0.00407977
0.00429313
0.00424952
0.0042608
0.00430943
0.00430126
0.00430692
0.00431108
0.00431381
0.00431382
0.00431364
0.00431367
0.00430983
0.00431393
0.00431393
0.0043069
0.00428744
0.00401117
0.00395354
0.00428787
0.0040348
0.00405604
0.00394339
0.00395657
0.00428479
0.00428668
0.00428018
0.00430881
0.00431366
0.00431364
0.00431361
0.00431375
0.00430967
0.00430959
0.00431362
0.00431363
0.00431364
0.00431362
0.00430918
0.00431164
0.00427953
0.00428701
0.0042691
0.00426428
0.00430881
0.00431325
0.00431403
0.00431403
0.00431403
0.00431403
0.00431331
0.00430587
0.00400126
0.00391343
0.00410379
0.00407375
0.00430629
0.00355537
0.00359259
0.00430867
0.00413877
0.00411334
0.0035086
0.00354413
0.00416328
0.00412729
0.00431403
0.00431404
0.00431404
0.00408188
0.0042706
0.00410793
0.00412531
0.00412069
0.00426797
0.00431405
0.00431398
0.00431405
0.00431382
0.00431404
0.00313779
0.00318959
0.00327175
0.0032518
0.00390544
0.00337189
0.00335147
0.00343021
0.00337815
0.00391839
0.00334396
0.00338542
0.00423964
0.00423324
0.00400481
0.0035159
0.00345924
0.00336237
0.00339558
0.00431376
0.00431403
0.00431404
0.00431394
0.00431402
0.00431366
0.00431152
0.00431325
0.00428928
0.00429542
0.00430433
0.00429616
0.00422543
0.00429089
0.00428548
0.00429655
0.00429258
0.00422386
0.00427305
0.00426778
0.00428377
0.00427595
0.00428867
0.00418015
0.00420167
0.00414065
0.00416942
0.00428678
0.00405868
0.00407262
0.00427697
0.00431201
0.00431008
0.00431369
0.00431256
0.00428432
0.00429745
0.00429324
0.00430853
0.00429928
0.00431293
0.00431401
0.00431382
0.0043122
0.00431077
0.00431333
0.00431223
0.00431389
0.00431245
0.00431361
0.0043139
0.0043127
0.00431349
0.00431403
0.00431378
0.00431341
0.00410478
0.00412311
0.00430154
0.00396501
0.00389395
0.00415384
0.00398103
0.00379389
0.00373321
0.00387238
0.00382005
0.00429406
0.00408626
0.00410003
0.00424025
0.0042219
0.00429103
0.00425565
0.00419833
0.0041757
0.00421846
0.00420415
0.00430988
0.00426335
0.00427023
0.00430199
0.00430654
0.00431373
0.00431379
0.0043104
0.00430985
0.00431368
0.00431372
0.00402466
0.00402106
0.00428796
0.00365972
0.00365727
0.00343079
0.00363162
0.0036315
0.00370383
0.00365172
0.00363503
0.00400403
0.00402776
0.0042873
0.00363927
0.00358128
0.0037184
0.0036575
0.00347636
0.00342063
0.00355936
0.00350162
0.0042849
0.00396769
0.0039948
0.00428203
0.0042793
0.0043137
0.00431367
0.00430875
0.00430928
0.00431374
0.0043137
0.00431361
0.00431362
0.00430955
0.00430923
0.00431362
0.00431361
0.00315561
0.00321055
0.00403456
0.00407388
0.00398413
0.00402073
0.00315111
0.00344281
0.00412749
0.00406596
0.00408473
0.00411723
0.00339869
0.00382427
0.00384386
0.00374743
0.00381694
0.00320418
0.00393583
0.0039741
0.00385516
0.0039156
0.00320272
0.00427283
0.00427767
0.00431144
0.00425281
0.00426219
0.00426533
0.00425245
0.00426227
0.00430919
0.00426156
0.00426885
0.00376704
0.00325062
0.00327009
0.00333443
0.00325207
0.00378389
0.00327384
0.00359612
0.0032739
0.00362464
0.00423935
0.00430103
0.00429777
0.00430485
0.0043021
0.00424223
0.0041914
0.00419724
0.00360904
0.00364893
0.00342038
0.003494
0.00418763
0.0041715
0.00431405
0.00431405
0.00431405
0.00431405
0.004314
0.00431401
0.00431405
0.00431405
0.00431405
0.00431404
0.00431405
0.00431405
0.00431405
0.00431405
0.00431405
0.00431405
0.00431404
0.00431333
0.00431144
0.00430701
0.00430641
0.00428629
0.00429763
0.00431394
0.00431395
0.00430823
0.00427819
0.00427609
0.00429443
0.00428867
0.00429255
0.00431268
0.004314
0.00431405
0.00431405
0.00430483
0.00430756
0.00431343
0.00431398
0.00431385
0.00431403
0.00431254
0.00429106
0.00430359
0.00429986
0.00430579
0.00430514
0.00431095
0.00431209
0.00431209
0.00430977
0.00431387
0.00431389
0.00431285
0.00430702
0.00431393
0.00431394
0.00404643
0.00402159
0.00429153
0.00429258
0.00428117
0.00428014
0.00428381
0.00430893
0.00431211
0.00431209
0.00430967
0.00431207
0.00431208
0.00431208
0.00431207
0.00430907
0.00428163
0.00408533
0.00405921
0.0043106
0.00431365
0.00431363
0.00431364
0.00431404
0.00431404
0.00327529
0.00327998
0.00416709
0.00414659
0.00430893
0.00326704
0.00327101
0.00430396
0.00430571
0.00431381
0.00431397
0.0043139
0.00311127
0.00313456
0.00314348
0.0032646
0.00329877
0.00311741
0.00312533
0.00329343
0.00326351
0.00347491
0.00418387
0.0041771
0.00422155
0.00356525
0.00352629
0.00401414
0.00431405
0.00431405
0.00431405
0.00431373
0.00431388
0.00431398
0.00431402
0.0043135
0.0043136
0.00431405
0.00431405
0.00431404
0.00430987
0.00430958
0.00431182
0.00431308
0.00431208
0.00431155
0.00429094
0.00429383
0.00428487
0.00428668
0.00430322
0.00429911
0.00427726
0.00428127
0.00423272
0.00423347
0.00425588
0.00425281
0.00421709
0.0042353
0.0042375
0.00431278
0.00429406
0.00429821
0.0042862
0.00426224
0.00429555
0.00429164
0.0043111
0.00430954
0.00430278
0.00419658
0.00418239
0.00428173
0.00425383
0.00421443
0.00431404
0.00431403
0.00431343
0.00431322
0.00431163
0.00431244
0.00430257
0.00431291
0.00431334
0.00427242
0.00428388
0.00431233
0.00416415
0.00414742
0.00430338
0.00430538
0.00431398
0.004314
0.00431371
0.0043129
0.00431392
0.00431395
0.00429105
0.00401912
0.00402212
0.00427603
0.00427774
0.00431204
0.00431204
0.00430946
0.00430933
0.00431204
0.00431204
0.00315012
0.00329326
0.00357209
0.00359072
0.00337869
0.00339236
0.00312156
0.00410362
0.00409009
0.00428278
0.00320338
0.00318236
0.00331136
0.00331417
0.00317247
0.00336689
0.00337218
0.00316491
0.00316814
0.0043137
0.00431368
0.00431071
0.00431186
0.00431374
0.00431372
0.0036425
0.00410962
0.00412351
0.00408048
0.00409499
0.00360977
0.004269
0.00430318
0.0043056
0.00430515
0.00430422
0.00427222
0.00422919
0.0042639
0.0042598
0.00419582
0.00418639
0.00420786
0.00335234
0.0033651
0.00337725
0.0032602
0.00407014
0.00364512
0.00358526
0.00370113
0.00366056
0.00402083
0.00402466
0.00402881
0.00420738
0.00422517
0.00429731
0.00431403
0.00431403
0.00431397
0.00323745
0.00324053
0.00361383
0.00361149
0.00315431
0.00332956
0.00326617
0.00326446
0.00325193
0.0032605
0.00334682
0.00297513
0.00417533
0.00418653
0.00431405
0.00431405
0.00431405
0.00430814
0.00430758
0.00431146
0.0043094
0.00431123
0.00431246
0.00431066
0.004311
0.00428761
0.0042969
0.00426716
0.00426988
0.00427047
0.00426728
0.00429484
0.00427467
0.00427368
0.00410906
0.00404465
0.00404396
0.00405672
0.00405393
0.0040983
0.00431167
0.00431301
0.00431306
0.00431284
0.00431296
0.00431133
0.00430055
0.00430986
0.00430439
0.00430251
0.0043098
0.0043121
0.00431212
0.0042812
0.0042818
0.0042907
0.00428154
0.00431213
0.00431212
0.00430886
0.00431206
0.00431206
0.00430963
0.00430913
0.00431206
0.00431206
0.00426913
0.00427871
0.0042748
0.00428205
0.00428078
0.00426806
0.0032854
0.00329401
0.00326367
0.00326422
0.00352106
0.0033663
0.00335545
0.00405235
0.00405359
0.00415235
0.00407608
0.00409142
0.00404846
0.00406
0.00413957
0.004314
0.00431398
0.00431401
0.00431396
0.00431403
0.00431404
0.00431405
0.00431401
0.00431402
0.004314
0.00410245
0.00419548
0.00419009
0.00421027
0.00420261
0.00410833
0.004144
0.00416996
0.00415895
0.0041857
0.00418002
0.00413433
0.00431401
0.00431404
0.00431402
0.00431339
0.00431285
0.00431393
0.00431384
0.00311094
0.00323925
0.00314893
0.00314392
0.00326638
0.0032595
0.00350338
0.00351713
0.00336062
0.00312331
0.00311367
0.00331556
0.00320322
0.00320761
0.00319211
0.00343279
0.00321226
0.00316136
0.0041889
0.00419882
0.00424522
0.00416144
0.00416435
0.00415398
0.00415591
0.00422698
0.00417426
0.00417841
0.00336901
0.00323361
0.00324263
0.00323017
0.00322739
0.0033789
0.00431393
0.00431395
0.00431383
0.00431337
0.00431367
0.00431388
0.00430734
0.00431161
0.00430917
0.00430867
0.0043098
0.00431025
0.00430876
0.00430932
0.00429009
0.00429461
0.00427363
0.00427443
0.00427111
0.0042724
0.00430384
0.00428766
0.00428836
0.00427326
0.00427438
0.00429741
0.00427407
0.00424113
0.00423492
0.00422024
0.00425021
0.00424687
0.00427089
0.00424084
0.00424002
0.00425074
0.00424503
0.00426934
0.00428174
0.00425539
0.0042586
0.00424369
0.00424981
0.00427906
0.00423806
0.0041502
0.00422236
0.004217
0.0040522
0.004059
0.00427329
0.00429888
0.00429724
0.00426963
0.00429056
0.0043053
0.00430146
0.00422023
0.00420769
0.00426754
0.00427038
0.00429474
0.00424709
0.00423382
0.00430728
0.00430936
0.00431274
0.00431064
0.00430463
0.0042961
0.00430413
0.00431314
0.0043136
0.0043137
0.00431316
0.00431335
0.00431241
0.00431131
0.00431214
0.00431369
0.00431329
0.00431313
0.00431372
0.00431339
0.00431378
0.0043129
0.00431292
0.00431234
0.00431303
0.00394572
0.00391834
0.00410479
0.00389291
0.0039175
0.00384108
0.00399518
0.00377086
0.00375069
0.00385347
0.0038372
0.004231
0.00414645
0.00416594
0.00410679
0.0041261
0.0042257
0.00428688
0.00425347
0.00426285
0.00417739
0.0042314
0.00427698
0.00413184
0.00410132
0.00419234
0.00397962
0.00399982
0.00394443
0.00396181
0.00418562
0.00421485
0.00407333
0.00408922
0.00402218
0.00404674
0.00420976
0.00430271
0.00430601
0.00366665
0.00345545
0.00348336
0.00339913
0.00342589
0.00366249
0.00348312
0.00349809
0.00349598
0.00356181
0.00364103
0.00325695
0.00328278
0.00330195
0.00325863
0.00366492
0.00364631
0.00335244
0.00337464
0.00330973
0.00333233
0.00364095
0.00362392
0.00360645
0.00370316
0.00367874
0.0034539
0.00343365
0.00354054
0.00352466
0.00427802
0.00427849
0.00430951
0.00431205
0.00431205
0.00431205
0.00431205
0.00430928
0.0031592
0.00350575
0.00354508
0.00326603
0.0031199
0.0034187
0.0034595
0.00324801
0.00322496
0.00382999
0.00347037
0.00347386
0.00378313
0.00343797
0.00337284
0.00347471
0.00346602
0.00380497
0.00329949
0.00327264
0.00332728
0.00335476
0.0031908
0.00320259
0.00326744
0.00427497
0.00429329
0.0042918
0.00429548
0.00429442
0.00427633
0.00425606
0.00426066
0.0042608
0.00425217
0.00425228
0.00425585
0.00426146
0.004285
0.00428329
0.00428973
0.00428729
0.00426452
0.00325705
0.00336869
0.00337951
0.00335394
0.00336121
0.00326418
0.0033022
0.00345612
0.00348368
0.00339778
0.00342496
0.0032695
0.00326776
0.00321689
0.00323078
0.00320985
0.00321214
0.00327781
0.00332542
0.00334366
0.00325717
0.00329128
0.00327423
0.00427011
0.00426743
0.00423564
0.00419027
0.00420386
0.00331112
0.00333802
0.00344883
0.00328637
0.00325095
0.00334218
0.00332176
0.00347464
0.00326499
0.00326465
0.00403342
0.00403924
0.00431405
0.00431405
0.00431405
0.00431405
0.00431405
0.00431405
0.00431405
0.00431405
0.00431405
0.00431405
0.00431405
0.00431405
0.00431405
0.00431405
0.00431405
0.00431405
0.00431405
0.00431405
0.00431405
0.00431405
0.00431405
0.00431405
0.00431405
0.00431405
0.00431405
0.00431405
0.00431405
0.00431405
0.00431405
0.00431405
0.00431405
0.00431405
0.00431405
0.00431405
0.00431405
0.00431405
0.00431405
0.00431405
0.00431405
0.00431405
0.00431405
0.00431405
0.00431405
0.00431405
0.00431405
0.00431405
0.00431405
0.00431405
0.00431405
0.00431405
0.00431405
0.00431405
0.00431405
0.00431405
0.00431405
0.00431405
0.00431405
0.00431405
0.00431405
0.00431405
0.00431405
0.00431405
0.00431405
0.00431405
0.00431405
0.00431405
0.00431405
0.00431405
0.00431405
0.00431405
0.00431405
0.00431405
0.00431405
0.00431405
0.00431405
0.00431405
0.00431405
0.00431405
0.00431405
0.00431405
0.00431405
0.00431405
0.00431405
0.00431405
0.00431405
0.00431403
0.00431403
0.00431405
0.00431405
0.00431405
0.00431405
0.00431405
0.00431405
0.00431405
0.00431405
0.00431405
0.00431405
0.00431405
0.00431405
0.00431405
0.00431403
0.00431403
0.00431405
0.00431405
0.00431405
0.00431405
0.00431405
0.00431405
0.00431405
0.00431405
0.00431405
0.00431405
0.00431404
0.00431404
0.00431405
0.00431405
0.00431405
0.00431405
0.00431405
0.00431405
0.00431405
0.00431405
0.00431405
0.00431405
0.00431405
0.00431405
0.00431405
0.00431405
0.00431405
0.00431405
0.00431405
0.00431405
0.00431405
0.00431405
0.00431405
0.00431405
0.00431283
0.00431281
0.00354708
0.00427313
0.00427691
0.00431405
0.00431405
0.00431405
0.00431405
0.00431405
0.00431405
0.00431405
0.00431405
0.00431405
0.00431405
0.00431405
0.00431405
0.00431402
0.00376079
0.00373957
0.00409985
0.00431405
0.00431405
0.00431405
0.00431405
0.00431405
0.00431405
0.00431405
0.00431405
0.00431405
0.00431404
0.00431405
0.00431083
0.00401527
0.00376704
0.00421209
0.004314
0.00431405
0.00431405
0.00431405
0.00431405
0.00431405
0.00431405
0.00431405
0.00431405
0.00431405
0.00431405
0.00431405
0.00431405
0.00431405
0.00431404
0.00431404
0.00431405
0.00431405
0.00431404
0.00431404
0.00431405
0.00431405
0.00431405
0.00431403
0.00431403
0.00431405
0.00431405
0.00431404
0.00431404
0.00431404
0.00431403
0.00431405
0.00431404
0.00431404
0.00431405
0.00431405
0.00431404
0.00431405
0.00431404
0.00431404
0.00431405
0.00431405
0.00431405
0.00431405
0.00431405
0.00431405
0.00431405
0.00431281
0.00431328
0.00431405
0.00314972
0.00355074
0.00355579
0.00399036
0.00399139
0.00298643
0.00431405
0.00431405
0.00431405
0.00431405
0.00431405
0.00431405
0.00431405
0.00431405
0.00431404
0.00431405
0.00431405
0.00431405
0.00431405
0.00431405
0.00431405
0.00431405
0.00431405
0.00431405
0.00431405
0.00431405
0.00431405
0.00431405
0.00431405
0.00431405
0.00431405
0.00431405
0.00431405
0.00431405
0.00431405
0.00431405
0.00431403
0.004314
0.00431405
0.00431405
0.00431405
0.00431405
0.00431405
0.00431405
0.00431405
0.00431405
0.00431405
0.00431405
0.00431405
0.00431405
0.00431405
0.00431405
0.00431405
0.00431405
0.00431405
0.00431405
0.00431405
0.00431405
0.00431405
0.00431404
0.00431405
0.00431405
0.00431267
0.00431367
0.00431358
0.00431398
0.00431394
0.00431362
0.00431329
0.00431287
0.00431356
0.00431405
0.00431405
0.00431405
0.00431405
0.00431405
0.00431405
0.00431405
0.00431405
0.00431405
0.00431405
0.00431405
0.00431405
0.00431405
0.00431405
0.00431405
0.00431405
0.00431405
0.00431405
0.00431403
0.00431403
0.00431405
0.0043065
0.00431216
0.00431217
0.00431242
0.00431233
0.00430731
0.00431405
0.00431405
0.00431405
0.00431405
0.00431405
0.00431405
0.00431405
0.00431405
0.00431405
0.00431405
0.00431405
0.00431405
0.00431405
0.00431405
0.00431405
0.00431405
0.00431405
0.00431405
0.00431403
0.00431403
0.00431405
0.00430843
0.00431396
0.00431397
0.00431243
0.00431248
0.00430787
0.00430591
0.00429139
0.00429336
0.00431405
0.00431405
0.00431405
0.00431405
0.00431405
0.00431405
0.00431405
0.00431405
0.00431405
0.00431258
0.00430323
0.00430548
0.00430885
0.00430925
0.00431246
0.00431405
0.00431405
0.00431405
0.00431405
0.00431405
0.00431405
0.00431405
0.00431405
0.00431405
0.00431371
0.00431273
0.00431283
0.00431181
0.00431201
0.00431353
0.00431334
0.00431283
0.00431404
0.00347652
0.00429948
0.00429877
0.00404277
0.0040468
0.00329483
0.00431295
0.00431283
0.00385302
0.00431405
0.00431397
0.00431401
0.00431401
0.00431397
0.00431405
0.00431391
0.00431402
0.004314
0.00431405
0.00431405
0.00431402
0.00431405
0.00431405
0.00431405
0.00431402
0.0043136
0.00431396
0.00431405
0.00431405
0.00431405
0.00431401
0.00431404
0.00431405
0.0043138
0.00431352
0.00431345
0.00431404
0.00431403
0.00431404
0.00431405
0.00431405
0.00431405
0.00431404
0.00431405
0.00431405
0.00431403
0.00431403
0.00431399
0.00430859
0.00431266
0.00431253
0.00431348
0.00431335
0.00431136
0.00431405
0.00431404
0.00431404
0.00430596
0.00429477
0.00429781
0.00425949
0.00426095
0.00429141
0.00429977
0.00430114
0.00430841
0.00431404
0.00431404
0.00431405
0.00431253
0.0043133
0.00431337
0.00431375
0.00431401
0.00431402
0.00431342
0.00431346
0.00431278
0.00431405
0.00431405
0.00431404
0.00430732
0.00431235
0.00431239
0.00431218
0.0043122
0.00430669
0.00431405
0.00431403
0.00431403
0.00428628
0.00424851
0.00424704
0.00426351
0.00426206
0.00429264
0.00428917
0.00425674
0.0042581
0.00424604
0.00424544
0.00428497
0.00431403
0.00431404
0.00431405
0.00431275
0.0043127