# Force coefficients
# liftDir    : (2.588200e-01 9.659300e-01 0.000000e+00)
# dragDir    : (9.659300e-01 2.588200e-01 0.000000e+00)
# pitchAxis  : (0.000000e+00 1.000000e+00 0.000000e+00)
# magUInf    : 1.500000e+01
# lRef       : 5.000000e-01
# Aref       : 4.000000e-01
# CofR       : (0.000000e+00 0.000000e+00 0.000000e+00)
# Time       	Cm           	Cd           	Cl           	Cl(f)        	Cl(r)        
100          	-6.030480e-03	3.286983e-02	1.418896e-01	6.491430e-02	7.697526e-02
200          	-1.132574e-02	3.077891e-02	1.509608e-01	6.415464e-02	8.680612e-02
300          	-1.298336e-02	2.929730e-02	1.507137e-01	6.237351e-02	8.834023e-02
400          	-1.330829e-02	2.844148e-02	1.485552e-01	6.096933e-02	8.758591e-02
500          	-1.323573e-02	2.780138e-02	1.459351e-01	5.973182e-02	8.620328e-02
600          	-1.308134e-02	2.728791e-02	1.435268e-01	5.868207e-02	8.484474e-02
700          	-1.295949e-02	2.695077e-02	1.418803e-01	5.798066e-02	8.389964e-02
800          	-1.289682e-02	2.681665e-02	1.411800e-01	5.769320e-02	8.348683e-02
900          	-1.289149e-02	2.681236e-02	1.411471e-01	5.768203e-02	8.346502e-02
1000         	-1.292348e-02	2.684814e-02	1.413825e-01	5.776778e-02	8.361474e-02
1100         	-1.296702e-02	2.688461e-02	1.416574e-01	5.786167e-02	8.379572e-02
1200         	-1.300749e-02	2.691274e-02	1.418913e-01	5.793817e-02	8.395316e-02
1300         	-1.303940e-02	2.693251e-02	1.420668e-01	5.799399e-02	8.407278e-02
1400         	-1.306227e-02	2.694502e-02	1.421864e-01	5.803091e-02	8.415545e-02
1500         	-1.307777e-02	2.695159e-02	1.422603e-01	5.805238e-02	8.420791e-02
1600         	-1.308752e-02	2.695444e-02	1.423020e-01	5.806347e-02	8.423850e-02
1700         	-1.309275e-02	2.695472e-02	1.423197e-01	5.806710e-02	8.425261e-02
1800         	-1.309607e-02	2.695480e-02	1.423306e-01	5.806923e-02	8.426137e-02
1900         	-1.309826e-02	2.695458e-02	1.423367e-01	5.807010e-02	8.426662e-02
2000         	-1.309970e-02	2.695437e-02	1.423405e-01	5.807057e-02	8.426997e-02
2100         	-1.310063e-02	2.695418e-02	1.423428e-01	5.807077e-02	8.427203e-02
2200         	-1.310126e-02	2.695399e-02	1.423441e-01	5.807079e-02	8.427332e-02
2300         	-1.310166e-02	2.695385e-02	1.423448e-01	5.807076e-02	8.427407e-02
2400         	-1.310190e-02	2.695371e-02	1.423451e-01	5.807065e-02	8.427446e-02
2500         	-1.310212e-02	2.695355e-02	1.423452e-01	5.807048e-02	8.427472e-02
2600         	-1.310225e-02	2.695345e-02	1.423452e-01	5.807037e-02	8.427486e-02
2700         	-1.310233e-02	2.695340e-02	1.423453e-01	5.807032e-02	8.427498e-02
2800         	-1.310238e-02	2.695337e-02	1.423453e-01	5.807029e-02	8.427506e-02
2900         	-1.310242e-02	2.695335e-02	1.423454e-01	5.807027e-02	8.427511e-02
3000         	-1.310244e-02	2.695332e-02	1.423454e-01	5.807024e-02	8.427513e-02
3100         	-1.310245e-02	2.695330e-02	1.423453e-01	5.807021e-02	8.427512e-02
3200         	-1.310246e-02	2.695328e-02	1.423453e-01	5.807017e-02	8.427508e-02
3300         	-1.310246e-02	2.695327e-02	1.423452e-01	5.807016e-02	8.427507e-02
3400         	-1.310246e-02	2.695325e-02	1.423452e-01	5.807013e-02	8.427504e-02
3500         	-1.310245e-02	2.695325e-02	1.423451e-01	5.807011e-02	8.427500e-02
3600         	-1.310243e-02	2.695325e-02	1.423451e-01	5.807010e-02	8.427496e-02
3700         	-1.310243e-02	2.695324e-02	1.423450e-01	5.807008e-02	8.427494e-02
3800         	-1.310242e-02	2.695323e-02	1.423450e-01	5.807006e-02	8.427491e-02
3900         	-1.310242e-02	2.695323e-02	1.423450e-01	5.807006e-02	8.427489e-02
4000         	-1.310241e-02	2.695324e-02	1.423450e-01	5.807007e-02	8.427490e-02
4100         	-1.310241e-02	2.695321e-02	1.423449e-01	5.807002e-02	8.427483e-02
4200         	-1.310240e-02	2.695323e-02	1.423449e-01	5.807005e-02	8.427486e-02
4300         	-1.310240e-02	2.695323e-02	1.423449e-01	5.807004e-02	8.427485e-02
4400         	-1.310240e-02	2.695323e-02	1.423449e-01	5.807005e-02	8.427485e-02
4500         	-1.310241e-02	2.695322e-02	1.423449e-01	5.807003e-02	8.427485e-02
4600         	-1.310240e-02	2.695323e-02	1.423449e-01	5.807004e-02	8.427485e-02
4700         	-1.310239e-02	2.695323e-02	1.423448e-01	5.807004e-02	8.427481e-02
4800         	-1.310240e-02	2.695323e-02	1.423449e-01	5.807004e-02	8.427483e-02
4900         	-1.310239e-02	2.695323e-02	1.423449e-01	5.807003e-02	8.427482e-02
5000         	-1.310239e-02	2.695322e-02	1.423449e-01	5.807003e-02	8.427482e-02
5100         	-1.310239e-02	2.695324e-02	1.423449e-01	5.807007e-02	8.427485e-02
5200         	-1.310240e-02	2.695325e-02	1.423450e-01	5.807009e-02	8.427488e-02
5300         	-1.310239e-02	2.695323e-02	1.423449e-01	5.807004e-02	8.427482e-02
5400         	-1.310239e-02	2.695323e-02	1.423449e-01	5.807003e-02	8.427482e-02
5500         	-1.310239e-02	2.695323e-02	1.423449e-01	5.807003e-02	8.427482e-02
5600         	-1.310240e-02	2.695322e-02	1.423449e-01	5.807004e-02	8.427485e-02
5700         	-1.310239e-02	2.695324e-02	1.423449e-01	5.807006e-02	8.427484e-02
5800         	-1.310239e-02	2.695323e-02	1.423449e-01	5.807004e-02	8.427482e-02
5900         	-1.310240e-02	2.695322e-02	1.423448e-01	5.807002e-02	8.427482e-02
6000         	-1.310239e-02	2.695325e-02	1.423449e-01	5.807008e-02	8.427486e-02
6100         	-1.310239e-02	2.695322e-02	1.423448e-01	5.807002e-02	8.427480e-02
6200         	-1.310240e-02	2.695323e-02	1.423449e-01	5.807004e-02	8.427483e-02
6300         	-1.310239e-02	2.695323e-02	1.423449e-01	5.807005e-02	8.427482e-02
6400         	-1.310239e-02	2.695324e-02	1.423449e-01	5.807005e-02	8.427484e-02
6500         	-1.310240e-02	2.695323e-02	1.423449e-01	5.807005e-02	8.427484e-02
6600         	-1.310238e-02	2.695324e-02	1.423449e-01	5.807005e-02	8.427482e-02
6700         	-1.310239e-02	2.695322e-02	1.423448e-01	5.807003e-02	8.427482e-02
6800         	-1.310239e-02	2.695323e-02	1.423449e-01	5.807004e-02	8.427482e-02
6900         	-1.310239e-02	2.695322e-02	1.423449e-01	5.807003e-02	8.427482e-02
7000         	-1.310239e-02	2.695324e-02	1.423449e-01	5.807005e-02	8.427484e-02
7100         	-1.310240e-02	2.695322e-02	1.423449e-01	5.807003e-02	8.427483e-02
7200         	-1.310241e-02	2.695320e-02	1.423448e-01	5.807000e-02	8.427482e-02
