# Force coefficients
# liftDir    : (0.000000e+00 1.000000e+00 0.000000e+00)
# dragDir    : (1.000000e+00 0.000000e+00 0.000000e+00)
# pitchAxis  : (0.000000e+00 0.000000e+00 1.000000e+00)
# magUInf    : 4.500000e+01
# lRef       : 1.000000e+00
# Aref       : 4.500000e-02
# CofR       : (0.000000e+00 0.000000e+00 0.000000e+00)
# Time       	Cm           	Cd           	Cl           	Cl(f)        	Cl(r)        
100          	4.956067e-04	2.265340e-05	1.142000e-03	1.066607e-03	7.539321e-05
200          	4.918973e-04	2.007825e-05	1.140899e-03	1.062347e-03	7.855235e-05
300          	4.904752e-04	1.943658e-05	1.140164e-03	1.060557e-03	7.960695e-05
400          	4.940464e-04	1.944263e-05	1.147911e-03	1.068002e-03	7.990904e-05
500          	4.955844e-04	1.948096e-05	1.153777e-03	1.072473e-03	8.130408e-05
600          	4.995714e-04	1.948176e-05	1.162340e-03	1.080741e-03	8.159862e-05
