# Forces     
# CofR       : (0.000000e+00 0.000000e+00 0.000000e+00)
# Time       forces(pressure viscous porous)	moments(pressure viscous porous)
100          	((-3.940567e-01 8.174800e+00 -2.911003e-19) (7.745649e-02 7.578633e-03 -3.166445e-23) (0.000000e+00 0.000000e+00 0.000000e+00)) ((-4.291770e+00 -2.068798e-01 2.631075e+00) (-3.978783e-03 4.066466e-02 3.588083e-05) (0.000000e+00 0.000000e+00 0.000000e+00))
200          	((-6.699676e-01 8.764089e+00 -4.592169e-19) (7.536639e-02 1.046705e-02 4.975049e-23) (0.000000e+00 0.000000e+00 0.000000e+00)) ((-4.601147e+00 -3.517330e-01 2.668091e+00) (-5.495204e-03 3.956735e-02 7.774642e-04) (0.000000e+00 0.000000e+00 0.000000e+00))
300          	((-7.550835e-01 8.771972e+00 -5.069668e-19) (7.345718e-02 1.180398e-02 6.277917e-23) (0.000000e+00 0.000000e+00 0.000000e+00)) ((-4.605286e+00 -3.964188e-01 2.621306e+00) (-6.197091e-03 3.856502e-02 1.188311e-03) (0.000000e+00 0.000000e+00 0.000000e+00))
400          	((-7.701583e-01 8.652823e+00 -5.191145e-19) (7.147321e-02 1.234017e-02 6.494560e-23) (0.000000e+00 0.000000e+00 0.000000e+00)) ((-4.542732e+00 -4.043331e-01 2.555105e+00) (-6.478590e-03 3.752344e-02 1.359876e-03) (0.000000e+00 0.000000e+00 0.000000e+00))
500          	((-7.646538e-01 8.502171e+00 -5.218777e-19) (6.977802e-02 1.244237e-02 6.360062e-23) (0.000000e+00 0.000000e+00 0.000000e+00)) ((-4.463640e+00 -4.014432e-01 2.479780e+00) (-6.532246e-03 3.663346e-02 1.342698e-03) (0.000000e+00 0.000000e+00 0.000000e+00))
600          	((-7.553080e-01 8.362648e+00 -5.192950e-19) (6.853793e-02 1.235344e-02 6.189330e-23) (0.000000e+00 0.000000e+00 0.000000e+00)) ((-4.390390e+00 -3.965367e-01 2.408891e+00) (-6.485554e-03 3.598241e-02 1.246868e-03) (0.000000e+00 0.000000e+00 0.000000e+00))
700          	((-7.482068e-01 8.267090e+00 -5.144539e-19) (6.783357e-02 1.223210e-02 6.087821e-23) (0.000000e+00 0.000000e+00 0.000000e+00)) ((-4.340222e+00 -3.928086e-01 2.358882e+00) (-6.421853e-03 3.561262e-02 1.156440e-03) (0.000000e+00 0.000000e+00 0.000000e+00))
800          	((-7.446253e-01 8.226332e+00 -5.102659e-19) (6.754249e-02 1.214394e-02 6.046228e-23) (0.000000e+00 0.000000e+00 0.000000e+00)) ((-4.318825e+00 -3.909283e-01 2.336616e+00) (-6.375567e-03 3.545981e-02 1.098205e-03) (0.000000e+00 0.000000e+00 0.000000e+00))
900          	((-7.442715e-01 8.224422e+00 -5.081149e-19) (6.746810e-02 1.209771e-02 6.043080e-23) (0.000000e+00 0.000000e+00 0.000000e+00)) ((-4.317822e+00 -3.907425e-01 2.333738e+00) (-6.351298e-03 3.542075e-02 1.066414e-03) (0.000000e+00 0.000000e+00 0.000000e+00))
1000         	((-7.459614e-01 8.238326e+00 -5.076844e-19) (6.747851e-02 1.208174e-02 6.064319e-23) (0.000000e+00 0.000000e+00 0.000000e+00)) ((-4.325121e+00 -3.916297e-01 2.338321e+00) (-6.342911e-03 3.542622e-02 1.050215e-03) (0.000000e+00 0.000000e+00 0.000000e+00))
1100         	((-7.482819e-01 8.254626e+00 -5.081002e-19) (6.751316e-02 1.208114e-02 6.094176e-23) (0.000000e+00 0.000000e+00 0.000000e+00)) ((-4.333679e+00 -3.928480e-01 2.344181e+00) (-6.342601e-03 3.544441e-02 1.041722e-03) (0.000000e+00 0.000000e+00 0.000000e+00))
1200         	((-7.504335e-01 8.268540e+00 -5.087428e-19) (6.754025e-02 1.208675e-02 6.122871e-23) (0.000000e+00 0.000000e+00 0.000000e+00)) ((-4.340984e+00 -3.939776e-01 2.349251e+00) (-6.345545e-03 3.545863e-02 1.037300e-03) (0.000000e+00 0.000000e+00 0.000000e+00))
1300         	((-7.521223e-01 8.278995e+00 -5.093546e-19) (6.755397e-02 1.209353e-02 6.145839e-23) (0.000000e+00 0.000000e+00 0.000000e+00)) ((-4.346472e+00 -3.948642e-01 2.353081e+00) (-6.349102e-03 3.546583e-02 1.034787e-03) (0.000000e+00 0.000000e+00 0.000000e+00))
1400         	((-7.533269e-01 8.286135e+00 -5.098445e-19) (6.755758e-02 1.209934e-02 6.162335e-23) (0.000000e+00 0.000000e+00 0.000000e+00)) ((-4.350221e+00 -3.954966e-01 2.355667e+00) (-6.352152e-03 3.546773e-02 1.033018e-03) (0.000000e+00 0.000000e+00 0.000000e+00))
1500         	((-7.541372e-01 8.290568e+00 -5.101983e-19) (6.755453e-02 1.210343e-02 6.173631e-23) (0.000000e+00 0.000000e+00 0.000000e+00)) ((-4.352548e+00 -3.959220e-01 2.357209e+00) (-6.354300e-03 3.546613e-02 1.031568e-03) (0.000000e+00 0.000000e+00 0.000000e+00))
1600         	((-7.546412e-01 8.293082e+00 -5.104240e-19) (6.754663e-02 1.210582e-02 6.180892e-23) (0.000000e+00 0.000000e+00 0.000000e+00)) ((-4.353868e+00 -3.961866e-01 2.358047e+00) (-6.355558e-03 3.546198e-02 1.030454e-03) (0.000000e+00 0.000000e+00 0.000000e+00))
1700         	((-7.549090e-01 8.294167e+00 -5.105392e-19) (6.753953e-02 1.210694e-02 6.184865e-23) (0.000000e+00 0.000000e+00 0.000000e+00)) ((-4.354438e+00 -3.963272e-01 2.358327e+00) (-6.356143e-03 3.545826e-02 1.029688e-03) (0.000000e+00 0.000000e+00 0.000000e+00))
1800         	((-7.550778e-01 8.294834e+00 -5.106207e-19) (6.753414e-02 1.210766e-02 6.187567e-23) (0.000000e+00 0.000000e+00 0.000000e+00)) ((-4.354788e+00 -3.964158e-01 2.358495e+00) (-6.356521e-03 3.545542e-02 1.029175e-03) (0.000000e+00 0.000000e+00 0.000000e+00))
1900         	((-7.551881e-01 8.295214e+00 -5.106710e-19) (6.752956e-02 1.210808e-02 6.189366e-23) (0.000000e+00 0.000000e+00 0.000000e+00)) ((-4.354987e+00 -3.964738e-01 2.358576e+00) (-6.356745e-03 3.545302e-02 1.028797e-03) (0.000000e+00 0.000000e+00 0.000000e+00))
2000         	((-7.552601e-01 8.295452e+00 -5.107029e-19) (6.752582e-02 1.210835e-02 6.190592e-23) (0.000000e+00 0.000000e+00 0.000000e+00)) ((-4.355112e+00 -3.965115e-01 2.358618e+00) (-6.356881e-03 3.545106e-02 1.028494e-03) (0.000000e+00 0.000000e+00 0.000000e+00))
2100         	((-7.553061e-01 8.295594e+00 -5.107231e-19) (6.752299e-02 1.210852e-02 6.191405e-23) (0.000000e+00 0.000000e+00 0.000000e+00)) ((-4.355187e+00 -3.965357e-01 2.358636e+00) (-6.356971e-03 3.544957e-02 1.028229e-03) (0.000000e+00 0.000000e+00 0.000000e+00))
2200         	((-7.553373e-01 8.295678e+00 -5.107357e-19) (6.752092e-02 1.210859e-02 6.191956e-23) (0.000000e+00 0.000000e+00 0.000000e+00)) ((-4.355231e+00 -3.965521e-01 2.358640e+00) (-6.357008e-03 3.544848e-02 1.028033e-03) (0.000000e+00 0.000000e+00 0.000000e+00))
2300         	((-7.553562e-01 8.295724e+00 -5.107447e-19) (6.751922e-02 1.210861e-02 6.192333e-23) (0.000000e+00 0.000000e+00 0.000000e+00)) ((-4.355255e+00 -3.965620e-01 2.358637e+00) (-6.357023e-03 3.544759e-02 1.027860e-03) (0.000000e+00 0.000000e+00 0.000000e+00))
2400         	((-7.553680e-01 8.295743e+00 -5.107486e-19) (6.751819e-02 1.210860e-02 6.192565e-23) (0.000000e+00 0.000000e+00 0.000000e+00)) ((-4.355265e+00 -3.965682e-01 2.358630e+00) (-6.357017e-03 3.544705e-02 1.027732e-03) (0.000000e+00 0.000000e+00 0.000000e+00))
2500         	((-7.553790e-01 8.295752e+00 -5.107527e-19) (6.751748e-02 1.210860e-02 6.192777e-23) (0.000000e+00 0.000000e+00 0.000000e+00)) ((-4.355270e+00 -3.965740e-01 2.358623e+00) (-6.357013e-03 3.544668e-02 1.027686e-03) (0.000000e+00 0.000000e+00 0.000000e+00))
2600         	((-7.553849e-01 8.295755e+00 -5.107545e-19) (6.751694e-02 1.210859e-02 6.192895e-23) (0.000000e+00 0.000000e+00 0.000000e+00)) ((-4.355272e+00 -3.965771e-01 2.358616e+00) (-6.357009e-03 3.544639e-02 1.027653e-03) (0.000000e+00 0.000000e+00 0.000000e+00))
2700         	((-7.553886e-01 8.295761e+00 -5.107558e-19) (6.751624e-02 1.210857e-02 6.193000e-23) (0.000000e+00 0.000000e+00 0.000000e+00)) ((-4.355274e+00 -3.965790e-01 2.358613e+00) (-6.356997e-03 3.544602e-02 1.027589e-03) (0.000000e+00 0.000000e+00 0.000000e+00))
2800         	((-7.553911e-01 8.295764e+00 -5.107567e-19) (6.751596e-02 1.210856e-02 6.193058e-23) (0.000000e+00 0.000000e+00 0.000000e+00)) ((-4.355276e+00 -3.965803e-01 2.358611e+00) (-6.356995e-03 3.544588e-02 1.027575e-03) (0.000000e+00 0.000000e+00 0.000000e+00))
2900         	((-7.553926e-01 8.295766e+00 -5.107573e-19) (6.751576e-02 1.210856e-02 6.193097e-23) (0.000000e+00 0.000000e+00 0.000000e+00)) ((-4.355277e+00 -3.965811e-01 2.358610e+00) (-6.356994e-03 3.544577e-02 1.027565e-03) (0.000000e+00 0.000000e+00 0.000000e+00))
3000         	((-7.553939e-01 8.295766e+00 -5.107577e-19) (6.751561e-02 1.210856e-02 6.193123e-23) (0.000000e+00 0.000000e+00 0.000000e+00)) ((-4.355277e+00 -3.965818e-01 2.358608e+00) (-6.356993e-03 3.544569e-02 1.027560e-03) (0.000000e+00 0.000000e+00 0.000000e+00))
3100         	((-7.553943e-01 8.295763e+00 -5.107580e-19) (6.751550e-02 1.210856e-02 6.193141e-23) (0.000000e+00 0.000000e+00 0.000000e+00)) ((-4.355276e+00 -3.965820e-01 2.358606e+00) (-6.356993e-03 3.544564e-02 1.027557e-03) (0.000000e+00 0.000000e+00 0.000000e+00))
3200         	((-7.553945e-01 8.295759e+00 -5.107581e-19) (6.751542e-02 1.210856e-02 6.193149e-23) (0.000000e+00 0.000000e+00 0.000000e+00)) ((-4.355274e+00 -3.965821e-01 2.358604e+00) (-6.356993e-03 3.544560e-02 1.027555e-03) (0.000000e+00 0.000000e+00 0.000000e+00))
3300         	((-7.553944e-01 8.295758e+00 -5.107579e-19) (6.751537e-02 1.210856e-02 6.193153e-23) (0.000000e+00 0.000000e+00 0.000000e+00)) ((-4.355273e+00 -3.965820e-01 2.358603e+00) (-6.356992e-03 3.544557e-02 1.027554e-03) (0.000000e+00 0.000000e+00 0.000000e+00))
3400         	((-7.553944e-01 8.295755e+00 -5.107579e-19) (6.751534e-02 1.210856e-02 6.193153e-23) (0.000000e+00 0.000000e+00 0.000000e+00)) ((-4.355271e+00 -3.965821e-01 2.358601e+00) (-6.356991e-03 3.544555e-02 1.027554e-03) (0.000000e+00 0.000000e+00 0.000000e+00))
3500         	((-7.553937e-01 8.295751e+00 -5.107579e-19) (6.751531e-02 1.210855e-02 6.193151e-23) (0.000000e+00 0.000000e+00 0.000000e+00)) ((-4.355269e+00 -3.965817e-01 2.358600e+00) (-6.356991e-03 3.544554e-02 1.027554e-03) (0.000000e+00 0.000000e+00 0.000000e+00))
3600         	((-7.553928e-01 8.295748e+00 -5.107579e-19) (6.751529e-02 1.210855e-02 6.193149e-23) (0.000000e+00 0.000000e+00 0.000000e+00)) ((-4.355267e+00 -3.965812e-01 2.358598e+00) (-6.356990e-03 3.544553e-02 1.027554e-03) (0.000000e+00 0.000000e+00 0.000000e+00))
3700         	((-7.553928e-01 8.295746e+00 -5.107576e-19) (6.751528e-02 1.210855e-02 6.193146e-23) (0.000000e+00 0.000000e+00 0.000000e+00)) ((-4.355266e+00 -3.965812e-01 2.358598e+00) (-6.356990e-03 3.544552e-02 1.027554e-03) (0.000000e+00 0.000000e+00 0.000000e+00))
3800         	((-7.553925e-01 8.295743e+00 -5.107575e-19) (6.751528e-02 1.210855e-02 6.193143e-23) (0.000000e+00 0.000000e+00 0.000000e+00)) ((-4.355265e+00 -3.965810e-01 2.358596e+00) (-6.356989e-03 3.544552e-02 1.027554e-03) (0.000000e+00 0.000000e+00 0.000000e+00))
3900         	((-7.553921e-01 8.295742e+00 -5.107574e-19) (6.751528e-02 1.210855e-02 6.193140e-23) (0.000000e+00 0.000000e+00 0.000000e+00)) ((-4.355264e+00 -3.965808e-01 2.358596e+00) (-6.356989e-03 3.544552e-02 1.027554e-03) (0.000000e+00 0.000000e+00 0.000000e+00))
4000         	((-7.553919e-01 8.295743e+00 -5.107572e-19) (6.751527e-02 1.210855e-02 6.193137e-23) (0.000000e+00 0.000000e+00 0.000000e+00)) ((-4.355265e+00 -3.965808e-01 2.358597e+00) (-6.356988e-03 3.544552e-02 1.027555e-03) (0.000000e+00 0.000000e+00 0.000000e+00))
4100         	((-7.553916e-01 8.295736e+00 -5.107571e-19) (6.751527e-02 1.210855e-02 6.193135e-23) (0.000000e+00 0.000000e+00 0.000000e+00)) ((-4.355261e+00 -3.965806e-01 2.358594e+00) (-6.356988e-03 3.544552e-02 1.027555e-03) (0.000000e+00 0.000000e+00 0.000000e+00))
4200         	((-7.553913e-01 8.295739e+00 -5.107572e-19) (6.751528e-02 1.210855e-02 6.193133e-23) (0.000000e+00 0.000000e+00 0.000000e+00)) ((-4.355263e+00 -3.965804e-01 2.358596e+00) (-6.356988e-03 3.544552e-02 1.027555e-03) (0.000000e+00 0.000000e+00 0.000000e+00))
4300         	((-7.553914e-01 8.295738e+00 -5.107571e-19) (6.751528e-02 1.210855e-02 6.193132e-23) (0.000000e+00 0.000000e+00 0.000000e+00)) ((-4.355262e+00 -3.965805e-01 2.358595e+00) (-6.356988e-03 3.544552e-02 1.027555e-03) (0.000000e+00 0.000000e+00 0.000000e+00))
4400         	((-7.553915e-01 8.295738e+00 -5.107568e-19) (6.751528e-02 1.210855e-02 6.193130e-23) (0.000000e+00 0.000000e+00 0.000000e+00)) ((-4.355263e+00 -3.965805e-01 2.358595e+00) (-6.356987e-03 3.544552e-02 1.027555e-03) (0.000000e+00 0.000000e+00 0.000000e+00))
4500         	((-7.553919e-01 8.295738e+00 -5.107570e-19) (6.751528e-02 1.210855e-02 6.193129e-23) (0.000000e+00 0.000000e+00 0.000000e+00)) ((-4.355262e+00 -3.965807e-01 2.358595e+00) (-6.356987e-03 3.544552e-02 1.027555e-03) (0.000000e+00 0.000000e+00 0.000000e+00))
4600         	((-7.553915e-01 8.295738e+00 -5.107570e-19) (6.751528e-02 1.210855e-02 6.193129e-23) (0.000000e+00 0.000000e+00 0.000000e+00)) ((-4.355262e+00 -3.965805e-01 2.358595e+00) (-6.356987e-03 3.544552e-02 1.027555e-03) (0.000000e+00 0.000000e+00 0.000000e+00))
4700         	((-7.553905e-01 8.295735e+00 -5.107570e-19) (6.751528e-02 1.210855e-02 6.193128e-23) (0.000000e+00 0.000000e+00 0.000000e+00)) ((-4.355261e+00 -3.965800e-01 2.358594e+00) (-6.356987e-03 3.544552e-02 1.027555e-03) (0.000000e+00 0.000000e+00 0.000000e+00))
4800         	((-7.553911e-01 8.295737e+00 -5.107569e-19) (6.751528e-02 1.210855e-02 6.193127e-23) (0.000000e+00 0.000000e+00 0.000000e+00)) ((-4.355262e+00 -3.965803e-01 2.358594e+00) (-6.356987e-03 3.544552e-02 1.027556e-03) (0.000000e+00 0.000000e+00 0.000000e+00))
4900         	((-7.553910e-01 8.295736e+00 -5.107569e-19) (6.751528e-02 1.210855e-02 6.193127e-23) (0.000000e+00 0.000000e+00 0.000000e+00)) ((-4.355261e+00 -3.965803e-01 2.358594e+00) (-6.356987e-03 3.544552e-02 1.027556e-03) (0.000000e+00 0.000000e+00 0.000000e+00))
5000         	((-7.553910e-01 8.295736e+00 -5.107569e-19) (6.751528e-02 1.210855e-02 6.193127e-23) (0.000000e+00 0.000000e+00 0.000000e+00)) ((-4.355261e+00 -3.965803e-01 2.358594e+00) (-6.356987e-03 3.544552e-02 1.027556e-03) (0.000000e+00 0.000000e+00 0.000000e+00))
5100         	((-7.553910e-01 8.295739e+00 -5.107570e-19) (6.751528e-02 1.210855e-02 6.193126e-23) (0.000000e+00 0.000000e+00 0.000000e+00)) ((-4.355263e+00 -3.965802e-01 2.358596e+00) (-6.356987e-03 3.544552e-02 1.027556e-03) (0.000000e+00 0.000000e+00 0.000000e+00))
5200         	((-7.553911e-01 8.295742e+00 -5.107570e-19) (6.751528e-02 1.210855e-02 6.193126e-23) (0.000000e+00 0.000000e+00 0.000000e+00)) ((-4.355265e+00 -3.965803e-01 2.358598e+00) (-6.356987e-03 3.544552e-02 1.027556e-03) (0.000000e+00 0.000000e+00 0.000000e+00))
5300         	((-7.553910e-01 8.295736e+00 -5.107569e-19) (6.751528e-02 1.210855e-02 6.193126e-23) (0.000000e+00 0.000000e+00 0.000000e+00)) ((-4.355261e+00 -3.965803e-01 2.358594e+00) (-6.356987e-03 3.544552e-02 1.027556e-03) (0.000000e+00 0.000000e+00 0.000000e+00))
5400         	((-7.553909e-01 8.295736e+00 -5.107569e-19) (6.751528e-02 1.210855e-02 6.193126e-23) (0.000000e+00 0.000000e+00 0.000000e+00)) ((-4.355261e+00 -3.965802e-01 2.358594e+00) (-6.356987e-03 3.544552e-02 1.027556e-03) (0.000000e+00 0.000000e+00 0.000000e+00))
5500         	((-7.553909e-01 8.295736e+00 -5.107570e-19) (6.751528e-02 1.210855e-02 6.193126e-23) (0.000000e+00 0.000000e+00 0.000000e+00)) ((-4.355261e+00 -3.965802e-01 2.358594e+00) (-6.356987e-03 3.544552e-02 1.027556e-03) (0.000000e+00 0.000000e+00 0.000000e+00))
5600         	((-7.553915e-01 8.295738e+00 -5.107567e-19) (6.751528e-02 1.210855e-02 6.193126e-23) (0.000000e+00 0.000000e+00 0.000000e+00)) ((-4.355262e+00 -3.965806e-01 2.358595e+00) (-6.356987e-03 3.544552e-02 1.027556e-03) (0.000000e+00 0.000000e+00 0.000000e+00))
5700         	((-7.553908e-01 8.295739e+00 -5.107571e-19) (6.751528e-02 1.210855e-02 6.193126e-23) (0.000000e+00 0.000000e+00 0.000000e+00)) ((-4.355263e+00 -3.965802e-01 2.358596e+00) (-6.356987e-03 3.544552e-02 1.027556e-03) (0.000000e+00 0.000000e+00 0.000000e+00))
5800         	((-7.553908e-01 8.295736e+00 -5.107568e-19) (6.751528e-02 1.210855e-02 6.193126e-23) (0.000000e+00 0.000000e+00 0.000000e+00)) ((-4.355262e+00 -3.965802e-01 2.358594e+00) (-6.356987e-03 3.544552e-02 1.027556e-03) (0.000000e+00 0.000000e+00 0.000000e+00))
5900         	((-7.553912e-01 8.295735e+00 -5.107569e-19) (6.751528e-02 1.210855e-02 6.193126e-23) (0.000000e+00 0.000000e+00 0.000000e+00)) ((-4.355261e+00 -3.965804e-01 2.358594e+00) (-6.356987e-03 3.544552e-02 1.027556e-03) (0.000000e+00 0.000000e+00 0.000000e+00))
6000         	((-7.553906e-01 8.295741e+00 -5.107568e-19) (6.751528e-02 1.210855e-02 6.193126e-23) (0.000000e+00 0.000000e+00 0.000000e+00)) ((-4.355264e+00 -3.965801e-01 2.358597e+00) (-6.356987e-03 3.544552e-02 1.027556e-03) (0.000000e+00 0.000000e+00 0.000000e+00))
6100         	((-7.553909e-01 8.295734e+00 -5.107570e-19) (6.751528e-02 1.210855e-02 6.193126e-23) (0.000000e+00 0.000000e+00 0.000000e+00)) ((-4.355260e+00 -3.965802e-01 2.358593e+00) (-6.356987e-03 3.544552e-02 1.027556e-03) (0.000000e+00 0.000000e+00 0.000000e+00))
6200         	((-7.553911e-01 8.295737e+00 -5.107568e-19) (6.751528e-02 1.210855e-02 6.193126e-23) (0.000000e+00 0.000000e+00 0.000000e+00)) ((-4.355262e+00 -3.965803e-01 2.358595e+00) (-6.356987e-03 3.544552e-02 1.027556e-03) (0.000000e+00 0.000000e+00 0.000000e+00))
6300         	((-7.553907e-01 8.295737e+00 -5.107569e-19) (6.751528e-02 1.210855e-02 6.193125e-23) (0.000000e+00 0.000000e+00 0.000000e+00)) ((-4.355262e+00 -3.965801e-01 2.358595e+00) (-6.356987e-03 3.544552e-02 1.027556e-03) (0.000000e+00 0.000000e+00 0.000000e+00))
6400         	((-7.553909e-01 8.295738e+00 -5.107570e-19) (6.751528e-02 1.210855e-02 6.193125e-23) (0.000000e+00 0.000000e+00 0.000000e+00)) ((-4.355262e+00 -3.965802e-01 2.358596e+00) (-6.356987e-03 3.544552e-02 1.027556e-03) (0.000000e+00 0.000000e+00 0.000000e+00))
6500         	((-7.553912e-01 8.295738e+00 -5.107569e-19) (6.751528e-02 1.210855e-02 6.193126e-23) (0.000000e+00 0.000000e+00 0.000000e+00)) ((-4.355262e+00 -3.965804e-01 2.358595e+00) (-6.356987e-03 3.544552e-02 1.027556e-03) (0.000000e+00 0.000000e+00 0.000000e+00))
6600         	((-7.553904e-01 8.295737e+00 -5.107569e-19) (6.751528e-02 1.210855e-02 6.193126e-23) (0.000000e+00 0.000000e+00 0.000000e+00)) ((-4.355262e+00 -3.965799e-01 2.358595e+00) (-6.356987e-03 3.544552e-02 1.027556e-03) (0.000000e+00 0.000000e+00 0.000000e+00))
6700         	((-7.553909e-01 8.295735e+00 -5.107569e-19) (6.751528e-02 1.210855e-02 6.193126e-23) (0.000000e+00 0.000000e+00 0.000000e+00)) ((-4.355261e+00 -3.965802e-01 2.358594e+00) (-6.356987e-03 3.544552e-02 1.027556e-03) (0.000000e+00 0.000000e+00 0.000000e+00))
6800         	((-7.553909e-01 8.295736e+00 -5.107569e-19) (6.751528e-02 1.210855e-02 6.193126e-23) (0.000000e+00 0.000000e+00 0.000000e+00)) ((-4.355261e+00 -3.965802e-01 2.358594e+00) (-6.356987e-03 3.544552e-02 1.027556e-03) (0.000000e+00 0.000000e+00 0.000000e+00))
6900         	((-7.553910e-01 8.295736e+00 -5.107569e-19) (6.751528e-02 1.210855e-02 6.193126e-23) (0.000000e+00 0.000000e+00 0.000000e+00)) ((-4.355261e+00 -3.965803e-01 2.358594e+00) (-6.356987e-03 3.544552e-02 1.027556e-03) (0.000000e+00 0.000000e+00 0.000000e+00))
7000         	((-7.553909e-01 8.295738e+00 -5.107570e-19) (6.751528e-02 1.210855e-02 6.193126e-23) (0.000000e+00 0.000000e+00 0.000000e+00)) ((-4.355262e+00 -3.965802e-01 2.358595e+00) (-6.356987e-03 3.544552e-02 1.027556e-03) (0.000000e+00 0.000000e+00 0.000000e+00))
7100         	((-7.553911e-01 8.295736e+00 -5.107568e-19) (6.751528e-02 1.210855e-02 6.193126e-23) (0.000000e+00 0.000000e+00 0.000000e+00)) ((-4.355261e+00 -3.965804e-01 2.358594e+00) (-6.356987e-03 3.544552e-02 1.027556e-03) (0.000000e+00 0.000000e+00 0.000000e+00))
7200         	((-7.553919e-01 8.295734e+00 -5.107568e-19) (6.751528e-02 1.210855e-02 6.193126e-23) (0.000000e+00 0.000000e+00 0.000000e+00)) ((-4.355260e+00 -3.965807e-01 2.358593e+00) (-6.356987e-03 3.544552e-02 1.027556e-03) (0.000000e+00 0.000000e+00 0.000000e+00))
