/*--------------------------------*- C++ -*----------------------------------*\
| =========                 |                                                 |
| \\      /  F ield         | OpenFOAM: The Open Source CFD Toolbox           |
|  \\    /   O peration     | Version:  5.x                                   |
|   \\  /    A nd           | Web:      www.OpenFOAM.org                      |
|    \\/     M anipulation  |                                                 |
\*---------------------------------------------------------------------------*/
FoamFile
{
    version     2.0;
    format      ascii;
    class       volScalarField;
    location    "500";
    object      p;
}
// * * * * * * * * * * * * * * * * * * * * * * * * * * * * * * * * * * * * * //

dimensions      [0 2 -2 0 0 0 0];

internalField   nonuniform List<scalar> 
6584
(
31.7629
30.6027
29.58
28.9596
28.6846
28.8664
29.4807
30.5523
31.7446
32.827
32.8168
30.6661
25.5971
17.7966
8.37429
-1.32511
-10.249
-18.1007
-24.7261
-30.263
-34.8495
-38.7239
-41.8809
-44.7643
31.53
30.4323
29.3608
28.7257
28.4123
28.5917
29.2366
30.4684
31.9148
33.4323
33.8756
32.042
26.8831
18.5968
8.60552
-1.69566
-10.8912
-18.8395
-25.4191
-30.866
-35.3385
-39.1446
-42.1956
-45.1471
31.0271
29.9373
28.7711
28.0621
27.6476
27.795
28.519
30.1998
32.2291
34.5442
37.3548
37.5143
33.1558
23.981
12.1544
-3.00758
-12.8577
-20.9819
-27.3885
-32.5319
-36.6854
-40.2489
-43.0709
-45.9655
30.3693
29.2139
27.905
27.0412
26.4331
26.4272
27.1764
29.2921
32.8433
36.8401
42.7823
46.2608
42.4553
29.8936
13.7781
-0.989556
-16.227
-24.5209
-30.4928
-35.0551
-38.6822
-41.8231
-44.3153
-47.0085
29.6124
28.3208
26.8146
25.6826
24.7388
24.3259
24.7926
26.9233
30.6099
38.3862
49.1959
59.7357
57.7129
37.7209
13.2462
-5.70141
-18.3529
-29.9911
-34.977
-38.4059
-41.2348
-43.7413
-45.8041
-48.1604
28.8067
27.3113
25.5535
24.0187
22.5481
21.2502
20.8963
21.8854
26.5144
35.2388
52.013
82.1336
93.1512
54.8904
7.3891
-16.3137
-28.2233
-37.221
-40.5923
-42.424
-44.1953
-45.8665
-47.4137
-49.3094
28.0229
26.2724
24.2328
22.1947
20.0621
17.5766
15.8379
15.5189
16.1663
21.9637
43.6092
101.229
184.098
59.0811
-8.07548
-36.906
-42.6142
-46.5045
-47.0919
-46.8356
-47.3069
-47.9874
-48.9698
-50.313
27.339
25.3154
23.0067
20.443
17.5968
13.8061
10.0574
7.53627
1.61161
-4.28019
-1.52781
28.9626
-25.0941
-65.5711
-68.9831
-61.4643
-56.7124
-53.7081
-51.1138
-50.1795
-49.828
-50.2629
-51.0188
26.8244
24.5545
22.044
19.0476
15.6038
10.7466
5.07253
-0.195851
-13.0241
-34.4128
-66.2755
-147.297
-251.307
-145.965
-103.715
-80.0806
-65.5948
-59.0821
-54.474
-52.317
-51.0799
-51.0776
-51.2897
26.5244
24.0811
21.4876
18.2705
14.5489
9.2896
2.64341
-4.43452
-20.3933
-48.7828
-96.3808
-205.725
-358.877
-194.842
-123.759
-91.2446
-70.4393
-61.7555
-56.1156
-53.2487
-51.4702
-51.2324
-51.0273
26.4473
23.9341
21.3982
18.2302
14.6466
9.80925
3.56961
-3.51268
-17.1275
-39.9617
-77.6303
-151.985
-317.111
-186.218
-119.968
-90.5363
-69.6175
-60.9315
-55.5921
-52.7125
-50.852
-50.631
-50.1955
26.5608
24.0848
21.7257
18.8416
15.7431
11.9406
7.20788
1.73758
-5.93371
-15.9826
-29.9628
-45.1866
-191.196
-134.636
-96.764
-79.1231
-63.5662
-56.8883
-52.9968
-50.7652
-49.259
-49.2935
-48.8337
26.8005
24.4462
22.3289
19.8569
17.4053
14.8261
11.972
8.81566
7.18486
9.01662
15.8688
44.5862
-56.9426
-71.9146
-66.3612
-62.2184
-54.3787
-50.7939
-48.9012
-47.7436
-46.903
-47.3472
-47.0451
27.0901
24.9043
23.0318
20.9816
19.1448
17.6182
16.3476
16.9943
16.9892
25.6261
39.4264
80.8217
172.784
23.3637
-24.9024
-40.0456
-45.4544
-44.5236
-44.0392
-44.0822
-44.1269
-44.0616
-44.9859
-44.9678
27.3592
25.3516
23.6794
21.9729
20.5842
19.7093
19.3401
20.5421
22.4198
30.3969
42.5338
62.9563
68.282
31.2908
-5.36651
-22.9407
-31.6168
-35.5995
-37.6758
-39.2262
-40.3582
-41.0198
-42.4127
-42.7443
27.5564
25.7098
24.1722
22.7001
21.5658
20.9937
20.9168
22.3328
24.1189
29.3227
36.9377
42.3411
37.4411
20.233
1.57233
-13.6328
-24.1934
-28.9012
-32.3318
-34.8068
-36.7656
-38.0324
-39.8142
-40.5106
27.652
25.9354
24.4674
23.1288
22.0839
21.5817
21.3946
22.5944
23.9074
25.9311
28.7111
28.6968
26.7699
15.9425
2.42627
-8.91771
-18.4385
-23.879
-27.9719
-30.9988
-33.5182
-35.2324
-37.3143
-38.3477
27.6359
26.0145
24.5618
23.2775
22.2011
21.6069
21.1157
21.6004
22.1793
23.0458
22.7712
22.7741
16.3524
10.9221
-0.419607
-8.0421
-14.5627
-20.2904
-24.5222
-27.8416
-30.6856
-32.7103
-34.9917
-36.3181
27.5114
25.9534
24.4774
23.1943
22.0167
21.257
20.4151
20.3019
19.6786
20.1085
16.0898
17.9689
12.9855
3.56065
-0.0987101
-7.44744
-12.7543
-17.9209
-21.9242
-25.3091
-28.2837
-30.5048
-32.8976
-34.4645
27.2908
25.7706
24.2488
22.9386
21.632
20.706
19.5292
19.0572
17.6074
17.7217
14.1996
14.1798
10.1137
3.05343
-0.51059
-7.07782
-11.4756
-16.2213
-19.9449
-23.2872
-26.2711
-28.6071
-31.0455
-32.8026
26.9907
25.4896
23.9112
22.5629
21.1215
20.0542
18.5855
17.8662
15.9277
15.5742
12.183
10.9646
7.43769
2.12181
-1.15645
-6.82527
-10.5563
-14.9641
-18.4063
-21.6649
-24.5902
-26.989
-29.427
-31.3308
26.6283
25.1338
23.496
22.1082
20.5381
19.3564
17.6493
16.7313
14.4926
13.7537
10.4581
8.85588
5.64202
1.18021
-1.75875
-6.70033
-9.9521
-14.0388
-17.2074
-20.3618
-23.1892
-25.617
-28.0244
-30.0386
26.2202
24.7247
23.0299
21.6065
19.9213
18.6501
16.76
15.6883
13.2797
12.2787
9.12685
7.32653
4.35258
0.461184
-2.25094
-6.6413
-9.54637
-13.3435
-16.2668
-19.3109
-22.0215
-24.4564
-26.8146
-28.9102
25.7815
24.2811
22.5346
21.0817
19.2986
17.9595
15.9358
14.748
12.2542
11.0646
8.05319
6.13346
3.34872
-0.116787
-2.66077
-6.61412
-9.26209
-12.8068
-15.5195
-18.4561
-21.0454
-23.4739
-25.7733
-27.9272
25.325
23.8183
22.0269
20.5511
18.6879
17.2984
15.1812
13.9049
11.3787
10.0509
7.17278
5.19529
2.55545
-0.59238
-3.00354
-6.60434
-9.05794
-12.3836
-14.918
-17.7538
-20.225
-22.6391
-24.8757
-27.07
24.8617
23.3485
21.5194
20.0266
18.1002
16.6738
14.4948
13.1509
10.626
9.19805
6.43834
4.44162
1.92069
-0.979229
-3.28714
-6.60296
-8.90778
-12.0436
-14.4282
-17.1705
-19.5308
-21.9251
-24.0993
-26.3199
24.4002
22.8814
21.0214
19.5166
17.5418
16.0889
13.8723
12.4772
9.97476
8.47716
5.8207
3.82986
1.41663
-1.29662
-3.52255
-6.60656
-8.79496
-11.7654
-14.0239
-16.6805
-18.9391
-21.3107
-23.4247
-25.6595
23.9478
22.424
20.5393
19.0262
17.0157
15.5437
13.308
11.8746
9.40577
7.86178
5.29975
3.32876
1.00206
-1.56948
-3.71693
-6.60823
-8.7026
-11.5293
-13.6817
-16.2603
-18.4277
-20.7742
-22.8322
-25.0718
23.5099
21.9815
20.0774
18.5583
16.523
15.0369
12.7961
11.3342
8.90427
7.32939
4.85283
2.90603
0.654396
-1.79696
-3.87669
-6.60748
-8.62398
-11.3247
-13.3868
-15.8935
-17.9792
-20.2986
-22.3049
-24.5417
23.0912
21.5578
19.6388
18.1144
16.0629
14.5657
12.3295
10.8463
8.45955
6.86435
4.465
2.54458
0.359245
-1.98821
-4.00894
-6.60344
-8.55401
-11.1431
-13.1276
-15.5668
-17.5793
-19.8692
-21.8277
-24.055
22.6951
21.1549
19.2248
17.6943
15.6338
14.1271
11.9016
10.4014
8.0606
6.45257
4.12387
2.23087
0.10524
-2.15114
-4.11917
-6.59518
-8.48892
-10.9773
-12.8943
-15.2692
-17.2162
-19.4734
-21.3882
-23.599
22.3249
20.7745
18.8367
17.2968
15.234
13.7164
11.5088
9.99319
7.69998
6.08281
3.81966
1.95348
-0.117676
-2.29217
-4.21231
-6.58242
-8.4266
-10.8218
-12.6805
-14.9918
-16.8807
-19.1009
-20.9758
-23.1624
21.9824
20.415
18.4735
16.918
14.8595
13.3253
11.1454
9.61189
7.37019
5.74397
3.54442
1.70282
-0.316904
-2.41536
-4.29225
-6.56402
-8.36612
-10.6712
-12.4806
-14.7257
-16.5642
-18.7402
-20.5795
-22.7318
21.675
20.0809
18.1411
16.5605
14.5149
12.9562
10.8144
9.25639
7.0722
5.43151
3.29262
1.46699
-0.501272
-2.52428
-4.36284
-6.53991
-8.30908
-10.5239
-12.2951
-14.4694
-16.2672
-18.3905
-20.1999
-22.3066
21.3862
19.7404
17.8156
16.184
14.176
12.5649
10.4905
8.88217
6.78392
5.11244
3.05636
1.2443
-0.671602
-2.62093
-4.43226
-6.50178
-8.25585
-10.3596
-12.1124
-14.1915
-15.9656
-18.0108
-19.8009
-21.8347
21.1965
19.5007
17.598
15.9155
13.9518
12.2864
10.2806
8.61917
6.598
4.87944
2.85158
0.972263
-0.865017
-2.69472
-4.48604
-6.4656
-8.22045
-10.2308
-11.984
-13.9817
-15.751
-17.7274
-19.5129
-21.4803
-131.8
-246.331
-15.3689
-204.655
-384.359
-272.935
-163.572
-355.102
-390.578
-58.5476
-218.252
-340.767
35.7228
-68.1754
-199.301
81.1167
194.104
188.34
31.7382
-51.2746
50.7145
184.594
14.7693
81.1683
-51.8428
-115.486
22.3325
-186.474
88.4178
-227.786
-141.598
-64.9839
-93.6341
-184.639
-129.655
-182.509
-264.413
-220.316
-477.89
-387.73
-353.38
-214.349
-164.817
-86.3117
-150.681
-185.594
-197.938
-276.679
-291.151
-527.367
-535.764
-329.069
-218.081
-222.048
-42.8167
-56.5475
-140.265
-113.498
-137.161
-203.895
-350.322
-448.438
-208.547
-162.85
-208.319
-146.988
-239.447
-72.2746
-87.1992
-144.242
48.8392
-31.8229
69.9787
69.4382
175.908
65.5718
46.6751
35.3193
-211.764
-118.208
-71.9242
-130.641
-228.041
93.7256
-111.655
-380.137
-210.963
-154.566
-201.597
-370.389
-289.889
-268.775
-190.457
-278.662
-300.528
-236.493
-277.825
-529.993
-482.53
-351.068
-467.264
-524.562
-376.782
-463.064
-335.346
-213.023
-270.424
-191.429
-280.461
-218.678
-299.882
-284.875
-453.055
-522.979
-386.729
-520.435
-441.59
-528.044
-524.195
-392.253
-131.183
-60.6555
-212.944
-141.555
-246.19
-343.677
-273.426
-339.877
-245.139
-436.298
-346.602
-291.358
18.7417
65.3681
-51.1228
11.0307
-44.4223
-134.174
-232.553
-145.771
-141.454
113.001
126.339
70.4165
110.228
96.3791
56.1236
-47.9661
-98.3143
82.6713
-72.6589
231.348
5.95262
30.0513
-44.3681
-6.99181
8.10026
-51.4437
33.0082
-23.7412
20.3185
-26.6177
-69.4495
189.65
-67.7389
70.6323
-173.882
-119.692
-60.4213
-127.363
-99.8143
-100.35
-58.6636
59.3036
82.0374
-52.9297
-14.0864
-31.5157
-84.7666
-122.698
-133.328
-47.6397
84.9421
112.794
-35.973
39.79
-5.87314
308.056
197.686
122.88
120.998
196.812
310.02
-110.336
-75.3667
-120.235
207.715
-81.8693
-35.1856
-443.343
-434.516
-542.623
-541.424
-394.634
-402.438
-184.46
-151.815
-192.598
92.2508
40.8126
-25.2159
29.4541
5.61701
-202.854
-182.408
-249.013
-207.987
-252.446
-195.598
-196.276
-78.0748
-32.7233
-95.9767
-191.679
-312.22
-302.875
-292.262
-292.265
-256.921
-258.63
-508.682
-508.023
-503.073
-429.242
-406.29
-449.857
-435.208
-505.235
-425.179
-356.937
-317.425
-397.897
-368.205
-431.386
-255.487
-250.19
-301.083
-298.656
-492.186
-494.973
-492.386
-427.294
-445.272
-396.363
-420.038
-488.499
-536.333
-458.185
-453.108
-449.999
-457.643
-536.803
-105.445
-100.786
-105.695
-147.564
-58.8655
-100.204
-90.7278
-183.03
-152.327
-172.695
-292.124
-299.292
-395.512
-359.041
-387.734
-317.782
-348.846
-389.125
30.5386
56.7913
-23.0095
-14.9927
-53.2045
23.7914
-9.89465
-14.1261
-8.70938
26.1262
-82.6423
-85.2534
-32.6088
-145.947
-91.7954
-95.883
-90.2228
147.429
164.15
215.823
116.251
141.555
233.35
135.184
96.9159
437.251
36.5283
67.2218
38.141
66.1901
97.5058
68.3624
112.717
86.3843
98.2439
284.296
61.5385
15.4911
4.6314
77.5087
86.443
249.011
165.585
161.242
91.226
102.744
142.509
142.178
217.238
468.29
324.079
220.242
270.259
348.742
478.457
-249.269
-207.499
-225.41
-467.376
-414.757
-409.797
-288.941
-242.527
-235.185
-245.91
-246.342
-290.904
-536.502
-537.714
-369.416
-429.677
118.283
104.725
17.364
36.7938
79.8433
124.295
101.678
116.178
-1.96742
-54.6658
176.605
-352.541
-382.908
-410.379
-280.64
-231.968
-165.931
-302.502
-249.881
-302.569
-283.176
-240.441
-247.396
-227.631
-240.026
-280.204
-285.792
-308.726
-299.965
-326.98
-325.703
-296.875
-297.247
-290.977
-269.561
-523.63
-493.589
-483.241
-452.636
-444.041
-487.976
-479.229
-517.802
-229.047
-214.895
-247.663
-271.181
-291.059
-309.473
-302.447
-332.028
-328.358
-313.578
-324.846
-291.688
-471.689
-512.619
-509.846
-473.006
-481.245
-429.303
-434.443
-460.451
-532.402
-494.749
-488.148
-485.96
-491.025
-532.13
-265.566
-275.937
-254.246
-352.706
-339.081
-324.997
-296.458
-274.306
-307.008
-230.391
-263.024
-283.329
40.2022
54.1742
28.0001
77.7768
58.8656
46.7105
161.095
169.399
89.333
106.079
84.3898
149.084
158.991
138.331
123.947
39.8076
327.189
89.513
43.045
7.615
11.8432
45.2507
2.23393
-0.667694
63.7133
55.8372
268.264
3.52476
25.1713
-83.6044
-75.2007
69.8874
75.1082
69.0023
74.5927
67.5247
86.3591
77.1778
71.75
-35.4492
-29.4494
-53.8556
-61.4111
96.3587
101.126
89.6066
107.535
123.932
-180.685
-155.334
-77.0592
-235.399
-177.529
-203.94
-463.592
-416.044
-538.654
-541.928
-375.155
-423.537
-177.999
-174.132
-194.192
-147.683
-167.62
-169.517
-229.185
-250.462
-200.747
-221.107
71.1309
91.5508
109.973
51.9585
83.0493
64.9618
89.6041
55.2922
-227.691
-199.131
-221.206
-161.174
-190.62
-219.405
-247.322
-258.685
-227.28
-243.216
-148.561
-112.721
-151.128
-163.518
-178.411
-354.931
-375.066
-344.961
-355.932
-306.811
-253.54
-347.726
-321.017
-265.236
-302.513
-344.531
-318.513
-312.316
-286.322
-315.853
-322.382
-310.628
-311.753
-331.837
-330.273
-321.749
-328.584
-297.088
-323.804
-319.035
-281.133
-291.897
-262.482
-276.52
-301.927
-307.826
-294.351
-301.259
-268.395
-289.508
-282.635
-523.095
-493.713
-466.811
-454.403
-488.39
-515.693
-478.482
-468.038
-271.612
-285.909
-266.227
-295.759
-281.139
-316.027
-300.894
-257.481
-237.124
-275.7
-262.219
-332.942
-331.765
-301.049
-336.303
-339.999
-332.474
-337.627
-330.514
-317.67
-336.997
-333.302
-295.218
-327.186
-331.529
-476.855
-504.997
-457.52
-467.529
-504.317
-469.122
-440.462
-451.865
-497.353
-493.971
-534.855
-534.145
-494.57
-495.311
-122.994
-122.268
-118.709
-102.369
-141.563
-124.499
-130.629
-76.0137
-74.3019
-60.7951
-96.8966
-79.8765
-82.3698
-208.334
-191.459
-230.448
-213.996
-168.208
-163.642
-147.06
-186.069
-169.235
-176.103
-303.282
-283.898
-272.7
-285.402
-302.946
-256.663
-277.016
-308.964
-318.292
-331.65
-308.762
42.8338
48.8873
38.8037
65.0637
52.9035
46.6612
67.2813
7.20492
33.375
12.3514
-123.332
-120.259
-140.937
-91.4985
-113.568
-115.352
-115.068
-122.903
173.453
192.397
130.18
144.77
175.976
145.037
0.216735
-41.6288
3.04589
6.22635
48.8103
77.4044
631.115
470.212
396.347
474.652
529.437
649.394
67.9771
158.211
99.5538
-178.649
-203.208
-243.224
-473.676
-476.226
-481.231
-533.498
-535.773
-179.738
-157.593
-176.233
-450.26
-444.334
-442.838
-247.445
-226.243
-220.039
-179.998
-138.997
-171.73
-252.703
-238.731
-218.233
-241.682
-288.562
-253.684
-243.254
-268.595
-256.627
-525.952
-487.59
-492.258
-486.974
-508.465
-505.783
-521.571
-435.797
-427.091
-451.337
-239.314
-207.219
-188.302
-231.12
-247.999
-232.492
-458.375
-456.446
-452.7
-520.13
-517.221
-499.294
-502.605
-529.633
-512.956
-511.025
-506.222
-509.556
-528.219
-201.937
-210.747
-225.7
-418.971
-405.469
-417.696
-194.788
-185.738
-219.072
168.696
169.423
132.785
113.512
93.9936
168.794
169.1
90.9904
118.886
80.5153
-61.196
-40.4263
-95.1413
-57.8338
-63.447
-64.5228
-47.1842
-46.4505
-52.1329
-12.6015
-17.8011
-19.3692
-83.6993
-77.1583
-77.6372
121.192
105.762
99.7406
183.499
298.76
242.878
-132.934
-150.719
-130.059
-98.6077
-251.399
-232.179
-51.4615
26.719
43.3383
-455.529
-457.888
-450.597
-427.302
-441.988
-448.541
-546.52
-542.004
-402.172
-394.949
-387.431
-410.427
-416.588
-410.07
-191.466
-196.827
-150.503
-157.029
-157.544
-202.086
-207.509
-213.244
-218.885
-199.135
-211.609
-240.738
-241.543
-247.723
-184.743
-194.998
-217.083
-270.505
-276.021
-252.461
-255.547
-252.59
-55.3076
-101.501
-132.926
-119.139
-111.437
-122.683
-175.859
-284.197
-273.388
-280.321
-272
-245.453
-280.08
-280.918
-512.07
-507.407
-394.915
-382.138
-405.727
-447.693
-417.618
-406.811
-238.031
-252.812
-266.591
-486.527
-496.905
-519.134
-518.962
-536.345
-538.069
-519.372
-519.141
-110.643
-111.383
-110.148
-104.348
-146.639
-141.348
-143.1
-189.264
-205.386
-193.315
-202.436
-197.296
-233.324
-229.088
-157.3
-157.34
-151.918
-192.584
-187.968
-382.599
-393.922
-413.021
-371.358
-359.887
-371.194
-30.5125
-29.5188
-19.5759
-51.0936
-40.0956
-36.1021
-62.1498
-66.1973
-84.471
-38.7158
-53.1459
-54.682
-138.899
-137.054
-143.693
-99.507
-91.6991
-141.959
194.241
196.832
208.237
141.654
130.277
140.531
126.652
154.711
144.427
135.692
216.372
182.101
116.203
133.074
117.739
204.47
389.624
113.395
80.1398
83.1084
196.498
204.918
232.143
94.288
94.2305
89.4968
103.398
98.6786
98.2449
226.94
191.493
181.019
326.769
474.532
419.419
-471.997
-473.144
-470.388
-417.233
-419.141
-412.785
-431.445
-420.332
-536.801
-535.457
-376.243
-380.249
-360.367
-368.457
-436.091
-436.508
-429.981
111.427
116.807
123.863
105.508
111.187
105.911
-391.518
-389.806
-380.837
-406.201
-398.217
-401.264
-523.353
-490.356
-493.389
-493.786
-519.249
-503.558
-501.438
-465.772
-460.169
-465.287
-519.449
-491.792
-495.892
-514.555
-515.886
-514.229
-530.605
-530.886
-512.281
-514.115
-347.113
-347.746
-353.22
-336.143
-341.67
-342.702
170.99
173.379
160.82
164.469
152.965
159.289
155.365
145.55
137.499
133.404
140.569
144.574
128.809
133.057
128.871
23.8511
1.66191
-9.25586
57.5492
271.009
229.365
302.654
111.62
144.396
193.95
21.9115
20.3814
10.732
39.3941
30.2768
32.1403
-14.8756
-12.5558
-22.3212
1.4759
-6.82447
-6.40994
85.9581
102.328
43.8766
-56.3671
-88.2301
-12.9731
-20.2705
-90.1755
-70.2682
-69.1791
-76.3012
71.2063
72.9332
64.0386
66.8094
69.8494
-35.0874
-40.8297
-41.3983
-16.4875
-11.1362
-22.7746
-24.0045
-21.8606
-29.2122
-50.9224
-45.4522
-47.0889
-44.0176
-52.8221
-29.7585
-36.8857
-69.7279
-69.3986
-61.0641
112.628
113.796
108.457
125.757
119.543
118.087
-188.58
-159.378
-155.23
-224.055
-232.356
-212.194
-459.463
-457.738
-463.965
-469.656
-439.914
-437.616
-450.947
-443.988
-543.246
-543.916
-394.042
-400.17
-384.295
-388.808
-380.977
-388.776
-383.3
-424.947
-420.381
-417.284
-409.454
-176.032
-185.166
-163.308
-163.569
-170.15
-237.216
-238.595
-229.968
-251.219
-246.477
-244.415
-207.449
-208.509
-202.29
-222.216
-213.733
-213.757
-214.644
61.9487
57.1464
47.5212
77.9231
66.3462
-217.763
-227.799
-235.341
-233.874
-223.078
-206.856
-216.817
-264.153
-266.368
-273.319
-269.286
-254.652
-252.717
-261.082
-150.492
-134.31
-145.427
-107.245
-186.56
-175.699
-166.782
-365.025
-347.719
-336.735
-370.594
-360.465
-374.478
-378.441
-366.189
-288.418
-290.764
-309.353
-274.493
-289.631
-272.037
-335.915
-322.007
-328.376
-332.573
-319.789
-323
-312.219
-315.63
-315.628
-314.203
-313.323
-330.753
-329.507
-322.947
-325.426
-286.707
-292.227
-286.227
-294.235
-293.484
-289.821
-266.298
-279.387
-276.814
-286.325
-282.649
-270.778
-282.962
-285.123
-303.298
-305.39
-304.297
-311.354
-308.05
-305.374
-297
-300.328
-296.944
-305.268
-305.383
-299.981
-516.569
-501.189
-291.51
-293.46
-295.935
-282.102
-288.77
-286.735
-311.412
-298.88
-302.895
-306.12
-251.382
-253.995
-260.801
-240.297
-246.634
-244.324
-270.863
-271.768
-276.241
-264.945
-267.989
-266.412
-336.913
-338.71
-335.426
-338.758
-325.067
-320.757
-334.151
-332.866
-480.991
-500.105
-536.462
-518.77
-517.475
-516.258
-518.143
-536.662
-116.055
-121.739
-116.071
-117.145
-137.711
-135.416
-128.457
-215.283
-208.32
-202.57
-207.976
-214.133
-224.859
-230.048
-234.78
-219.98
-224.888
-219.299
-225.68
-221.966
-169.176
-163.09
-162.536
-183.098
-175.282
-297.239
-292.77
-299.502
-279.012
-286.034
-291.129
-293.402
-298.441
-262.015
-262.658
-256.281
-269.68
-323.161
-321.469
-329.301
-306.073
-313.462
-315.871
45.331
43.7995
47.5985
35.9767
40.1069
42.2947
63.0742
58.8526
61.3399
51.5614
55.5619
57.2793
62.1941
4.81249
10.0339
-5.88503
-0.323573
28.1474
26.317
30.9878
15.5785
22.8487
21.8002
-122.173
-130.005
-131.433
-107.247
-131.366
177.583
183.433
135.737
142.665
132.842
150.907
145.862
139.979
150.402
156.968
165.813
152.767
52.1168
68.9847
54.9132
75.7488
84.4631
61.1802
82.4595
62.0809
49.5452
51.376
25.8622
25.3674
29.8971
40.3304
43.2791
48.5804
84.7005
73.5611
104.029
166.513
95.1986
165.823
86.8891
67.6088
61.6089
11.1984
21.2808
-0.281101
-15.9788
-6.27993
10.4173
9.9215
35.6087
13.6348
40.6191
84.2086
99.3775
163.117
142.066
267.248
188.214
150.294
58.001
24.6886
36.3108
-47.1988
-47.6139
-29.153
-20.179
-42.7359
-2.3063
-18.3642
-22.1494
-0.360771
4.5469
7.99301
37.6472
-113.602
-104.982
-51.3015
-127.176
-95.7466
-70.6488
-44.4401
-77.4292
-54.3145
-78.4138
-97.7185
-83.0526
-161.002
-181.201
-166.603
-308.222
-242.287
-195.998
-188.232
-137.26
-119.149
-47.0722
-72.5272
-79.7605
-96.0705
-117.001
-118.242
-205.168
-228.191
-228.754
-360.115
-288.351
-280.814
-193.923
-148.962
-147.554
-28.9721
-37.4565
-65.5359
-67.19
-78.6674
-92.0266
-139.765
-151.737
-165.92
-274.77
-233.235
-260.448
-150.034
-127.704
-141.803
-2.82509
3.37128
-26.8352
-32.0115
-31.6787
-46.3638
-138.434
-129.546
-170.032
-87.0456
-88.2872
-109.021
18.4784
30.2936
11.8453
-15.3252
-37.9257
-60.5173
-34.0326
-49.4409
-67.8173
29.0499
35.7625
32.4012
43.916
62.6086
69.9217
78.0392
95.6478
112.931
125.446
129.101
135.397
32.9294
1.18242
-16.8127
-12.3338
-22.8437
-34.4576
30.3746
35.6481
36.539
40.3099
45.2699
57.8368
46.667
46.7397
73.2912
44.0207
31.5792
42.3956
25.3426
10.1511
3.35495
-0.190441
-10.1932
-15.3141
32.5244
35.336
40.051
32.0577
36.5403
40.3667
31.7984
21.6931
28.3634
18.5415
9.7216
11.0505
-149.609
-129.803
-113.935
-216.088
-240.756
-288.328
0.47682
-37.5835
-48.814
-227.346
-224.034
-201.545
-375.603
-416.246
-431.398
-302.125
-340.355
-296.383
-179.433
-191.917
-174.037
-367.787
-407.231
-384.278
-434.413
-440.548
-394.118
-61.0092
-75.694
-72.1933
-236.338
-256.421
-226.834
-375.311
-348.51
-325.194
-85.9199
-83.1909
-64.1665
-207.934
-186.127
-179.768
114.422
104.666
70.2927
216.317
197.536
180.695
178.271
175.588
213.081
-45.676
-27.4084
-34.9289
107.442
164.638
93.0351
742.194
640.422
650.296
157.085
191.259
266.138
745.285
776.698
37.7894
61.1632
35.4217
132.666
155.584
76.6394
-65.0313
-44.3037
-35.4727
-61.4373
-52.1351
-78.6292
4.84821
-23.3833
-40.9782
-153.157
-165.788
-223.665
111.605
66.0187
50.1602
-181.057
-123.364
-143.802
-116.214
-122.951
-155.095
-59.4651
-90.2568
-90.4215
-115.453
-108.559
-87.5017
-170.534
-132.425
-140.539
-101.271
-119.312
-163.216
-203.903
-193.537
-172.542
-259.758
-246.081
-250.993
-205.862
-214.159
-227.268
-397.454
-406.71
-395.307
-279.182
-250.861
-322.744
-201.807
-230.353
-245.343
-184.517
-209.94
-185.314
-103.333
-111.851
-92.5209
-174.389
-135.048
-124.058
-143.644
-141.763
-180.029
-220.122
-225.308
-202.406
-281.854
-264.094
-259.666
-274.187
-274.509
-291.903
-270.778
-283.214
-355.36
-223.785
-255.012
-246.993
-254.463
-257.695
-225.371
-48.4159
-63.9043
-55.3699
-93.7091
-74.1875
-54.9972
-109.618
-92.6848
-106.096
-121.832
-136.962
-126.805
-166.447
-148.67
-124.707
-196.059
-187.455
-195.485
-357.142
-365.253
-356.929
-184.097
-220.059
-258.938
-180.092
-198.715
-177.472
-234.301
-217.948
-195.568
-159.908
-166.739
-146.838
-242.55
-235.953
-233.247
-86.1696
-109.832
-121.551
-105.822
-109.754
-87.593
-154.961
-131.853
-125.019
38.9928
47.9485
58.4727
-28.4662
-15.0596
-19.1589
75.6181
89.7643
75.3435
102.952
94.2125
77.8246
153.02
133.717
129.361
69.0424
80.6706
100.233
47.6915
70.9698
58.0254
81.2208
74.2866
45.2573
-202.249
-187.081
-196.987
-86.0354
-128.577
-167.037
-94.089
-107.091
-81.2768
-150.603
-180.22
-152.818
62.4948
68.5169
107.511
-127.395
-103.025
-88.8146
-371.627
-381.078
-389.342
-220.468
-237.713
-228.076
-165.129
-202.451
-187.252
-230.711
-216.231
-189.468
-336.03
-320.947
-340.365
-288.105
-272.148
-273.518
-255.235
-259.247
-272.951
-196.979
-219.06
-212.323
-281.995
-288.341
-285.779
-310.059
-309.035
-298.547
-283.654
-281.14
-274.271
-388.391
-410.637
-364.491
-472.309
-465.559
-459.165
-399.056
-368.39
-353.234
-456.712
-450.307
-458.571
-317.136
-351.003
-380.492
-221.984
-212.858
-204.672
-254.342
-248.605
-263.315
-183.521
-203.125
-212.604
-278.383
-287.281
-291.153
-222.149
-227.174
-222.907
-301.797
-311.795
-310.74
-295.064
-298.162
-286.492
-430.235
-414.421
-378.461
-436.025
-438.44
-446.347
-394.712
-440.091
-434.596
-120.85
-122.665
-139.284
-61.3223
-71.2705
-70.3751
-208.319
-211.53
-216.844
-144.829
-161.428
-151.951
-252.327
-255.66
-249.193
-349.117
-342.536
-337.598
-298.744
-267.453
-255.079
-320.51
-312.944
-324.915
-240.235
-252.313
-257.828
-431.024
-426.242
-429.992
-336.859
-348.534
-365.354
-308.644
-338.621
-309.256
26.2227
29.5321
21.8213
69.5537
63.2362
59.1912
-41.5656
-41.0562
-51.2689
13.8043
5.42594
2.93443
-57.1746
-55.4575
-41.9109
-140.164
-120.038
-121.305
-219.908
-216.026
-228.14
-141.26
-174.336
-183.048
-160.506
-164.86
-144.062
123.619
152.206
138.088
150.455
154.572
123.758
77.4426
82.1329
75.6095
84.0658
125.255
128.1
-52.6761
-22.2228
-22.004
-26.3605
-22.1714
-71.6869
51.173
14.8649
0.865067
265.146
208.077
186.057
1.18712
-0.176995
15.4003
-35.8694
-17.4142
-9.43375
-4.32351
-17.656
-19.2595
-16.1786
-15.2933
-0.758702
-47.2866
-30.8194
-24.6347
24.6689
27.4871
36.4604
-22.5438
-15.1102
-15.9875
-4.18167
-19.0748
-4.28863
146.068
159.583
211.359
-104.132
-73.6407
-40.02
-36.0507
-45.5481
18.4857
-143.413
-70.317
-73.5278
-84.0345
-79.9843
-123.106
-88.4241
-82.4382
-61.9761
-115.836
-91.0173
-98.0122
-86.0419
-91.0583
-106.462
62.8652
65.0925
62.0088
83.6436
80.234
78.2199
-39.4338
-38.1238
-30.3719
-123.479
-103.154
-104.142
-96.0388
-97.0266
-130.357
-58.1203
-86.5144
-83.7554
88.9244
90.3905
86.8771
115.331
110.707
107.916
-0.562009
-18.4652
-39.2157
17.5459
0.606256
10.2397
-19.7639
-10.4611
4.89291
267.493
316.901
422.44
189.135
278.093
245.185
207.238
278.153
180.632
147.351
182.095
150.676
249.429
293.332
191.493
428.282
334.534
272.738
-73.5072
-144.895
-115.187
86.7559
89.8434
143.004
-65.8829
-31.7172
-43.6346
6.79788
15.8694
-30.3625
-192.793
-173.256
-172.996
-200.03
-202.339
-195.976
84.6177
90.7422
97.3525
44.7259
53.2308
48.7904
-2.58463
-10.3073
-24.4241
18.1826
3.93243
5.1912
-6.71975
-1.67516
11.6206
-209.474
-187.996
-167.627
-207.491
-233.697
-215.661
-179.326
-162.799
-174.463
-61.343
-83.5792
-98.0263
-62.124
-73.2241
-43.525
-325.699
-336.72
-324.636
-289.66
-302.56
-314.733
-300.549
-298.804
-289.631
-294.718
-303.308
-301.75
-264.41
-261.355
-252.373
-262.932
-269.793
-266.923
-487.472
-484.556
-500.28
-422.161
-441.376
-449.069
-425.82
-432.683
-414.484
-445.549
-467.524
-472.449
-455.748
-461.98
-440.875
-508.219
-492.778
-489.884
-414.337
-406.143
-418.472
-344.566
-363.561
-375.926
-336.114
-350.423
-331.614
-388.623
-408.139
-417.329
-387.461
-398.255
-378.955
-437.479
-426.928
-418.88
-260.579
-264.895
-258.478
-246.933
-251.413
-255.789
-312.108
-312.387
-300.388
-298.687
-309.776
-310.896
-475.033
-478.678
-495.782
-433.794
-457.113
-449.47
-470.255
-464.172
-440.033
-404.439
-421.757
-410.914
-441.071
-431.828
-412.576
-483.084
-466.788
-471.085
-457.37
-482.289
-483.57
-476.604
-479.952
-455.846
-453.502
-479.463
-475.481
-483.553
-482.258
-456.265
-102.227
-117.038
-110.545
-64.75
-64.4647
-58.8683
-98.7098
-93.0437
-94.6426
-80.4265
-81.8762
-92.755
-162.367
-167.113
-183.756
-295.911
-289.657
-286.069
-305.488
-308.899
-302.344
-390.387
-395.804
-401.49
-368.829
-381.601
-371.184
-401.493
-391.758
-378.616
-328.235
-338.302
-327.076
-360.38
-349.428
-338.706
-383.191
-377.544
-383.001
34.8225
36.8546
32.5752
59.1818
56.1531
53.705
-21.6785
-31.182
-32.1811
-20.1258
-21.2026
-15.8909
-53.571
-47.8226
-47.5094
10.3225
8.72318
17.3458
-9.91576
-0.417938
5.51009
-5.4227
-3.32993
-12.4137
-3.33144
-1.74466
-7.18688
27.887
23.2673
21.6843
-81.8728
-68.7307
-69.7539
-77.7916
-77.4917
-84.6675
-33.4636
-41.4042
-40.2648
-91.5979
-99.0371
-99.2149
-108.832
-108.092
-95.7173
152.887
166.029
157.191
183.883
169.416
158.116
121.226
124.003
119.608
125.063
139.021
163.005
103.048
109.004
104.347
61.5768
49.3919
55.016
28.993
40.2288
58.1079
88.5462
77.9513
85.7456
59.6056
69.0485
78.1725
106.145
114.305
123.336
91.2714
105.6
97.3804
123.503
109.14
95.5647
42.924
37.819
49.059
12.9445
25.7997
36.5912
15.6953
20.2647
8.31813
224.701
250.377
312.835
169.664
189.889
185.264
172.356
183.503
168.137
147.175
159.501
153.106
166.772
170.509
149.683
295.707
217.253
214.939
428.209
469.092
583.938
323.577
386.501
374.361
336.045
416.902
304.637
302.056
345.741
311.193
400.498
465.359
353.787
597.806
511.225
451.141
-235.086
-240.939
-254.793
-215.331
-227.321
-221.209
-237.347
-232.225
-218.542
-402.329
-415.025
-425.027
-270.704
-267.925
-285.964
-242.06
-255.843
-258.063
-248.406
-252.169
-237.03
-248.042
-261.573
-260.935
-260.195
-260.893
-245.459
-291.805
-273.942
-272.843
-378.047
-372.608
-363.666
24.5425
36.7473
28.6855
54.9503
44.9809
31.9319
68.6591
57.1421
67.4024
118.595
127.309
144.448
108.388
117.999
109.996
129.561
119.937
110.387
-8.99722
29.0329
30.2684
33.9157
31.6148
-15.3722
126.036
80.2974
68.0244
-364.55
-373.036
-363.884
-262.993
-240.371
-256.824
-209.461
-224.116
-246.184
-176.95
-201.541
-189.696
-286.61
-303.897
-320.358
-266.661
-286.243
-269.58
-322.908
-303.259
-283.875
-268.221
-270.508
-285.855
-244.653
-257.179
-254.541
-260.411
-258.687
-244.166
-233.604
-245.581
-241.322
-252.196
-248.74
-234.93
-276.737
-262.604
-265.747
-292.811
-290.467
-282.679
-306.297
-298.549
-300.364
-294.477
-296.57
-302.772
-326.211
-314.873
-315.695
-313.538
-314.398
-326.144
-299.052
-308.41
-307.221
-294.838
-290.084
-292.353
-285.838
-287.989
-292.73
-273.27
-279.129
-276.718
-472.835
-468.854
-477.116
-446.112
-458.04
-462.812
-483.897
-498.213
-500.999
-493.265
-496.043
-483.45
-225.982
-238.158
-243.276
-225.706
-231.862
-218.988
-255.64
-242.215
-235.568
-278.413
-282.601
-273.579
-296.656
-289.039
-285.019
-297.357
-293.457
-303.604
-312.853
-312.29
-300.903
-331.819
-318.873
-319.262
-316.688
-317.903
-330.083
-317.33
-303.892
-300.746
-310.152
-307.171
-321.158
-290.53
-301.453
-303.938
-474.876
-490.782
-487.344
-497.287
-494.415
-479.913
-445.133
-439.584
-431.329
-453.168
-445.868
-451.259
-491.492
-506.665
-508.536
-503.054
-505.346
-491.846
-486.823
-503.212
-500.684
-507.431
-505.868
-490.954
-269.309
-262.475
-259.236
-267.985
-264.484
-271.671
-251.272
-257.621
-260.648
-331.334
-335.835
-329.492
-289.335
-301.594
-308.088
-285.319
-292.827
-281.275
-315.69
-304.249
-296.266
-240.241
-246.477
-235.305
-269.601
-257.921
-251.573
-270.572
-264.567
-276.869
43.9445
36.8741
33.3116
44.0019
40.8134
47.824
25.5466