/*--------------------------------*- C++ -*----------------------------------*\
| =========                 |                                                 |
| \\      /  F ield         | OpenFOAM: The Open Source CFD Toolbox           |
|  \\    /   O peration     | Version:  5.x                                   |
|   \\  /    A nd           | Web:      www.OpenFOAM.org                      |
|    \\/     M anipulation  |                                                 |
\*---------------------------------------------------------------------------*/
FoamFile
{
    version     2.0;
    format      ascii;
    class       volScalarField;
    location    "500";
    object      p_rgh;
}
// * * * * * * * * * * * * * * * * * * * * * * * * * * * * * * * * * * * * * //

dimensions      [0 2 -2 0 0 0 0];

internalField   nonuniform List<scalar> 
6584
(
10.7693
11.4339
12.2367
13.4416
14.9921
16.9996
19.4398
22.3371
25.3549
28.2627
30.078
29.7528
26.5093
20.5343
12.9375
5.06363
-2.0347
-8.06068
-12.8601
-16.5709
-19.3311
-21.3795
-22.711
-23.7698
10.5347
11.2591
12.0117
13.2016
14.7135
16.7195
19.1927
22.2518
25.5239
28.8669
31.1356
31.1275
27.7941
21.3334
13.1677
4.69257
-2.67616
-8.79726
-13.5491
-17.1686
-19.8143
-21.7943
-23.021
-24.1515
10.0311
10.7605
11.4151
12.5295
13.9398
15.9139
18.4683
21.9801
25.8368
29.5217
34.1576
36.1426
33.6095
26.2603
16.2594
3.38372
-4.63536
-10.9305
-15.5092
-18.8258
-21.1536
-22.8928
-23.8939
-24.9693
9.3729
10.036
10.5461
11.5028
12.7178
14.5374
17.1167
21.0651
26.4472
31.8167
39.5841
44.8879
42.9078
32.1724
17.8891
4.9536
-7.9904
-14.4571
-18.6034
-21.3408
-23.1444
-24.4644
-25.1375
-26.012
8.61592
9.14267
9.45487
10.1417
11.0184
12.4289
14.7224
18.6802
23.7473
33.3589
45.9956
58.3616
58.1643
40.0075
17.3761
0.263283
-10.5607
-19.9172
-23.0797
-24.6857
-25.694
-26.3815
-26.6259
-27.1638
7.8101
8.13287
8.19335
8.47683
8.82495
9.34741
10.8155
13.1722
19.6282
30.1824
48.569
80.5287
93.3737
56.9694
11.54
-10.3354
-20.4221
-27.14
-28.6894
-28.7008
-28.6533
-28.5062
-28.2352
-28.3127
7.02618
7.09378
6.87216
6.65218
6.33781
5.67089
5.75202
6.79983
9.26821
16.8859
40.1278
99.4813
184.207
61.1842
-4.13898
-30.9187
-34.8057
-36.4185
-35.186
-33.1111
-31.7643
-30.6267
-29.791
-29.3163
6.34229
6.13662
5.64583
4.90017
3.87194
1.89926
-0.0313279
-1.18752
-5.29162
-9.36356
-5.01961
27.1754
-23.0807
-61.6265
-62.9919
-53.6523
-46.6251
-41.8014
-37.3887
-34.6364
-32.4671
-31.084
-30.022
5.82765
5.37561
4.68305
3.50451
1.87869
-1.16053
-5.01665
-8.92161
-19.9293
-39.4971
-69.7684
-149.088
-249.29
-142.02
-97.7253
-72.2707
-55.51
-47.1765
-40.7488
-36.7738
-33.7187
-31.8986
-30.2929
5.52762
4.90219
4.12668
2.72748
0.82378
-2.61767
-7.44591
-13.1601
-27.2971
-53.8655
-99.8724
-207.515
-356.859
-190.9
-117.773
-83.4383
-60.3589
-49.8535
-42.3922
-37.7056
-34.109
-32.0534
-30.0305
5.45062
4.75538
4.03747
2.68742
0.921745
-2.09767
-6.51918
-12.237
-24.0289
-45.0415
-81.1188
-153.773
-315.098
-182.281
-113.987
-82.7356
-59.5428
-49.0351
-41.8731
-37.1712
-33.4909
-31.4521
-29.1987
5.56409
4.90617
4.36513
3.29901
2.01858
0.0340868
-2.87996
-6.98497
-12.8327
-21.0593
-33.4474
-46.9698
-189.189
-130.708
-90.7909
-71.33
-53.4988
-44.9987
-39.2841
-35.2284
-31.8994
-30.1147
-27.8369
5.80388
5.26759
4.96838
4.31451
3.68105
2.91996
1.88492
0.0945631
0.28771
3.94251
12.388
42.808
-54.9479
-67.9982
-60.3983
-54.4348
-44.3206
-38.9126
-35.1961
-32.2132
-29.5464
-28.1687
-26.0484
6.09344
5.7258
5.67141
5.43937
5.42083
5.71246
6.26141
8.73094
10.0936
20.5567
35.9554
79.0762
172.811
25.4441
-21.0021
-34.0977
-37.6827
-34.477
-32.168
-30.3862
-28.6029
-26.7095
-25.8095
-23.9713
6.36261
6.17326
6.31924
6.43095
6.86059
7.80431
9.2564
12.2856
15.5323
25.3481
39.0898
61.338
68.4933
33.3417
-1.25991
-17.0076
-23.4023
-25.5599
-25.8105
-25.536
-24.8399
-23.6739
-23.2416
-21.7494
6.55978
6.53154
6.81239
7.15871
7.84297
9.09023
10.8371
14.0861
17.2491
24.2831
33.7241
40.7257
37.6545
22.5039
5.67383
-7.70353
-15.982
-18.8642
-20.4696
-21.117
-21.2499
-20.6908
-20.6474
-19.5176
6.65555
6.75743
7.10792
7.58801
8.36206
9.68045
11.3199
14.3537
17.499
20.8925
25.4985
27.3109
27.2114
18.2131
6.52621
-2.9911
-10.2306
-13.8462
-16.1131
-17.3126
-18.0053
-17.893
-18.1477
-17.3552
6.63947
6.83682
7.20281
7.73748
8.48066
9.7091
11.0466
13.3642
15.772
18.4645
19.5592
21.3887
16.7945
13.1921
4.1341
-1.662
-6.35678
-10.2595
-12.6652
-14.158
-15.1757
-15.3736
-15.8279
-15.3267
6.51508
6.77601
7.11903
7.65507
8.29751
9.36269
10.3512
12.0686
13.2722
15.5281
13.3356
17.0412
13.8846
6.28647
4.45359
-1.06892
-4.54987
-7.89111
-10.0685
-11.6271
-12.7755
-13.1697
-13.736
-13.4742
6.29464
6.59356
6.89092
7.40028
7.91405
8.81432
9.46854
10.8253
11.2015
13.1419
11.4459
13.2524
11.0127
5.77865
4.04075
-0.700479
-3.27239
-6.19254
-8.09032
-9.60651
-10.7641
-11.2733
-11.8854
-11.8131
5.99459
6.31286
6.55393
7.02546
7.40469
8.16428
8.52675
9.63518
9.52204
10.9946
9.4294
10.0371
8.33628
4.84643
3.39412
-0.448817
-2.35396
-4.93619
-6.55269
-7.98524
-9.0841
-9.65639
-10.2682
-10.342
5.63227
5.95737
6.13935
6.57168
6.82245
7.46776
7.59164
8.50081
8.08744
9.17414
7.70443
7.92818
6.54027
3.90437
2.79125
-0.32451
-1.75049
-4.01149
-5.35443
-6.68287
-7.68393
-8.28531
-8.86652
-9.05033
5.2243
5.54864
5.67385
6.07077
6.20666
6.76243
6.7032
7.45859
6.87494
7.69918
6.37315
6.39867
5.25058
3.18497
2.29862
-0.26598
-1.3453
-3.31678
-4.41438
-5.63259
-6.51687
-7.12547
-7.65763
-7.92238
4.78571
5.10537
5.17912
5.54677
5.58499
6.07286
5.87977
6.51898
5.8499
6.4853
5.29941
5.20545
4.24649
2.60672
1.88845
-0.239198
-1.06144
-2.78052
-3.66757
-4.7783
-5.54128
-6.14369
-6.61701
-6.93969
4.32938
4.64289
4.67197
5.01691
4.97524
5.41264
5.12584
5.67645
4.9749
5.47189
4.41893
4.26713
3.45301
2.13087
1.54539
-0.229721
-0.857639
-2.35761
-3.06642
-4.07638
-4.72136
-5.30935
-5.72007
-6.08279
3.86614
4.17347
4.16503
4.4932
4.38844
4.78896
4.44005
4.92313
4.22288
4.61937
3.68496
3.51375
2.81844
1.74408
1.26178
-0.22839
-0.70753
-2.01769
-2.57661
-3.493
-4.02738
-4.59581
-4.94418
-5.33296
3.40481
3.7066
3.66747
3.98385
3.83093
4.2048
3.81814
4.24991
3.57221
3.89954
3.06846
2.90303
2.31531
1.42758
1.02723
-0.231169
-0.593908
-1.73868
-2.17142
-3.00225
-3.43517
-3.98093
-4.26923
-4.67244
2.95244
3.24949
3.18584
3.49409
3.30567
3.6604
3.25448
3.64782
3.00423
3.28562
2.54897
2.40341
1.90222
1.15618
0.834293
-0.231403
-0.500139
-1.50117
-1.82793
-2.58083
-2.92252
-3.44327
-3.67557
-4.08415
2.51469
2.8073
2.72446
3.02679
2.81366
3.15427
2.74308
3.10843
2.50416
2.75468
2.10354
1.98216
1.55604
0.93019
0.675996
-0.229219
-0.420117
-1.29523
-1.53168
-2.21273
-2.47274
-2.96645
-3.14698
-3.55347
2.09603
2.38381
2.28625
2.58346
2.35426
2.68378
2.27748
2.62199
2.06089
2.2911
1.71718
1.62219
1.26237
0.740402
0.545213
-0.223742
-0.348728
-1.11224
-1.27107
-1.88466
-2.07154
-2.53579
-2.66862
-3.06621
1.69998
1.9812
1.87264
2.16389
1.92594
2.24645
1.8513
2.17852
1.6634
1.88079
1.37753
1.30996
1.00984
0.578945
0.43644
-0.214023
-0.282194
-0.94497
-1.03642
-1.58566
-1.70711
-2.13871
-2.22784
-2.60953
1.32991
1.60102
1.4849
1.76695
1.52755
1.83795
1.46034
1.7718
1.30423
1.51249
1.07479
1.03406
0.788408
0.439395
0.344772
-0.199823
-0.218446
-0.788113
-0.821232
-1.30698
-1.37026
-1.76489
-1.81419
-2.17231
0.987484
1.24166
1.12209
1.38903
1.1553
1.44954
1.09872
1.392
0.975895
1.17514
0.801014
0.784875
0.590662
0.317685
0.266282
-0.179957
-0.15653
-0.636116
-0.619944
-1.03954
-1.05238
-1.40288
-1.41654
-1.74109
0.680093
0.907782
0.789968
1.03296
0.813557
1.08314
0.769593
1.03799
0.679363
0.864136
0.550702
0.550532
0.407776
0.210236
0.197171
-0.154382
-0.0980475
-0.487366
-0.433087
-0.78177
-0.754058
-1.05183
-1.03574
-1.31527
0.391335
0.56744
0.464835
0.657737
0.477265
0.694314
0.447563
0.66525
0.392562
0.54653
0.315922
0.329327
0.23893
0.115069
0.129236
-0.114813
-0.0433606
-0.321605
-0.24889
-0.502494
-0.451059
-0.67079
-0.635423
-0.842722
0.201717
0.327953
0.247458
0.390213
0.254888
0.418065
0.239468
0.403773
0.208091
0.315011
0.112619
0.0587679
0.0469963
0.0427632
0.0769256
-0.0771532
-0.00652267
-0.191421
-0.119136
-0.291336
-0.235157
-0.386011
-0.34609
-0.487613
-133.591
-244.541
-13.583
-206.446
-382.568
-271.144
-165.36
-353.313
-388.787
-60.3314
-216.469
-338.979
33.944
-66.4038
-197.519
79.3568
194.015
188.366
33.4887
-49.5048
48.9285
184.473
16.5534
82.9198
-55.3357
-117.503
20.3182
-185.536
89.35
-225.769
-138.107
-61.494
-97.1262
-186.656
-131.672
-184.3
-265.468
-221.37
-476.918
-386.762
-351.363
-210.859
-161.326
-89.8011
-152.696
-187.611
-199.727
-277.731
-292.205
-526.389
-534.785
-327.054
-214.596
-218.559
-46.3023
-58.5577
-142.279
-115.284
-138.212
-204.947
-349.361
-447.467
-206.539
-159.373
-204.836
-146.053
-238.481
-70.2781
-83.7329
-140.766
49.7628
-30.8936
68.3593
69.3044
175.82
65.6672
48.266
37.0639
-212.817
-119.261
-73.714
-131.581
-228.981
92.7913
-112.594
-379.168
-209.996
-152.777
-200.545
-369.364
-290.942
-269.83
-192.248
-279.632
-301.496
-237.434
-278.796
-529.015
-481.554
-349.277
-466.233
-523.532
-375.757
-462.036
-333.554
-214.076
-271.477
-193.218
-281.426
-219.645
-300.85
-285.84
-452.08
-522.002
-384.939
-519.405
-440.561
-527.012
-523.164
-390.462
-132.121
-61.5917
-213.911
-142.493
-245.224
-342.713
-271.641
-338.856
-244.089
-435.271
-345.582
-289.572
17.808
64.4366
-52.0586
10.0967
-43.4923
-133.24
-231.503
-144.724
-139.676
112.072
125.453
69.4854
109.299
97.2772
57.0463
-49.7555
-99.3668
81.623
-72.1664
231.847
2.47101
28.0461
-46.3777
-8.77307
7.05354
-52.4925
33.5129
-23.2345
22.2942
-23.1672
-65.9867
189.145
-68.2447
71.6784
-172.83
-117.903
-61.4704
-128.414
-101.6
-100.861
-59.178
58.7935
81.5302
-53.4394
-14.5972
-31.0088
-84.2598
-120.921
-132.281
-46.5978
84.4343
112.286
-34.9318
40.825
-4.1098
307.991
196.838
121.947
121.928
197.657
310.083
-109.834
-74.4304
-119.68
208.273
-81.3147
-34.2502
-442.381
-433.549
-541.637
-540.438
-393.666
-401.475
-183.524
-151.256
-191.634
92.7557
41.3177
-24.6516
30.0165
6.54393
-203.368
-183.348
-249.59
-208.554
-253.026
-196.538
-196.841
-78.639
-33.661
-96.4819
-192.188
-311.254
-301.909
-293.227
-293.231
-257.89
-259.599
-507.723
-507.067
-502.06
-427.847
-404.895
-448.461
-433.813
-504.22
-424.155
-355.542
-316.03
-396.502
-366.811
-430.365
-256.456
-251.159
-302.05
-299.623
-491.231
-494.015
-491.371
-425.9
-443.877
-394.97
-418.644
-487.488
-535.295
-456.789
-451.712
-448.603
-456.247
-535.765
-105.962
-101.723
-106.265
-148.128
-59.4352
-100.77
-91.6648
-183.969
-152.897
-173.633
-291.158
-298.326
-394.491
-357.648
-386.341
-316.391
-347.454
-388.101
30.0282
56.2821
-23.9446
-15.5598
-53.7713
23.2241
-10.4613
-15.0609
-9.2189
25.6153
-81.7104
-84.6913
-32.0444
-145.392
-91.2361
-94.9506
-89.725
146.951
163.675
215.702
115.744
141.076
233.455
135.657
97.4206
437.51
33.0509
65.114
36.1363
64.4138
96.4077
67.2624
112.807
87.1696
99.0792
284.031
60.4943
14.4446
2.85076
77.234
86.1771
248.915
165.124
160.811
90.9531
102.459
142.942
142.64
217.286
468.218
323.628
219.74
270.756
349.189
478.522
-250.323
-208.893
-226.804
-466.416
-413.946
-408.833
-289.994
-243.921
-236.578
-247.304
-247.736
-291.957
-535.519
-536.73
-368.452
-428.717
118.557
104.995
18.29
37.3562
80.4324
123.468
100.855
116.039
-2.90456
-55.2302
176.042
-351.577
-382.124
-409.573
-279.587
-230.575
-164.539
-301.108
-248.488
-301.516
-284.229
-241.835
-248.79
-229.025
-241.42
-281.256
-286.759
-309.512
-300.77
-327.77
-326.491
-297.842
-298.054
-291.779
-270.531
-522.659
-492.629
-482.22
-451.44
-442.872
-486.778
-478.032
-516.777
-230.44
-216.288
-248.717
-272.149
-291.859
-310.254
-303.415
-332.819
-329.149
-314.358
-325.63
-292.654
-470.73
-511.649
-508.822
-471.81
-480.047
-428.135
-433.248
-459.431
-531.366
-493.549
-486.949
-484.762
-489.825
-531.094
-264.601
-275.147
-253.449
-351.899
-338.281
-324.031
-295.407
-272.916
-305.617
-229.002
-261.634
-282.278
39.2694
53.6079
27.4329
77.184
58.2709
45.778
160.817
169.127
88.403
105.487
83.7967
148.798
158.711
138.609
124.217
40.3076
327.501
90.0138
43.3326
8.12145
12.1794
45.5768
2.57903
-0.159854
63.2089
55.5068
267.936
3.18996
24.6677
-84.104
-75.7063
69.5927
74.8283
68.4937
74.2583
67.18
86.0311
76.8475
71.2423
-35.9475
-29.9492
-53.3503
-60.9084
95.8498
100.786
89.2731
107.254
123.66
-180.124
-154.599
-76.3248
-234.662
-176.793
-203.369
-462.635
-415.078
-537.67
-540.944
-374.188
-422.58
-177.42
-173.397
-193.457
-146.948
-166.884
-168.938
-228.455
-249.719
-200.01
-220.377
71.6358
91.8819
110.305
52.2927
83.3777
65.4666
89.8709
55.5785
-228.248
-199.868
-221.945
-161.914
-191.357
-219.959
-248.056
-259.427
-228.018
-243.948
-149.129
-113.461
-151.867
-164.029
-178.925
-354.139
-374.286
-343.997
-355.194
-306.075
-252.802
-346.995
-320.28
-264.269
-301.72
-343.742
-319.295
-313.097
-287.288
-316.574
-323.107
-311.381
-312.476
-332.569
-331.007
-322.475
-329.315
-298.055
-324.591
-319.818
-281.863
-292.628
-263.227
-277.257
-302.673
-308.579
-295.086
-302.003
-269.365
-290.308
-283.429
-522.127
-492.761
-465.617
-453.208
-487.376
-514.67
-477.286
-466.843
-272.413
-286.713
-267.196
-296.51
-281.886
-316.748
-301.641
-258.211
-237.854
-276.443
-262.952
-333.732
-332.555
-302.017
-337.039
-340.733
-333.209
-338.362
-331.241
-318.392
-337.73
-334.032
-296.184
-327.972
-332.318
-475.904
-504.03
-456.326
-466.334
-503.296
-468.109
-439.268
-450.672
-496.153
-492.771
-533.818
-533.109
-493.37
-494.111
-123.517
-122.828
-119.446
-103.108
-142.3
-125.235
-131.182
-76.5794
-75.0402
-61.5056
-97.6353
-80.6144
-82.9309
-209.076
-192.192
-231.184
-214.74
-168.791
-164.381
-147.799
-186.801
-169.97
-176.682
-302.481
-283.105
-271.734
-284.664
-302.19
-255.919
-276.284
-308.209
-317.327
-330.857
-307.971
42.3275
48.5585
38.4582
64.7206
52.5787
46.1554
66.9841
6.7013
33.0242
11.8468
-122.766
-119.523
-140.202
-90.7638
-112.832
-114.791
-114.563
-122.389
173.181
192.123
129.906
144.483
176.246
145.315
2.2287
-38.1399
6.52686
7.98718
49.8998
78.4771
631.073
469.964
396.082
474.902
529.677
649.427
69.7534
159.291
100.598
-180.043
-204.602
-244.278
-472.707
-475.311
-480.312
-532.518
-534.793
-181.129
-158.984
-177.285
-449.341
-443.42
-441.87
-246.648
-225.453
-219.074
-181.051
-140.391
-173.123
-253.501
-239.525
-219.173
-240.887
-287.768
-252.717
-244.223
-269.39
-257.427
-524.977
-486.666
-491.33
-485.996
-507.379
-504.698
-520.542
-434.629
-425.925
-450.317
-240.368
-208.612
-189.694
-231.91
-248.789
-233.459
-457.399
-455.519
-451.777
-519.155
-516.192
-498.21
-501.519
-528.6
-511.867
-509.938
-505.135
-508.468
-527.186
-202.877
-211.547
-226.494
-417.951
-404.303
-416.528
-193.739
-184.352
-217.684
168.531
169.262
132.194
112.92
93.064
168.622
168.932
91.579
119.47
81.4344
-60.7051
-39.9801
-95.6469
-58.2959
-63.9148
-65.0406
-47.689
-46.9
-52.5888
-13.0577
-18.2565
-19.8785
-83.2403
-76.7055
-77.1314
120.859
105.424
99.232
184.42
299.327
243.435
-132.426
-150.168
-129.445
-97.9928
-250.775
-231.562
-50.7272
27.4533
43.8969
-454.628
-456.994
-449.64
-426.334
-441.074
-447.628
-545.534
-541.019
-401.257
-394.033
-386.461
-409.469
-415.693
-409.167
-190.85
-196.204
-149.886
-156.408
-156.978
-201.456
-206.874
-212.28
-218.095
-198.341
-212.13
-241.308
-242.167
-248.351
-185.367
-195.621
-217.651
-271.132
-276.653
-253.088
-256.163
-253.169
-56.0173
-102.24
-133.494
-119.644
-111.88
-123.125
-176.362
-283.561
-272.755
-281.112
-272.791
-246.421
-280.718
-281.56
-511.108
-506.454
-393.748
-380.971
-404.703
-446.675
-416.452
-405.645
-238.999
-253.604
-267.391
-485.575
-495.943
-518.043
-517.871
-535.308
-537.032
-518.281
-518.049
-111.166
-111.956
-110.775
-104.974
-147.259
-141.963
-143.659
-190.057
-206.184
-194.254
-203.059
-197.914
-233.964
-229.732
-157.875
-157.968
-152.542
-193.197
-188.578
-381.434
-392.757
-412.004
-370.334
-358.721
-370.028
-31.0731
-30.2266
-20.2846
-51.8027
-40.8032
-36.6618
-61.588
-65.4914
-83.7361
-38.01
-52.44
-54.1191
-138.34
-136.435
-143.077
-99.0127
-91.2396
-141.438
194.118
196.674
208.074
141.47
129.769
140.19
126.318
154.374
144.086
135.212
216.52
182.259
116.533
133.408
118.244
204.197
389.412
113.112
79.8699
82.8419
196.239
204.684
232.078
94.0023
93.9903
89.26
103.165
98.441
97.9575
226.937
191.735
181.281
327.259
474.835
419.733
-471.093
-472.235
-469.423
-416.422
-418.293
-411.927
-430.6
-419.489
-535.819
-534.475
-375.398
-379.399
-359.529
-367.617
-435.128
-435.599
-429.077
111.704
117.033
124.081
105.74
111.419
106.19
-390.727
-388.959
-379.994
-405.344
-397.365
-400.465
-522.38
-489.382
-492.46
-492.861
-518.222
-502.474
-500.356
-464.849
-459.242
-464.314
-518.477
-490.711
-494.809
-513.528
-514.796
-513.14
-529.571
-529.851
-511.192
-513.025
-346.303
-346.89
-352.376
-335.29
-340.814
-341.896
170.833
173.224
160.639
164.293
152.681
159.06
155.133
145.726
137.674
133.678
140.782
144.797
129.021
133.266
129.141
24.2896
2.103
-8.75759
57.9433
271.33
229.747
303.032
112.006
144.775
194.283
22.2399
20.7678
11.123
39.7815
30.6621
32.4637
-14.5221
-12.1647
-21.9329
1.8723
-6.4255
-6.05754
85.6304
101.939
43.4899
-56.7556
-88.6285
-13.3517
-20.6499
-90.6768
-70.7854
-69.6505
-76.7702
70.916
72.6481
63.6402
66.4117
69.507
-35.5264
-41.2733
-41.8988
-16.8967
-11.5417
-23.1813
-24.5091
-22.3042
-29.6496
-50.4776
-44.9988
-46.5811
-43.6116
-52.4154
-29.3658
-36.4861
-69.2249
-68.9526
-60.6225
112.351
113.574
108.23
125.543
119.326
117.813
-187.963
-158.764
-154.679
-223.479
-231.74
-211.573
-458.599
-456.783
-463.069
-468.756
-439.057
-436.765
-450.081
-443.125
-542.261
-542.931
-393.176
-399.301
-383.439
-387.946
-380.007
-387.862
-382.39
-424.048
-419.485
-416.328
-408.588
-175.415
-184.553
-162.735
-162.945
-169.525
-236.483
-237.917
-229.296
-250.527
-245.792
-243.677
-206.712
-207.827
-201.609
-221.548
-213.061
-213.024
-214.01
62.2811
57.5359
47.9108
78.1949
66.6254
-218.283
-228.415
-235.961
-234.437
-223.637
-207.476
-217.434
-264.768
-266.989
-274.005
-269.967
-255.391
-253.327
-261.693
-150.95
-134.759
-145.934
-107.648
-187.066
-176.167
-167.248
-364.232
-346.87
-335.886
-369.751
-359.619
-373.694
-377.696
-365.444
-287.682
-290.089
-308.673
-273.811
-288.955
-271.3
-335.189
-321.319
-327.687
-331.845
-320.511
-323.723
-312.967
-316.335
-316.333
-314.901
-314.056
-331.486
-330.24
-323.675
-326.155
-287.435
-292.895
-286.896
-294.909
-294.155
-290.55
-267.043
-280.078
-277.503
-287.001
-283.339
-271.52
-283.606
-285.763
-304.047
-306.086
-304.991
-312.057
-308.75
-306.125
-297.738
-301.011
-297.623
-305.958
-306.07
-300.722
-515.604
-500.238
-292.262
-294.16
-296.638
-282.795
-289.467
-287.484
-312.135
-299.583
-303.592
-306.852
-252.11
-254.665
-261.475
-240.965
-247.301
-245.051
-271.603
-272.454
-276.93
-265.623
-268.671
-267.149
-337.648
-339.445
-336.162
-339.494
-325.792
-321.48
-334.882
-333.596
-480.041
-499.141
-535.425
-517.679
-516.384
-515.168
-517.052
-535.625
-116.581
-122.359
-116.697
-117.716
-138.265
-136.029
-129.072
-215.916
-208.948
-203.309
-208.658
-214.819
-225.601
-230.737
-235.456
-220.67
-225.58
-220.043
-226.322
-222.604
-169.805
-163.72
-163.116
-183.708
-175.898
-296.438
-291.915
-298.647
-278.161
-285.181
-290.331
-292.657
-297.689
-261.281
-261.962
-255.583
-268.951
-322.373
-320.622
-328.452
-305.222
-312.615
-315.085
44.9969
43.41
47.2128
35.5785
39.713
41.9548
62.7438
58.4615
60.9437
51.1774
55.176
56.9555
61.9002
4.42444
9.65026
-6.28496
-0.717428
27.7932
25.9168
30.5868
15.1963
22.4604
21.4486
-121.552
-129.383
-130.865
-106.749
-130.845
177.43
183.28
135.458
142.446
132.629
150.673
145.63
139.695
150.216
156.784
165.977
152.938
48.9119
66.925
52.6264
74.1457
84.2292
60.7188
82.682
63.6856
50.9108
53.4467
29.0834
28.5773
24.8255
36.3969
39.1384
45.1056
82.6103
71.4982
102.403
166.392
94.9644
165.93
88.5215
69.2237
63.7027
14.6766
24.7403
3.6529
-10.9069
-1.21455
5.33634
5.97674
31.6709
10.1446
38.6059
82.107
97.6044
162.041
141.013
267.368
189.053
151.122
60.0036
27.2603
38.8756
-43.2547
-42.5334
-24.0765
-25.2636
-46.6834
-6.25256
-21.8569
-25.1876
-3.39812
2.75863
6.43179
36.087
-111.587
-102.286
-48.6067
-123.231
-90.6654
-65.5674
-49.5238
-81.3758
-58.2619
-81.9066
-100.757
-86.0912
-162.792
-182.765
-168.167
-306.204
-239.59
-193.301
-184.288
-132.181
-114.069
-52.1535
-76.471
-83.7065
-99.5615
-120.038
-121.279
-206.958
-229.755
-230.318
-358.098
-285.656
-278.117
-189.984
-143.888
-142.476
-34.0504
-41.3967
-69.4788
-70.6775
-81.7007
-95.0609
-141.552
-153.297
-167.481
-272.758
-230.546
-257.756
-146.103
-122.636
-136.732
-7.90036
-0.565276
-30.7744
-33.7941
-33.235
-47.9207
-136.431
-126.867
-167.348
-83.1258
-83.2291
-103.957
13.4055
26.3602
7.90952
-13.3369
-35.3722
-57.9598
-30.1276
-44.3953
-62.7649
23.989
31.6219
28.2475
40.4707
60.5328
67.83
76.3039
94.5961
111.876
125.476
129.476
135.815
34.9816
4.60922
-13.3673
-8.21951
-17.8176
-29.4204
25.3328
31.5204
32.4077
37.0955
43.1972
55.762
45.0511
46.4954
73.0443
44.2341
33.1659
43.9858
27.3866
13.3386
6.77739
3.91258
-5.17496
-10.294
29.3114
33.0363
37.7507
30.6716
36.068
40.1227
32.2403
23.0489
29.9491
20.8119
12.9075
14.2361
-151.173
-131.366
-115.725
-214.298
-239.249
-286.821
2.03527
-36.0237
-47.027
-228.91
-225.598
-203.335
-373.812
-414.738
-429.889
-300.617
-338.847
-294.592
-180.995
-193.48
-175.825
-365.998
-405.724
-382.771
-432.904
-439.039
-392.327
-62.5667
-77.2522
-73.9777
-234.555
-254.919
-225.277
-373.805
-347.005
-323.406
-84.1467
-81.6425
-62.6196
-206.378
-184.572
-177.988
113.36
103.568
68.517
216.253
197.331
180.492
178.424
175.761
213.076
-44.1309
-25.8653
-33.1612
106.395
163.554
91.2584
742.148
640.3
650.157
156.268
190.42
266.011
745.395
776.732
39.5712
62.7167
36.9779
133.728
156.656
78.4119
-68.0699
-47.3422
-38.9656
-63.454
-54.7194
-81.2138
2.26544
-25.9672
-42.9946
-152.219
-164.994
-222.87
112.423
66.838
51.0936
-178.359
-120.667
-141.786
-112.723
-119.914
-152.058
-56.4296
-87.2204
-86.931
-118.491
-111.598
-90.9942
-172.551
-135.009
-143.124
-103.856
-121.897
-165.233
-205.468
-195.101
-174.333
-260.813
-247.249
-252.161
-207.029
-215.327
-228.322
-396.543
-405.802
-394.341
-276.485
-248.163
-320.726
-198.316
-227.316
-242.307
-181.48
-206.903
-181.823
-106.368
-114.887
-96.0111
-176.405
-137.63
-126.639
-146.228
-144.346
-182.045
-221.685
-226.871
-204.196
-282.906
-265.26
-260.833
-275.354
-275.676
-292.957
-268.086
-280.52
-353.344
-220.298
-251.978
-243.961
-251.427
-254.66
-221.883
-51.4471
-66.9365
-58.8565
-95.721
-76.7659
-57.5744
-112.199
-95.2642
-108.108
-123.392
-138.522
-128.591
-167.499
-150.061
-126.097
-197.225
-188.621
-196.538
-356.182
-364.354
-356.029
-181.412
-217.37
-256.928
-176.612
-195.688
-174.447
-231.27
-214.918
-192.086
-158.973
-165.945
-146.045
-241.641
-235.044
-232.282
-83.6084
-107.268
-119.549
-102.353
-106.738
-84.5796
-151.939
-128.833
-121.546
39.9172
48.7613
59.2848
-27.6488
-14.2428
-18.2303
74.4552
88.7135
73.723
102.814
93.3898
77.0047
152.591
133.29
129.277
69.8264
81.4525
100.325
49.2874
71.984
59.1543
82.2846
75.3099
46.9819
-203.302
-188.248
-198.154
-87.4283
-129.971
-168.091
-95.8791
-108.654
-82.8398
-151.543
-181.016
-153.615
61.5593
67.6952
106.691
-128.221
-103.85
-89.7532
-370.66
-380.168
-388.43
-219.558
-236.803
-227.109
-163.567
-200.888
-185.463
-229.659
-215.065
-188.302
-334.862
-319.78
-339.313
-289.158
-273.315
-274.686
-256.403
-260.415
-274.004
-198.769
-220.624
-213.888
-282.964
-289.253
-286.693
-310.967
-309.944
-299.515
-284.568
-282.055
-275.242
-386.882
-409.129
-362.7
-471.279
-464.474
-458.08
-398.032
-367.223
-352.066
-455.627
-449.224
-457.545
-315.345
-349.495
-378.984
-223.037
-214.024
-205.838
-255.509
-249.772
-264.368
-185.31
-204.688
-214.167
-279.349
-288.188
-292.059
-223.059
-228.083
-223.874
-302.764
-312.704
-311.648
-295.969
-299.067
-287.457
-428.727
-412.913
-376.671
-434.941
-437.356
-445.318
-392.921
-438.582
-433.088
-121.788
-123.46
-140.079
-62.1457
-72.094
-71.3115
-209.287
-212.441
-217.754
-145.625
-162.224
-152.89
-251.361
-254.751
-248.283
-348.212
-341.626
-336.632
-297.24
-265.95
-253.294
-319.487
-311.778
-323.75
-239.072
-251.15
-256.777
-429.999
-425.16
-428.908
-335.694
-347.369
-364.331
-306.857
-337.116
-307.752
25.2893
28.7114
21.0003
68.7348
62.417
58.2594
-42.5011
-41.8784
-52.0916
12.983
4.60455
2.00018
-56.2439
-54.639
-41.0929
-139.371
-119.245
-120.371
-218.858
-214.864
-226.977
-139.876
-172.951
-181.999
-158.727
-163.306
-142.509
122.692
151.617
137.497
149.911
153.99
122.836
76.5118
81.3147
74.791
84.9824
125.834
128.656
-54.2387
-23.7848
-23.7929
-27.4117
-23.563
-73.0795
49.84
13.5308
-0.185639
265.585
208.518
186.557
-0.819975
-2.75081
12.8276
-38.4455
-19.9891
-11.4415
-5.87852
-19.2117
-21.0414
-17.2263
-16.6229
-2.08771
-48.6175
-32.1497
-25.6826
25.1734
27.9325
36.9066
-22.0952
-14.6594
-15.4799
-1.63887
-16.5261
-2.30294
145.563
159.136
210.913
-104.581
-74.0861
-40.5247
-35.0015
-44.1582
19.8732
-142.021
-68.9265
-72.4779
-82.2467
-78.4234
-121.545
-89.474
-83.8269
-63.3076
-117.226
-92.4063
-99.0625
-87.8269
-92.617
-108.021
62.3551
64.6388
61.555
83.195
79.7861
77.713
-38.9259
-37.6717
-29.9227
-121.928
-101.604
-102.367
-94.9941
-95.6455
-128.973
-56.7978
-85.1339
-82.7114
88.4159
89.9389
86.427
114.881
110.256
107.408
0.476654
-17.1463
-37.8949
18.8607
1.92317
11.2774
-17.9983
-8.92005
6.43177
267.061
316.459
422.37
188.215
277.53
244.637
206.649
277.582
179.708
148.279
182.908
151.492
249.982
293.893
192.408
428.345
334.975
273.174
-72.7143
-144.101
-114.251
87.3154
90.5479
143.707
-65.2678
-31.1016
-43.0795
7.73234
16.6898
-29.5415
-192
-172.463
-172.061
-199.066
-201.431
-195.068
85.1228
91.1906
97.8006
45.1731
53.6783
49.2956
-2.02021
-9.6024
-23.7187
18.886
4.63661
5.75488
-5.792
-0.859153
12.4358
-210.271
-188.792
-168.567
-208.43
-234.49
-216.457
-179.891
-163.423
-175.086
-61.9659
-84.2025
-98.5906
-63.0623
-74.0488
-44.349
-324.791
-335.813
-323.671
-288.694
-301.652
-313.825
-301.454
-299.709
-290.597
-295.684
-304.215
-302.655
-265.32
-262.265
-253.341
-263.901
-270.704
-267.834
-486.398
-483.483
-499.269
-420.766
-440.095
-447.789
-424.538
-431.401
-413.089
-444.154
-466.242
-471.166
-454.467
-460.698
-439.48
-507.201
-491.701
-488.809
-413.255
-405.06
-417.446
-343.171
-362.279
-374.645
-334.832
-349.142
-330.22
-387.228
-406.857
-416.047
-386.18
-396.974
-377.561
-436.461
-425.85
-417.8
-261.492
-265.809
-259.448
-247.901
-252.325
-256.701
-313.017
-313.296
-301.355
-299.653
-310.684
-311.804
-473.959
-477.602
-494.766
-432.399
-455.832
-448.189
-468.973
-462.89
-438.638
-403.045
-420.476
-409.633
-439.791
-430.548
-411.182
-482.074
-465.717
-470.012
-455.974
-481.005
-482.286
-475.321
-478.669
-454.449
-452.107
-478.18
-474.198
-482.27
-480.974
-454.869
-103.052
-117.833
-111.483
-65.3213
-65.0911
-59.4941
-99.3333
-93.6649
-95.2045
-81.3632
-82.6996
-93.5787
-163.305
-167.908
-184.549
-295.001
-288.746
-285.102
-304.523
-307.993
-301.436
-389.307
-394.726
-400.472
-367.436
-380.322
-369.905
-400.213
-390.478
-377.223
-326.843
-337.023
-325.798
-359.101
-348.149
-337.314
-382.165
-376.462
-381.92
34.3134
36.4033
32.1213
58.7295
55.7038
53.1972
-22.5005
-32.004
-33.1163
-20.6917
-21.8258
-16.5149
-54.1951
-48.4448
-48.0731
9.75836
8.01496
16.6373
-10.6246
-1.1262
4.94639
-6.35723
-4.15155
-13.2356
-3.83851
-2.19338
-7.63993
27.4319
22.8137
21.1747
-81.0533
-67.9117
-68.8226
-77.2291
-76.8715
-84.0478
-32.8423
-40.7828
-39.7001
-90.9797
-98.4202
-98.6584
-107.899
-107.271
-94.8975
152.409
165.697
156.855
183.551
169.083
157.639
120.718
123.552
119.157
125.539
139.356
163.335
103.495
109.452
104.852
59.4613
46.8224
52.4503
26.4213
37.6581
56.1049
87.4475
76.6269
84.4219
58.2799
67.7234
77.0732
106.465
114.623
123.424
92.0687
106.155
97.9312
124.05
109.71
96.3821
41.8789
36.4919
47.7326
11.6161
24.4719
35.5458
13.9153
18.7109
6.76374
224.552
250.245
312.763
169.218
189.567
184.947
172.039
183.185
167.702
147.618
159.817
153.401
167.094
170.843
150.136
295.715
217.363
215.07
428.007
468.851
583.9
323.118
386.167
374.034
335.719
416.59
304.171
302.551
346.176
311.63
400.823
465.66
354.241
597.84
511.462
451.339
-236.253
-242.107
-255.848
-216.726
-228.602
-222.49
-238.628
-233.506
-219.936
-401.365
-414.12
-424.123
-271.871
-269.092
-287.016
-243.453
-257.124
-259.344
-249.686
-253.449
-238.424
-249.436
-262.854
-262.216
-261.476
-262.173
-246.853
-292.858
-275.109
-274.011
-377.142
-371.707
-362.705
25.3569
37.5609
29.6107
55.54
45.6829
32.6346
69.3598
57.8433
67.9918
117.769
126.711
143.905
107.792
117.402
109.172
129.421
119.568
110.02
-9.82052
28.2103
29.332
33.3525
30.9066
-16.0811
125.33
79.59
67.461
-363.646
-372.13
-362.918
-261.827
-239.205
-255.772
-208.068
-222.837
-244.904
-175.671
-200.262
-188.304
-285.216
-302.616
-319.077
-265.381
-284.963
-268.186
-321.857
-302.092
-282.709
-269.389
-271.675
-286.908
-246.047
-258.46
-255.822
-261.692
-259.967
-245.56
-234.998
-246.862
-242.603
-253.477
-250.021
-236.324
-277.789
-263.771
-266.915
-293.719
-291.377
-283.648
-307.091
-299.4
-301.211
-295.336
-297.426
-303.573
-327
-315.722
-316.544
-314.386
-315.246
-326.932
-300.019
-309.318
-308.129
-295.643
-290.943
-293.213
-286.696
-288.848
-293.534
-274.241
-280.043
-277.632
-471.755
-467.771
-476.088
-444.916
-456.901
-461.674
-482.699
-497.071
-499.857
-492.125
-494.902
-482.252
-227.375
-239.438
-244.556
-226.986
-233.142
-220.381
-256.694
-243.382
-236.735
-279.324
-283.51
-274.547
-297.449
-289.889
-285.874
-298.201
-294.303
-304.389
-313.762
-313.199
-301.87
-332.61
-319.723
-320.112
-317.537
-318.752
-330.874
-318.111
-304.735
-301.588
-310.997
-308.015
-321.94
-291.495
-302.358
-304.844
-473.679
-489.642
-486.205
-496.145
-493.274
-478.716
-443.996
-438.445
-430.133
-452.142
-444.786
-450.181
-490.293
-505.521
-507.392
-501.911
-504.202
-490.647
-485.624
-502.069
-499.542
-506.287
-504.724
-489.755
-268.401
-261.567
-258.27
-267.195
-263.634
-270.822
-250.419
-256.77
-259.854
-330.367
-334.924
-328.582
-288.17
-300.429
-307.036
-283.928
-291.549
-279.998
-314.411
-302.971
-294.875
-238.852
-245.201
-234.029
-268.324
-256.644
-250.184
-269.521
-263.403
-275.705
43.1243
36.0536
32.3785
43.437