/*--------------------------------*- C++ -*----------------------------------*\
| =========                 |                                                 |
| \\      /  F ield         | OpenFOAM: The Open Source CFD Toolbox           |
|  \\    /   O peration     | Version:  5.x                                   |
|   \\  /    A nd           | Web:      www.OpenFOAM.org                      |
|    \\/     M anipulation  |                                                 |
\*---------------------------------------------------------------------------*/
FoamFile
{
    version     2.0;
    format      ascii;
    class       surfaceScalarField;
    location    "500";
    object      phi;
}
// * * * * * * * * * * * * * * * * * * * * * * * * * * * * * * * * * * * * * //

dimensions      [0 3 -1 0 0 0 0];

internalField   nonuniform List<scalar> 
13181
(
0.000415288
0.412036
0.000410974
0.412519
0.000371802
0.412532
0.000327596
0.412537
0.000250611
0.412592
-7.51218e-05
0.412818
-0.000275293
0.412699
-0.000301821
0.412528
-0.000245108
0.412443
-3.57167e-05
0.41229
0.000348551
0.412117
0.000836873
0.412011
0.00128792
0.412048
0.00155996
0.412229
0.00160417
0.412455
0.00146048
0.412643
0.00119931
0.412763
0.000880917
0.412818
0.00037267
0.413001
-6.31961e-05
0.412951
-0.000624693
0.413054
-0.00085085
0.412719
-0.000892913
0.412557
0.411533
0.000605952
0.411324
0.00165424
0.411471
0.0016923
0.412494
0.00169151
0.412537
0.00144475
0.412839
0.000604396
0.413659
-0.000504919
0.413809
-0.00085194
0.412875
-0.000802251
0.412393
-0.000395316
0.205936
0.205947
0.000381307
0.205668
0.205673
0.0014093
0.205482
0.205501
0.00236207
0.205527
0.205569
0.00293084
0.205804
0.205856
0.00301258
0.206161
0.206212
0.00236782
0.413288
0.00138478
0.413746
0.000408684
0.413794
-0.000617449
0.414027
-0.000972402
0.413306
-0.00099304
0.413075
-0.00103177
0.412757
-3.46394e-05
0.41156
0.411332
-9.85e-05
0.411251
7.29164e-05
0.4113
0.00100335
0.411563
0.000954464
0.412586
0.00104439
0.412749
0.00114525
0.413558
-0.000295186
0.415249
-0.0012461
0.413826
-0.000687164
0.412702
-0.000868535
0.205805
-0.000556594
0.205445
-0.00016098
0.000383907
-0.000137483
0.205136
0.000483786
-0.000865555
0.205163
0.0012291
-0.00154297
0.205568
0.00177943
-0.0019033
0.206161
0.00190387
0.00182772
0.207465
-0.00144989
-0.00196633
0.207411
0.000121035
0.415452
-0.000441359
0.414356
-0.000371797
0.413957
-0.000425867
0.41336
-0.000484783
0.413134
0.000308823
0.411964
0.000356646
0.411512
0.411424
-0.000339244
0.411358
-0.000427883
0.411388
-0.000398929
0.411534
0.000273007
0.411914
0.000129774
0.412892
0.000210095
0.413477
8.00658e-05
0.415379
-0.000776338
0.414682
-0.00130131
0.207702
-0.00140038
0.206926
0.205598
-0.00115511
-0.205744
0.204851
-0.000635462
-0.205172
0.000956079
0.000148102
0.204025
0.000489914
-0.204663
-0.00121917
0.203947
0.00192575
-0.204654
-0.002454
0.205375
0.00239345
-0.205314
-0.00162589
0.20753
0.00067416
-0.206579
-4.7522e-05
0.207597
-8.37174e-05
0.00134074
0.207557
-0.000545865
-4.28881e-05
0.207143
0.0010607
0.414636
0.00070103
0.414317
0.000232082
0.413829
0.000760074
0.412606
0.000738618
0.411985
0.000510264
0.41174
0.411585
-0.00040034
0.411473
-0.0005567
0.411545
-0.000740765
0.411718
-0.000757523
0.411931
-0.000383527
0.412518
-0.000439012
0.413533
0.00116986
0.41377
0.00125508
0.206466
0.000753476
0.207378
0.208936
2.08925e-05
0.205957
-0.00116803
-0.205647
0.000858172
0.204825
-0.00157705
-0.20459
0.00134194
0.000915943
0.000214277
-0.203176
0.10101
0.101035
-0.00162966
0.00303732
-0.202976
0.100785
0.100783
-0.00348965
0.00186893
-0.20618
0.103626
0.104175
-0.00234806
0.20753
0.00241322
-0.207596
-0.00204474
0.207931
0.00205857
-0.207945
-0.00197497
0.207601
0.00193152
0.00219567
0.415868
-0.00183985
-0.00158729
0.00132009
0.415193
0.00142316
0.413726
0.00119511
0.412834
0.000840806
0.41234
0.000589662
0.411992
0.411766
-0.000430643
0.411584
-0.000591924
0.411706
-0.000808794
0.411935
-0.00112455
0.412247
-0.00125438
0.412648
-0.00125385
0.413532
-0.000808179
0.414485
-0.0011606
0.206849
-0.00119131
0.207172
0.000556606
-0.208654
0.000925395
0.206248
0.00145219
-0.206381
-0.00131899
-0.10286
-0.000262358
0.103114
8.13322e-06
-0.100484
0.000494773
0.100602
-0.000612349
-0.0997771
-0.000978704
0.0992126
0.00154319
-0.103152
-0.00124089
0.101873
0.00251987
-0.00183816
0.00464519
-0.207831
-0.00200978
0.103325
0.103709
-0.00448197
0.208628
0.00385039
-0.207997
-0.00314434
-0.20806
0.20866
0.00254386
0.00280599
0.417475
-0.00230303
-0.00211004
0.00222509
0.415773
0.00173713
0.414214
0.00121354
0.413357
0.00086343
0.41269
0.000602481
0.412253
0.41194
-0.000446883
0.411697
-0.000613726
0.411873
-0.000810303
0.412132
-0.00108605
0.412523
-0.00150071
0.413063
-0.00184705
0.413879
-0.00122997
0.41507
-0.00120232
-0.207208
0.207594
-0.00161604
-0.207191
0.207798
-0.00271331
0.00210651
-0.206705
0.207749
0.00351835
-0.00214629
-0.00241689
-0.102591
0.00219547
0.102637
-0.00224199
-0.0501996
0.000765217
0.0500381
-0.000603681
-0.000520162
-0.0476659
0.0474276
0.000758445
-0.00207858
-0.102687
0.00408639
-0.00145686
0.0504797
0.0516559
-0.00468065
-0.103962
0.104504
0.00413886
-0.00621083
-0.209692
0.210988
0.00491507
-0.0038629
-0.209352
0.210205
0.00300916
0.00321006
0.418856
-0.00227541
-0.00231571
0.00236172
0.416622
0.00157388
0.415002
0.00105934
0.413872
0.000722775
0.413026
0.000493217
0.412482
0.412032
-0.000403229
0.411778
-0.000553807
0.412023
-0.000720393
0.412298
-0.000991719
0.412794
-0.00135292
0.413424
-0.00188691
0.414413
-0.00111825
0.415629
-0.00132696
-0.207988
0.208395
-0.00152567
-0.208578
0.209312
-0.00280709
0.00207265
-0.209184
0.210718
0.00385303
-0.00264343
-0.00274354
-0.104194
0.00383792
0.105067
-0.00471108
-0.0509746
0.00435757
0.0515892
-0.00497215
-0.0064564
-0.0521388
0.0527576
0.00583758
-0.00656436
-0.106557
0.10754
0.00558144
-0.00723286
-0.212691
0.214366
0.00555769
-0.0043118
-0.211226
0.212131
0.00340706
0.00297765
0.420906
-0.00236814
-0.00265964
0.00168461
0.417915
0.00108878
0.415597
0.000702181
0.414258
0.000484441
0.413244
0.00037321
0.412593
0.412083
-0.000350643
0.411839
-0.000422649
0.412095
-0.000532788
0.412408
-0.000661432
0.412923
-0.000840412
0.413603
-0.00108918
0.414661
-0.000884192
0.416062
-0.000638297
-0.208434
0.208727
-0.00117725
-0.210176
0.210682
-0.00224113
0.00173537
-0.212157
0.213104
0.00289668
-0.00206792
-0.00177519
-0.107475
0.00300686
0.108059
-0.00359166
-0.0553457
0.00333539
0.055687
-0.00367669
-0.00551417
-0.0573224
0.0578209
0.00501572
-0.00504223
-0.110307
0.111122
0.00422665
-0.00495968
-0.21594
0.217131
0.0037687
-0.00286031
-0.212936
0.213541
0.00225476
0.0020278
0.421768
-0.00118692
-0.00170299
0.000941516
0.419001
0.000363403
0.416175
0.000214011
0.414408
0.000143221
0.413315
0.000116712
0.41262
0.412006
-0.000256538
0.411857
-0.000310898
0.41215
-0.00033172
0.412429
-0.00036586
0.412957
-0.000328151
0.413565
-0.000256298
0.41459
-0.000176025
0.415898
8.37274e-05
-0.208979
0.209227
-0.000423518
-0.210932
0.210924
-0.000433477
0.000442251
-0.213526
0.213383
0.000353882
-0.000281069
7.00484e-05
-0.108949
0.000353535
0.108932
-0.000336854
-0.0567823
0.000226514
0.056764
-0.000208185
-0.00113266
-0.0597871
0.0598441
0.00107567
-0.00111508
-0.112584
0.112731
0.000968123
-0.000843868
-0.21782
0.217936
0.000728104
-0.000639646
-0.213927
0.214049
0.000517722
0.000381528
0.421606
0.000136555
-0.000355582
0.00050657
0.418876
-0.000204376
0.416886
-0.00038806
0.414591
-0.0002404
0.413167
-0.000141914
0.412521
0.411841
-0.000182172
0.411861
-0.000179478
0.412147
-0.000143464
0.412393
-3.20063e-05
0.412845
0.000101576
0.413431
0.000470192
0.414221
0.000435665
0.415395
0.000537552
-0.209259
0.209203
0.000491854
-0.210676
0.210222
0.00125136
-0.000797355
-0.212738
0.211744
-0.00194451
0.00133787
0.00160017
-0.108056
-0.0020186
0.107556
0.00251886
-0.055471
-0.00240244
0.0551765
0.00269691
0.00308051
-0.0587108
0.0583926
-0.00276224
0.00285389
-0.112091
0.111609
-0.00237158
0.00317195
-0.217508
0.216653
-0.00231627
0.00162116
-0.213861
0.213441
-0.00120094
-0.00124488
0.420604
0.00129858
0.00094766
-0.000541659
0.418173
-0.000129951
0.416475
-0.00097358
0.415435
-0.000682887
0.412876
-0.0004185
0.412257
0.411594
-9.77899e-05
0.41184
-3.17751e-05
0.412081
5.73217e-05
0.412304
0.000223521
0.412679
0.00053277
0.413122
0.00106875
0.413685
0.000792405
0.414805
0.000866513
-0.208909
0.2086
0.0011021
-0.209655
0.209046
0.00216085
-0.00155142
-0.210546
0.209341
-0.00301961
0.00209909
0.00212504
-0.105792
-0.00301619
0.105194
0.00361449
-0.0529098
-0.00317451
0.0525924
0.00349195
0.00498847
-0.0556471
0.0552368
-0.00457817
0.00505611
-0.109573
0.108817
-0.00429942
0.00567515
-0.21539
0.213895
-0.0041808
0.00317133
-0.212817
0.212088
-0.00244216
-0.00233028
0.418992
0.00205128
0.0018914
-0.00132682
0.417169
-0.000649403
0.415797
-0.000309545
0.415095
-0.00106693
0.413634
-0.000705814
0.411896
0.411264
-3.66369e-05
0.411809
4.86614e-05
0.411996
0.000158007
0.412195
0.00036988
0.412467
0.000675054
0.412817
0.00120078
0.413159
0.000971583
0.414082
0.000952158
-0.208256
0.207926
0.00130194
-0.208449
0.207929
0.00218868
-0.00166865
-0.208233
0.207344
-0.00286212
0.00193978
0.00181167
-0.103633
-0.00263207
0.10324
0.00302491
-0.0507582
-0.00240894
0.0505904
0.00257673
0.0046394
-0.052361
0.0519907
-0.00426909
0.00504654
-0.1066
0.105958
-0.00440488
0.00592332
-0.212272
0.210931
-0.00458293
0.00359177
-0.211339
0.210619
-0.00287198
-0.00274173
0.417345
0.00218449
0.00220408
-0.00166527
0.416093
-0.000909983
0.415042
-0.000743247
0.414928
-0.00122165
0.414112
-0.000957745
0.411632
0.410875
1.96724e-05
0.41176
8.12569e-05
0.411934
0.000204195
0.412072
0.000371249
0.4123
0.000625297
0.412563
0.000985992
0.412799
0.00142208
0.413646
0.00127675
0.414713
0.000815868
-0.207663
-0.207721
-0.207531
0.207294
0.00151409
-0.206714
0.207221
0.000960096
-0.00146673
-0.102867
0.000202925
0.104099
-0.00143455
-0.0512648
0.00211516
0.0504989
-0.00134925
-0.0195835
0.000681713
0.019672
-0.000770238
0.00167846
-0.050533
0.101658
-0.00348791
0.00144153
-0.0507575
-0.104599
0.00350547
0.1044
-0.0033063
0.00448444
-0.209907
0.209135
-0.00371248
0.00305761
-0.210081
0.209888
-0.00286535
-0.00256994
0.416099
0.00180304
0.00201274
-0.001643
0.415166
-0.000961493
0.414361
-0.00143886
0.415406
-0.000183103
0.412856
-0.00104754
0.412496
0.410569
4.98674e-06
0.411746
5.01476e-05
0.411889
0.000122012
0.412
0.000218174
0.412204
0.000388418
0.412393
0.000511742
0.412675
6.54405e-05
0.414092
-0.000710209
0.4172
-0.00171092
-0.207829
0.208729
-0.00160997
-0.207864
0.207123
-0.000912746
0.00165398
-0.102818
-0.000251506
0.10271
0.000359542
-0.101523
0.000236816
0.101877
-0.000590611
-0.0449796
0.00189595
0.092631
-0.00259663
-0.0469507
-0.102986
0.00298762
0.102744
-0.00274534
-0.207584
0.00328019
0.20807
-0.0059848
0.00221851
0.00558005
-0.208714
0.208174
-0.00504039
-0.00629555
0.415692
0.00318968
0.00462679
-0.210576
-0.206637
-0.00501681
0.41482
-0.00404748
0.414197
-0.00316516
0.413478
-0.0006642
0.412905
-0.000183689
0.412376
0.000198687
0.412114
0.411652
-8.09356e-06
0.411752
-1.07674e-05
0.411892
7.49622e-07
0.411989
3.9809e-05
0.412165
5.32724e-05
0.412379
-0.000141366
0.41287
-0.00139008
0.415341
-0.00172283
0.41754
-7.65489e-06
-0.208665
0.207444
-0.000502281
-0.206679
0.206755
1.3634e-05
-8.9486e-05
-0.206055
0.206514
-0.000711195
0.00025253
-0.102653
0.000660391
0.102815
-0.000822712
-0.0940219
0.00130528
0.0945218
-0.00180516
-0.102717
0.00192372
0.206016
-0.00423289
-0.102837
0.00184667
-0.20767
0.00464231
0.207379
-0.00435089
-0.207839
0.00412837
0.207553
-0.00384206
-0.00476073
0.413992
0.00302714
0.00343301
-0.00341042
0.41347
-0.0028986
0.413685
-0.00259376
0.413173
-0.00227592
0.412587
-0.00191466
0.412015
-0.0014274
0.411627
0.411219
-5.85807e-05
0.411802
-6.72369e-05
0.4119
-9.48921e-05
0.412016
-0.00013325
0.412203
-0.000221338
0.412467
-0.000822717
0.413471
-0.00169211
0.41621
-0.000495823
0.416344
-0.000306468
0.414852
-0.207454
-0.207166
-0.000422472
-0.206948
0.207085
-0.000444029
-0.206896
0.207216
-0.000988387
0.000668533
-0.206289
0.00137453
0.206571
-0.0016567
-0.195557
0.00214088
0.196257
-0.00284103
-0.206447
0.00309261
0.206591
-0.00323642
-0.207142
0.00321037
0.207025
-0.00309302
-0.207358
0.00301762
0.207209
-0.00286892
-0.00463831
0.413435
0.00253698
0.00265861
-0.00387354
0.412705
-0.00308504
0.412896
-0.00226878
0.412357
-0.00153911
0.411857
-0.00120786
0.411683
-0.00108191
0.411501
0.411214
-9.55737e-05
0.411874
-0.000154452
0.411959
-0.000240065
0.412102
-0.000324593
0.412288
-0.000586453
0.412729
-0.0016714
0.414556
-0.00174249
0.416281
-0.00089768
0.415499
-0.00125837
0.415213
-0.000911307
0.415213
-0.207251
-0.207303
-0.00100648
-0.207488
0.207727
-0.00114967
-0.206763
0.00148371
0.20668
-0.0014012
-0.196812
0.00185797
0.197445
-0.0024909
-0.20673
0.00229838
0.206859
-0.00242798
-0.00463486
0.413982
-0.207012
-0.207011
0.00226065
0.00241626
-0.00440758
0.413896
-0.20709
-0.207033
-0.00403055
0.413058
-0.00367802
0.412353
-0.00299003
0.412208
-0.00238503
0.411752
-0.00187483
0.411347
-0.0014518
0.41126
-0.000874225
0.410923
0.411468
-0.000136895
0.411965
-0.000242605
0.412065
-0.000334686
0.412194
-0.000454204
0.412407
-0.000667383
0.412942
-0.00150244
0.415391
-0.0012213
0.416
-0.00096116
0.415239
-0.00140298
0.415655
-0.00198434
0.415794
-0.00251142
0.416325
-0.207968
-0.207829
-0.00316918
0.407974
-0.205873
-0.201443
-0.00381582
0.403794
-0.198701
-0.204446
-0.0039468
0.414446
-0.207042
-0.207273
-0.0039302
0.413965
-0.00380236
0.413768
-0.00353551
0.412791
-0.00325363
0.412071
-0.00275648
0.411711
-0.0023214
0.411317
-0.00200092
0.411027
-0.0015066
0.410766
-0.00108854
0.410505
0.411536
-0.000179183
0.412072
-0.000282165
0.412168
-0.000418981
0.412331
-0.000563326
0.412552
-0.00078052
0.41316
-0.00127688
0.415888
-0.00114403
0.415867
-0.00110673
0.415202
-0.00144227
0.41599
-0.00188071
0.416233
-0.00226033
0.416704
-0.00269742
0.408411
-0.00313503
0.404232
-0.00330816
0.414619
-0.00338585
0.414043
-0.00331305
0.413696
-0.00313113
0.412609
-0.0028998
0.41184
-0.00254029
0.411352
-0.00218787
0.410965
-0.00186867
0.410707
-0.00149796
0.410395
-0.00114946
0.410157
0.411552
-0.000220321
0.412191
-0.000361066
0.412309
-0.000513836
0.412483
-0.000674643
0.412713
-0.000839484
0.413324
-0.00105197
0.4161
-0.00109572
0.415911
-0.00117728
0.415283
-0.00145836
0.416271
-0.00181299
0.416587
-0.00208986
0.416981
-0.00239876
0.40872
-0.00271967
0.404552
-0.00285636
0.414756
-0.00295737
0.414144
-0.00291136
0.41365
-0.00278195
0.41248
-0.00261432
0.411672
-0.00234784
0.411085
-0.00206117
0.410678
-0.00177803
0.410424
-0.00145732
0.410075
-0.00115283
0.409852
0.411559
-0.000259123
0.41232
-0.000410758
0.41246
-0.000551476
0.412624
-0.000722224
0.412883
-0.000894344
0.413497
-0.000995725
0.416202
-0.00112384
0.416039
-0.00135173
0.415511
-0.00144901
0.416369
-0.00174022
0.416879
-0.00195942
0.4172
-0.0021659
0.408926
-0.00239438
0.404781
-0.00251745
0.414879
-0.00260428
0.41423
-0.00257857
0.413624
-0.00248988
0.412391
-0.00237297
0.411555
-0.0021376
0.41085
-0.0019477
0.410488
-0.00166826
0.410145
-0.00141322
0.40982
-0.0011705
0.409609
0.411534
-0.000317663
0.412478
-0.00043128
0.412574
-0.000600741
0.412794
-0.000753867
0.413036
-0.000927643
0.41367
-0.00102599
0.4163
-0.00115287
0.416166
-0.00135864
0.415717
-0.00141811
0.416428
-0.00165935
0.41712
-0.00183555
0.417376
-0.00197339
0.409064
-0.0021372
0.404945
-0.00224143
0.414983
-0.00231687
0.414306
-0.00230118
0.413608
-0.00223681
0.412327
-0.00212692
0.411445
-0.00197681
0.4107
-0.0018056
0.410317
-0.00156551
0.409905
-0.00134716
0.409601
-0.00111664
0.409379
0.411538
-0.000328188
0.412617
-0.000490925
0.412737
-0.000640504
0.412943
-0.000795072
0.413191
-0.000966681
0.413842
-0.00103658
0.41637
-0.00116091
0.41629
-0.00134496
0.415901
-0.00148862
0.416572
-0.00158402
0.417215
-0.00172319
0.417516
-0.00181151
0.409152
-0.00192783
0.405061
-0.00201657
0.415072
-0.00208016
0.414369
-0.00207076
0.413599
-0.00202184
0.412278
-0.00193867
0.411362
-0.00179662
0.410558
-0.00165723
0.410177
-0.00149412
0.409742
-0.00130611
0.409413
-0.00112775
0.409201
0.411501
-0.000358631
0.412757
-0.0005003
0.412878
-0.000672564
0.413115
-0.000826026
0.413344
-0.000970538
0.413986
-0.00103298
0.416432
-0.00115709
0.416415
-0.00132078
0.416065
-0.00149097
0.416742
-0.00150759
0.417232
-0.0016225
0.417631
-0.00166422
0.409194
-0.00175593
0.405153
-0.00181731
0.415133
-0.00188007
0.414432
-0.00187505
0.413594
-0.00184201
0.412245
-0.00178067
0.411301
-0.00168386
0.410461
-0.00156946
0.410063
-0.00138771
0.40956
-0.00122484
0.40925
-0.00107145
0.409047
0.411487
-0.000386794
0.412897
-0.000527991
0.413019
-0.000675802
0.413263
-0.000826422
0.413495
-0.000987741
0.414148
-0.00104215
0.416487
-0.00114182
0.416514
-0.00128932
0.416212
-0.00144107
0.416894
-0.00169742
0.417488
-0.00172437
0.417657
-0.00171164
0.409181
-0.00173061
0.405172
-0.00178017
0.415183
-0.00181447
0.414467
-0.00180978
0.413589
-0.00179304
0.412228
-0.00175957
0.411267
-0.00172499
0.410426
-0.00151834
0.409856
-0.00135798
0.4094
-0.00119319
0.409086
-0.00103832
0.408892
0.411468
-0.000413103
0.413036
-0.000552315
0.413159
-0.000674367
0.413385
-0.00084363
0.413664
-0.000975784
0.41428
-0.00104465
0.416556
-0.00112344
0.416593
-0.00125643
0.416345
-0.00150431
0.417142
-0.00172312
0.417707
-0.00180402
0.417738
-0.00180977
0.409187
-0.00185174
0.405214
-0.00190923
0.41524
-0.00194382
0.414501
-0.00193868
0.413584
-0.00191509
0.412205
-0.00185038
0.411202
-0.00178423
0.41036
-0.00170309
0.409775
-0.00158108
0.409278
-0.00147684
0.408981
-0.0013389
0.408754
0.411108
-0.000437862
0.413171
-0.000574037
0.413295
-0.000714571
0.413526
-0.000834009
0.413784
-0.000959436
0.414405
-0.00102041
0.416616
-0.00110444
0.416677
-0.00133339
0.416574
-0.00154693
0.417355
-0.00166944
0.41783
-0.00173115
0.4178
-0.00172224
0.409178
-0.00174861
0.40524
-0.00179259
0.415284
-0.00182247
0.414531
-0.00181936
0.413581
-0.00179891
0.412184
-0.00176101
0.411165
-0.0016826
0.410282
-0.00161261
0.409705
-0.0015259
0.409191
-0.00141201
0.408867
-0.00130973
0.408652
0.410738
-0.000461412
0.413302
-0.000571145
0.413405
-0.000706937
0.413662
-0.000821502
0.413898
-0.000962794
0.414547
-0.00101651
0.41667
-0.00119052
0.416851
-0.00141107
0.416795
-0.00151381
0.417458
-0.00161773
0.417933
-0.0016724
0.417855
-0.00164787
0.409154
-0.00166014
0.405252
-0.00169946
0.415324
-0.00172384
0.414555
-0.00172023
0.413577
-0.00170163
0.412165
-0.00166641
0.411129
-0.00161764
0.410233
-0.00153368
0.409621
-0.00143485
0.409092
-0.00137508
0.408808
-0.00126102
0.408538
0.410378
-0.000461293
0.413406
-0.000611893
0.413555
-0.000719931
0.41377
-0.000852216
0.414031
-0.000941931
0.414636
-0.00112473
0.416853
-0.00131071
0.417037
-0.00139123
0.416875
-0.00148442
0.417551
-0.00157727
0.418026
-0.00161809
0.417896
-0.00158534
0.409121
-0.00158416
0.405251
-0.00161785
0.415357
-0.00164247
0.41458
-0.00163584
0.413571
-0.00162067
0.41215
-0.00158657
0.411095
-0.00154341
0.41019
-0.00146553
0.409543
-0.00139668
0.409023
-0.00129928
0.40871
-0.00121532
0.408454
0.410023
-0.000505306
0.413527
-0.00060605
0.413656
-0.000708823
0.413872
-0.000836453
0.414158
-0.00107875
0.414879
-0.00136877
0.417143
-0.00129853
0.416967
-0.00137152
0.416948
-0.0014546
0.417634
-0.00154105
0.418113
-0.00157665
0.417931
-0.0015335
0.409078
-0.00152567
0.405243
-0.00155505
0.415387
-0.00157166
0.414597
-0.00156878
0.413568
-0.00155441
0.412136
-0.00152019
0.411061
-0.00145874
0.410128
-0.00142965
0.409514
-0.0013442
0.408938
-0.00127388
0.40864
-0.00119546
0.408376
0.409651
-0.000502822
0.41362
-0.000621597
0.413775
-0.000741512
0.413992
-0.000819776
0.414237
-0.00150948
0.415568
-0.00134177
0.416975
-0.00129012
0.416915
-0.00135729
0.417015
-0.00143372
0.417711
-0.00151113
0.41819
-0.00154072
0.417961
-0.00149143
0.409029
-0.00147451
0.405226
-0.00150272
0.415415
-0.00151908
0.414613
-0.00151278
0.413561
-0.00149894
0.412122
-0.00146591
0.411028
-0.00142982
0.410092
-0.00135866
0.409443
-0.001322
0.408901
-0.00123208
0.40855
-0.00115729
0.408301
0.40928
-0.000543753
0.413728
-0.000613087
0.413844
-0.000727494
0.414107
-0.00121032
0.414719
-0.00153218
0.41589
-0.00136122
0.416804
-0.00128094
0.416835
-0.00134414
0.417079
-0.0014146
0.417781
-0.00148744
0.418263
-0.00150975
0.417983
-0.00145854
0.408977
-0.0014388
0.405207
-0.00146206
0.415438
-0.00147659
0.414628
-0.00147126
0.413556
-0.00145806
0.412109
-0.00142281
0.410993
-0.00138931
0.410059
-0.00134144
0.409395
-0.00126331
0.408823
-0.0011966
0.408483
-0.00110174
0.408206
0.408931
-0.000536922
0.413807
-0.00064816
0.413955
-0.000734299
0.414193
-0.0013288
0.415314
-0.00148649
0.416048
-0.00133678
0.416655
-0.00127549
0.416774
-0.00133458
0.417138
-0.0013992
0.417846
-0.00146904
0.418333
-0.00148942
0.418003
-0.00143457
0.408923
-0.00141167
0.405184
-0.00143212
0.415459
-0.00144584
0.414641
-0.00143839
0.413549
-0.00142646
0.412097
-0.00138991
0.410956
-0.0013591
0.410028
-0.00131055
0.409347
-0.00125755
0.40877
-0.00116766
0.408393
-0.0010963
0.408135
0.408557
-0.00054797
0.413878
-0.00063586
0.414043
-0.000715163
0.414272
-0.00117571
0.415774
-0.00141661
0.416289
-0.00136045
0.416598
-0.00126863
0.416682
-0.00133246
0.417202
-0.00138968
0.417903
-0.00145796
0.418401
-0.00147357
0.418019
-0.0014198
0.408869
-0.00139481
0.405159
-0.0014145
0.415478
-0.00142954
0.414656
-0.00141561
0.413535
-0.00140959
0.412091
-0.00138928
0.410936
-0.00134044
0.409979
-0.00128856
0.409295
-0.0012172
0.408699
-0.00116845
0.408345
-0.00107681
0.408043
0.408178
-0.000578069
-0.00066629
-0.000716571
-0.00095374
-0.00109693
-0.00136288
-0.0012656
-0.00133049
-0.00137623
-0.00144399
-0.00145457
-0.00141383
-0.00139193
-0.00140287
-0.00141726
-0.00140107
-0.00139872
-0.00135142
-0.00132939
-0.00127339
-0.00122819
-0.00113084
-0.00108561
0.00368474
-0.00407271
-0.0549577
0.0576031
0.00592258
-0.0569783
-0.00322267
-0.00332469
-0.0516846
-0.0071433
0.0523715
0.000636823
-0.000658785
-0.0567603
0.0603067
0.0017362
-0.0601793
-0.000870267
-0.000993278
0.058154
-0.00298703
-0.00307802
-0.00216501
0.00244472
-0.0557507
0.0590352
-0.00266744
-0.0593828
0.00155162
0.00146343
0.0603717
-0.000537009
-0.000660647
-0.00317575
0.00349614
-0.0532302
0.0556385
-0.00490424
-0.0560919
0.00535762
0.0586627
0.00176547
0.00168753
-0.00255563
0.00276658
-0.0509691
0.0520639
-0.00479884
-0.0524847
0.00521967
0.00546922
0.0551577
0.00222669
-0.00295744
-0.050534
-0.000768169
0.0214451
0.00048831
-0.0107304
-0.0104348
-0.000966606
-0.00923493
-0.0101501
0.0501662
-0.00250908
-0.0501088
0.0024517
0.00498745
0.0517158
0.00412958
-0.00460419
-0.0505
-0.0474084
1.84672e-05
0.0468697
0.00597091
-0.0511021
-0.00655333
-0.0500712
-0.00233549
0.0503281
0.00350152
-0.00423781
-0.106738
0.0551017
-0.0547559
0.00333889
-0.0514563
0.00388119
0.0519326
0.013873
0.00556323
-0.0273898
0.0139291
-0.00295427
-0.00302117
0.00499056
-0.0241475
-0.00541622
0.0245731
0.00536609
-0.0567659
0.110964
0.00575977
-0.109859
-0.00686471
-0.106292
-0.00773112
0.107459
0.00106426
-0.00120062
-0.108812
0.0564512
-0.0564273
0.000612922
0.00301956
0.0554175
0.0564182
0.00223595
-0.00243221
-0.0562219
0.0289055
-0.000776052
-0.0288465
0.00144198
-0.000724938
-0.0284164
-0.00247514
0.00237924
0.0285123
0.0148186
0.000480684
-0.0151996
-9.9605e-05
-0.0148497
0.00232686
-0.0025544
0.0150773
0.00162015
-0.059671
0.113649
0.00220668
-0.113301
-0.00255489
-0.00602335
0.111945
-0.00152844
0.00194876
-0.108477
0.0553294
-0.0555795
-0.00191492
0.000229647
0.056448
0.0564363
-0.000936179
0.00108371
-0.0565838
0.0294323
0.000618242
-0.0295161
-0.000894977
0.000360483
-0.0294911
-0.000121726
0.000144159
0.0294766
-7.96148e-06
0.0138919
2.21934e-05
-0.0138679
-4.62447e-05
-0.0139018
5.42988e-05
0.0139204
-7.28862e-05
-0.0023743
-0.059004
0.112908
-0.0019535
-0.113386
0.00243133
-0.00124668
0.113781
-0.00292072
0.00352675
-0.106398
0.0529835
-0.0532813
-0.00287787
-0.00213814
0.0550651
0.0542161
-0.00291707
0.00324734
-0.0545464
0.00227557
0.0272858
-0.0274038
-0.00215757
-0.0282648
0.000984962
-0.00182547
0.0280974
0.00100793
0.0153564
-0.00195027
-0.0157325
0.00232641
-0.0145661
-0.00040813
6.6679e-05
0.0149076
-0.00445982
-0.0560915
0.109812
-0.00464727
-0.110712
0.0055474
0.00346751
0.112295
0.0265226
-0.00362206
-0.0266601
0.00189505
0.00186454
-0.0139087
-0.00178414
0.0018242
0.0138686
-0.00441491
-0.052745
0.106284
-0.00522287
-0.10711
0.00604874
0.00595902
0.108909
0.0242083
-0.00259492
-0.0243114
0.00269805
-0.0252804
-0.00329359
0.00344451
0.0251295
-8.64209e-06
-0.000402377
-0.101112
-0.00100397
0.046852
-0.0464603
0.0006123
0.000508801
0.021618
-0.00158449
-0.0443991
-0.00325013
0.102579
-0.102975
0.00364598
0.00147807
0.0503666
-0.00254325
-0.0283702
0.00249705
-0.00367453
-0.0271479
0.00343943
0.027383
-0.0534693
0.00445549
0.0540079
-0.00499408
-0.0272209
0.0274937
-0.00199247
-0.0019549
0.0284845
-0.0285633
-0.00124615
-0.0012183
0.00370469
-0.0244636
0.0247956
-0.00403665
0.00378656
-0.00403025
-0.0269772
0.00206847
-0.0149437
-0.00197447
0.00277349
-0.00285474
0.0139542
-0.0548233
0.00679913
-0.00755879
0.0555829
-0.0276434
-0.00274003
0.0279884
0.00516843
0.0149097
0.00206935
-0.0149106
-6.77813e-05
-0.02951
0.000282407
-0.000195728
-0.00078858
0.00138642
0.0291398
-0.000832106
0.00183865
0.0565773
-0.00199773
-0.0143926
0.0145126
-0.000908615
0.0150456
-9.04143e-05
-0.015023
0.0143217
0.0143308
-0.00126517
-0.00137796
-0.000794041
-0.0143746
-2.02872e-05
-0.0139784
9.68959e-05
0.000769089
-0.000301949
0.0143514
-0.0594227
0.00348245
0.0597361
-0.00184159
-0.00195434
-0.0149555
0.0146689
0.00105568
0.0152619
0.000103171
-0.0153854
0.0150808
0.00215576
0.000817459
-0.0152923
0.0040361
-0.0590624
-0.0021423
-0.0022541
0.000995113
-0.0284242
-0.00174291
0.000907122
0.000583419
-0.00110797
0.0291424
0.000814416
-0.00127885
0.0562335
0.00148162
-0.0152278
0.0150413
0.000769946
0.0142756
0.00107432
-0.0143548
0.0149946
-7.06471e-05
0.000593376
-0.0152029
-0.000699079
-0.0141568
0.000289719
-1.03951e-05
0.0139046
-2.29376e-06
-0.0601559
-0.00120176
0.0599508
0.000756961
0.000649856
-0.0152632
0.0153426
-8.97467e-05
0.0147364
-0.000952297
-0.0144832
0.0151994
0.000116784
-6.67489e-05
-0.0151743
-0.000648787
-0.0602958
0.000450462
0.000338286
-0.0272782
-0.0022899
0.0272045
0.0011471
0.00121651
0.0263011
-0.00234964
0.00244936
-0.0264008
0.0141542
0.00110633
-0.0273661
0.00118647
0.00117705
-0.00184686
-0.0139969
0.00193505
-0.00212751
0.0026875
0.0147964
-0.0574263
-0.00433445
0.0569851
0.00240326
0.00237236
-0.0151356
0.0148076
-0.00179949
0.0277949
0.00182331
-0.00342716
-0.0280379
0.0150359
-0.000707612
-0.00171883
-0.015367
-0.00408527
-0.0578549
0.00228359
0.00223031
-0.0254336
-0.00209081
0.0253423
0.0021821
0.0247987
-0.00174855
0.00181987
-0.0248701
-0.00234437
0.0262342
0.00241121
-0.00213425
0.00223934
-0.0255387
-0.00333319
-0.0254489
0.0035017
-0.00361648
0.0263504
0.00191047
0.00187818
0.00176787
0.0276658
-0.00342299
0.0266199
-0.00346902
-0.026773
0.0538053
-0.0051687
-0.0542425
0.00560593
-0.0242894
-0.00106144
0.0242401
0.00111079
0.0244077
2.41038e-05
2.65702e-06
-0.0244345
-0.00167532
0.0247193
0.00175478
-0.00118023
0.00121572
-0.0243249
0.0242337
-0.000793659
-0.0245629
0.00112287
-0.00247218
0.00258276
0.0240977
0.00455092
-0.00515117
-0.0528691
-0.0269031
0.00354171
-0.0248113
0.00345631
0.0250597
0.0129049
0.00384304
-0.016934
0.000186129
0.0035015
-0.0111903
-0.00372649
0.0114153
-0.0028076
0.0032718
-0.104097
0.0509828
-0.051177
-0.00236143
-0.0028794
0.0526883
0.0517132
-0.00302895
0.00330377
-0.051988
0.0255176
-0.0256119
-0.00204002
-0.0263537
-0.00224784
0.0262572
0.0121784
-0.00192114
-0.0123572
0.00210003
-0.0125928
-0.00208327
0.00224684
0.0124292
-0.00249516
-0.0505469
-0.00398995
0.10395
-0.104359
0.00439928
0.00579963
0.105531
-0.0113598
0.00272649
0.0116802
-0.00304689
0.0133388
0.0030149
-0.00301334
-0.0133404
-0.0245926
0.024937
0.00464621
0.00524207
-0.0273222
0.00685696
-0.0539918
-0.00768847
-0.0264678
-0.00223555
-0.00218388
0.0271798
-0.00302908
0.0538868
0.00335836
-0.0118144
-0.000203634
0.0120658
-4.7783e-05
0.012732
-0.000675994
0.000217482
-0.0122734
-0.0123291
-0.00117628
0.0122389
0.00126645
0.0124197
-0.00117458
0.00125502
-0.0125002
-0.000491708
0.0131179
0.000105756
-0.00142312
0.012575
0.00122356
-0.0123755
-0.00193006
-0.0124322
0.00176951
-0.0025512
-0.0117266
0.00224143
0.0120364
-0.00511193
0.00556923
0.053348
0.0264638
-0.00346036
0.0254342
-0.00317995
-0.0255875
-0.00109805
0.0122334
0.00128443
0.0120639
-0.000909695
0.000926009
-0.0120802
0.0252886
-0.00314797
0.024422
-0.00251294
-0.024504
0.0507227
-0.00386695
-0.0510313
0.00417547
0.000146832
-0.023855
0.000297944
0.0234102
0.00200546
-0.0487927
0.02432
0.0237047
-0.000752968
-0.000484533
0.0034049
-0.00369016
-0.0241784
0.00459803
-0.0238039
-0.00494159
0.00354701
-0.0476611
-0.00158332
-0.00217791
0.0235069
0.0243684
-0.0245809
0.0242216
0.000506191
0.00352231
0.00934869
3.38751e-05
-0.0260201
0.00572184
0.026503
-0.003087
-0.00311775
-0.0134254
0.0129855
0.00396225
-0.0113635
0.0115311
0.00333388
0.00403435
-0.0136167
0.00565466
-0.0255597
-0.00611502
-0.0151412
0.0028657
-0.0038796
0.0161551
0.00249454
-0.0147738
-0.00286194
-0.0138149
-3.64932e-05
0.0137559
9.55213e-05
-2.25991e-05
-0.0138299
3.75974e-05
-0.0145958
-0.00222871
0.00265977
0.0141647
-0.00259923
-0.0156216
0.00362499
-0.0136004
-0.00356823
0.0270947
-0.0136594
0.00191561
0.00181777
0.0138066
-0.00139397
-0.0123653
-4.73355e-05
-0.00181098
-0.01365
0.00186057
0.0116256
-0.00153742
-0.0116199
0.00153168
-0.00187319
0.00200845
0.0120431
-0.0125247
0.0124244
-0.00198292
0.0121139
-0.00181644
-0.0122186
0.0246846
-0.00301182
-0.0248299
0.00315715
0.00124885
-0.0127608
0.0115195
-7.57477e-06
0.0280802
0.00325587
-0.0278966
-0.00172449
-0.001715
0.0115123
-0.0123697
0.000916653
-5.91904e-05
-0.0139726
0.00202587
0.0131956
0.00253412
0.00897634
1.80375e-06
0.00315606
0.028382
-0.00176158
-0.00169632
-0.0016614
-0.0144074
0.00209619
-0.00316104