/*--------------------------------*- C++ -*----------------------------------*\
| =========                 |                                                 |
| \\      /  F ield         | OpenFOAM: The Open Source CFD Toolbox           |
|  \\    /   O peration     | Version:  5.x                                   |
|   \\  /    A nd           | Web:      www.OpenFOAM.org                      |
|    \\/     M anipulation  |                                                 |
\*---------------------------------------------------------------------------*/
FoamFile
{
    version     2.0;
    format      ascii;
    class       volVectorField;
    location    "500";
    object      U;
}
// * * * * * * * * * * * * * * * * * * * * * * * * * * * * * * * * * * * * * //

dimensions      [0 1 -1 0 0 0 0];

internalField   nonuniform List<vector> 
6584
(
(45.0026 -0.0069175 1.64337e-25)
(45.0019 -0.0152669 7.99066e-24)
(45.0025 -0.0208865 7.41616e-29)
(45.0026 -0.0286563 -1.4541e-23)
(45.003 -0.0369879 0)
(45.003 -0.0462266 0)
(45.0027 -0.0554507 0)
(45.0009 -0.0614221 1.54696e-23)
(44.9981 -0.0615098 1.56072e-23)
(44.9933 -0.0490361 0)
(44.9882 -0.0155274 5.42198e-24)
(44.9847 0.0368469 -9.38441e-24)
(44.9858 0.0953216 -4.51853e-25)
(44.9911 0.140447 1.12348e-24)
(44.9975 0.160256 3.2425e-25)
(45.0041 0.155256 3.87866e-23)
(45.0071 0.13622 3.44806e-23)
(45.0081 0.112423 2.80158e-24)
(45.0076 0.0884305 2.38089e-23)
(45.0065 0.0672436 1.70622e-23)
(45.0053 0.0499833 0)
(45.0045 0.0351522 0)
(45.0034 0.0248623 2.52296e-23)
(45.0042 0.0110151 1.54327e-23)
(45.0108 -0.0145009 -7.78867e-24)
(45.0094 -0.0306811 -3.02644e-23)
(45.0115 -0.0411502 -4.09509e-23)
(45.0126 -0.0568199 0)
(45.0146 -0.0736336 -5.80921e-24)
(45.0149 -0.0928137 -4.7135e-23)
(45.0133 -0.112979 -2.90845e-23)
(45.0048 -0.127229 4.94839e-23)
(44.9926 -0.130238 -2.78135e-24)
(44.9602 -0.107356 -1.05791e-23)
(44.9214 -0.0391769 -3.1821e-27)
(44.8963 0.0712129 0)
(44.9031 0.196318 2.30964e-23)
(44.9405 0.291443 1.27549e-23)
(44.9896 0.332367 -8.69578e-23)
(45.0224 0.319568 -2.30536e-23)
(45.0355 0.276337 -5.29948e-23)
(45.0396 0.225378 -6.90001e-23)
(45.0366 0.175361 -1.76003e-22)
(45.0313 0.132311 -1.44353e-22)
(45.0253 0.0980698 -1.01277e-23)
(45.0212 0.068536 -4.22444e-24)
(45.0165 0.0494564 0)
(45.0175 0.0228469 1.35023e-23)
(45.0237 -0.0221588 -1.96306e-23)
(45.0229 -0.0451974 0)
(45.0277 -0.0596638 -8.22293e-24)
(45.0314 -0.0831912 -5.32849e-23)
(45.0366 -0.108941 -8.24845e-23)
(45.0389 -0.139917 0)
(45.0362 -0.175985 0)
(45.0177 -0.203894 -1.29499e-23)
(44.982 -0.234521 -5.32972e-24)
(44.9266 -0.159214 4.26215e-24)
(44.8617 -0.0760988 -7.58815e-24)
(44.8114 0.0684468 -1.07858e-23)
(44.8182 0.24483 0)
(44.8856 0.383237 0)
(44.9717 0.445774 1.35529e-24)
(45.0576 0.513422 -9.62493e-23)
(45.0934 0.425071 0)
(45.1016 0.338175 -3.14271e-23)
(45.0922 0.257343 0)
(45.0773 0.19101 -2.33075e-23)
(45.0621 0.140408 -6.14972e-23)
(45.0508 0.097108 -3.639e-23)
(45.04 0.071199 0)
(45.0382 0.0341396 1.04806e-23)
(45.0394 -0.0291446 -1.196e-23)
(45.0409 -0.0575315 0)
(45.0495 -0.0750764 -1.10251e-23)
(45.0579 -0.105911 0)
(45.0689 -0.140612 0)
(45.0774 -0.18567 0)
(45.0774 -0.243666 -2.8396e-23)
(45.0535 -0.300891 1.59443e-22)
(44.9867 -0.375341 -1.094e-23)
(44.88 -0.298772 1.26594e-23)
(44.7385 -0.20312 -7.93372e-24)
(44.5958 0.0285222 1.68539e-24)
(44.5842 0.366444 2.05089e-24)
(44.7437 0.630478 0)
(44.9441 0.707692 -1.4341e-22)
(45.0862 0.64414 0)
(45.2041 0.581322 0)
(45.2003 0.448829 2.22163e-22)
(45.1757 0.329196 1.4401e-22)
(45.1421 0.238436 -4.76612e-23)
(45.1123 0.172993 -3.28115e-23)
(45.0895 0.118033 0)
(45.0703 0.0874569 1.53679e-23)
(45.0626 0.0433575 1.23556e-23)
(45.0568 -0.0347156 -4.5765e-24)
(45.0621 -0.0663822 -2.77871e-25)
(45.0757 -0.0856457 -1.3211e-24)
(45.0915 -0.122395 -2.06601e-24)
(45.112 -0.164564 2.14815e-24)
(45.1349 -0.224357 1.16339e-22)
(45.1468 -0.308851 -2.18946e-22)
(45.1417 -0.40402 1.91594e-22)
(45.009 -0.446506 1.0666e-23)
(44.87 -0.503854 5.84212e-23)
(44.5938 -0.449406 -8.92543e-24)
(44.2073 -0.108924 1.08703e-23)
(44.1265 0.546216 -1.73786e-24)
(44.5304 1.03519 2.0477e-22)
(44.9671 1.08984 0)
(45.2132 0.915998 1.39697e-22)
(45.2903 0.687049 -3.04661e-23)
(45.3398 0.520484 -1.7556e-22)
(45.2871 0.379448 -9.89986e-23)
(45.2235 0.265957 4.11538e-23)
(45.1734 0.190946 -2.22712e-24)
(45.1344 0.12797 -1.2247e-24)
(45.1047 0.0957326 1.74156e-23)
(45.0882 0.0490743 -6.4741e-24)
(45.0746 -0.0381608 2.23826e-24)
(45.0849 -0.0704744 -6.01927e-24)
(45.1045 -0.089384 -2.26207e-25)
(45.1303 -0.129199 0)
(45.1641 -0.173939 -2.62469e-23)
(45.2098 -0.245437 -1.71468e-23)
(45.2459 -0.334784 -8.73737e-23)
(45.2091 -0.439951 -1.80395e-23)
(45.1355 -0.597539 7.28164e-23)
(44.9869 -0.811288 3.30236e-22)
(44.4695 -0.837788 7.25801e-23)
(43.7274 -0.511012 1.15284e-26)
(43.3695 0.686154 -3.18561e-24)
(44.2434 1.61173 3.02886e-23)
(45.1573 1.6639 -3.15836e-22)
(45.4881 1.22856 0)
(45.5248 0.860681 1.86361e-26)
(45.5214 0.555617 3.23988e-23)
(45.421 0.396616 7.72193e-24)
(45.317 0.266259 4.73449e-23)
(45.2409 0.189271 -1.69857e-23)
(45.1816 0.123841 0)
(45.1399 0.0938285 -8.86133e-24)
(45.1121 0.0499865 -1.21222e-23)
(45.0909 -0.0389418 1.1122e-26)
(45.1072 -0.0689551 -2.93673e-24)
(45.1329 -0.0849183 3.57988e-24)
(45.1702 -0.123812 1.07042e-24)
(45.2193 -0.164051 1.30852e-24)
(45.2925 -0.239792 -3.84247e-23)
(45.366 -0.323665 -5.42405e-23)
(45.3602 -0.4693 -8.4987e-25)
(45.3885 -0.712264 -1.04546e-23)
(45.3404 -1.11629 5.3224e-23)
(44.7457 -1.56829 0)
(43.1202 -1.73524 4.90359e-23)
(41.1135 0.941045 1.91744e-24)
(44.1204 3.28539 1.4163e-22)
(45.5768 2.31939 -9.05254e-25)
(45.9949 1.47489 0)
(45.8685 0.934103 9.62473e-23)
(45.7357 0.516608 2.11522e-23)
(45.5663 0.363471 1.75114e-23)
(45.4136 0.231467 -4.51535e-24)
(45.3074 0.163727 -3.67526e-23)
(45.2256 0.103491 0)
(45.1716 0.0802695 -8.00336e-24)
(45.1312 0.045121 -7.21149e-24)
(45.1043 -0.036863 -2.56423e-24)
(45.1264 -0.0617657 2.30086e-24)
(45.1573 -0.0721423 1.12799e-24)
(45.2053 -0.105467 4.44525e-25)
(45.2691 -0.133073 -1.98548e-24)
(45.3686 -0.199508 1.90667e-23)
(45.4854 -0.255519 6.58407e-27)
(45.5442 -0.414982 -1.10261e-23)
(45.7234 -0.672911 8.33098e-27)
(45.96 -1.15477 -1.28568e-22)
(45.8471 -2.10577 -7.27544e-24)
(44.9826 -4.47462 2.70522e-24)
(45.9881 5.81185 2.54223e-23)
(46.8838 2.81506 -2.48679e-23)
(46.7278 1.44483 5.30715e-23)
(46.2907 0.830886 -1.08468e-23)
(45.9462 0.378881 3.52945e-23)
(45.6993 0.268848 3.61954e-23)
(45.4985 0.157695 2.47683e-23)
(45.363 0.112781 -1.07606e-23)
(45.2601 0.0666632 0)
(45.1951 0.0548826 0)
(45.1422 0.0341162 -1.16591e-28)
(45.1135 -0.0322043 -4.29892e-25)
(45.1402 -0.0498928 -2.71275e-26)
(45.1743 -0.0527262 -1.80244e-25)
(45.2296 -0.0763501 1.9879e-24)
(45.3032 -0.0846935 3.08304e-24)
(45.419 -0.12799 1.22212e-23)
(45.5676 -0.13649 3.37303e-23)
(45.7019 -0.264549 0)
(46.0184 -0.423517 0)
(46.5561 -0.713172 0)
(47.2401 -1.48427 -4.20171e-24)
(48.7819 -3.28723 6.6397e-25)
(50.6233 4.91153 0)
(48.5777 2.07717 0)
(47.4251 0.942913 0)
(46.6673 0.501621 1.05854e-23)
(46.0968 0.149442 0)
(45.7886 0.116966 -3.85178e-23)
(45.5539 0.0502441 -2.55392e-23)
(45.397 0.0398953 -2.3211e-24)
(45.2784 0.0160309 0)
(45.206 0.0192795 3.40623e-25)
(45.1424 0.0174297 1.56491e-26)
(45.1179 -0.0257269 6.63233e-26)
(45.1473 -0.0353383 -1.09021e-25)
(45.1817 -0.030123 1.13379e-25)
(45.2389 -0.042014 5.72693e-25)
(45.314 -0.029167 -1.33747e-24)
(45.4296 -0.0421846 -8.18354e-26)
(45.5845 -4.82554e-05 -4.33978e-24)
(45.7677 -0.0576981 -1.39513e-25)
(46.1239 -0.0468118 0)
(46.7421 0.00532093 -1.17441e-23)
(47.7724 -0.0786875 1.88403e-29)
(49.9271 -0.180979 -1.61011e-24)
(52.6878 0.977288 -4.19533e-24)
(49.472 0.342437 -1.50507e-23)
(47.7303 0.0915495 -1.15265e-22)
(46.8468 0.011743 0)
(46.14 -0.124046 -7.49878e-23)
(45.8087 -0.0676413 0)
(45.5663 -0.0752501 -3.83215e-25)
(45.4013 -0.0459481 0)
(45.276 -0.0426602 3.21362e-25)
(45.2012 -0.0231026 -1.56797e-25)
(45.1305 -0.00360503 -1.92575e-24)
(45.1176 -0.0185147 0)
(45.1474 -0.020652 -4.62557e-25)
(45.1793 -0.00861326 -3.49522e-25)
(45.2328 -0.00961998 -1.20702e-24)
(45.3011 0.0205688 1.67999e-24)
(45.4007 0.0350109 7.43374e-24)
(45.5345 0.113112 1.9961e-23)
(45.719 0.133325 6.84125e-24)
(46.0025 0.29238 0)
(46.4501 0.61947 5.56832e-23)
(47.2623 1.15778 1.59631e-23)
(48.6817 2.47439 -9.3112e-25)
(51.6513 -2.90905 -1.84679e-24)
(49.13 -1.4196 2.54215e-23)
(47.5246 -0.764162 4.93039e-24)
(46.7644 -0.48529 6.66223e-23)
(46.0638 -0.377169 3.31791e-22)
(45.7549 -0.248853 1.84712e-22)
(45.5319 -0.19746 -1.24717e-22)
(45.3737 -0.132668 -8.84379e-23)
(45.2516 -0.101939 6.2026e-24)
(45.1799 -0.0676575 2.72495e-24)
(45.1064 -0.0270372 -6.17402e-24)
(45.1139 -0.0116913 1.0924e-25)
(45.1419 -0.00820727 7.21388e-25)
(45.1692 0.0080844 1.04351e-24)
(45.215 0.0147441 -7.31358e-25)
(45.2709 0.0544389 -2.34626e-32)
(45.3456 0.0857418 1.08079e-23)
(45.4422 0.176319 3.11194e-23)
(45.5874 0.250358 5.75893e-24)
(45.7391 0.473054 0)
(45.9055 0.884825 -1.78009e-23)
(46.2148 1.64088 -4.25517e-24)
(46.4134 3.2253 -1.8834e-24)
(48.9828 -4.72188 -6.30195e-25)
(47.9514 -2.45042 0)
(46.9637 -1.33216 -1.02967e-22)
(46.4745 -0.849528 8.35929e-23)
(45.8961 -0.561506 4.7177e-22)
(45.6431 -0.394449 3.11915e-22)
(45.4581 -0.297928 0)
(45.3189 -0.20888 -7.8e-23)
(45.2079 -0.154867 -4.3109e-23)
(45.1437 -0.109753 3.94019e-24)
(45.0718 -0.0507237 -4.80954e-24)
(45.1082 -0.0061381 0)
(45.133 0.000444012 1.38718e-25)
(45.1549 0.0179565 -1.58187e-25)
(45.1916 0.0280645 -4.26798e-25)
(45.2335 0.0688277 0)
(45.2833 0.104229 -1.18718e-24)
(45.3418 0.186458 5.70849e-24)
(45.4307 0.277393 -7.76429e-26)
(45.4643 0.476287 2.12287e-24)
(45.4016 0.798325 8.23913e-24)
(45.2731 1.38756 1.57227e-24)
(44.5514 2.44263 0)
(46.1893 -4.5371 -1.02794e-24)
(46.6148 -2.58158 8.85665e-24)
(46.3143 -1.5177 4.77824e-23)
(46.0977 -1.0214 5.95154e-24)
(45.6868 -0.660022 2.05045e-22)
(45.5015 -0.487616 2.19252e-22)
(45.3598 -0.366623 0)
(45.2457 -0.267007 -1.16401e-24)
(45.1505 -0.196563 1.79894e-23)
(45.0961 -0.145896 9.85924e-24)
(45.0292 -0.0727718 3.51837e-25)
(45.1022 -0.00234662 0)
(45.1232 0.00478143 0)
(45.1402 0.020875 0)
(45.1684 0.0305815 0)
(45.1987 0.0658592 1.79382e-25)
(45.2297 0.0953267 5.52592e-25)
(45.2609 0.154837 -1.3082e-23)
(45.2708 0.23548 9.88607e-23)
(45.2714 0.363212 0)
(45.1065 0.526462 0)
(44.8243 0.764324 1.64557e-23)
(43.8732 0.857339 9.29469e-23)
(33.8385 -1.26002 -1.78994e-24)
(44.6204 -2.71037 -1.80602e-22)
(45.6687 -2.11037 -3.39682e-23)
(45.7902 -1.41179 -2.36729e-25)
(45.7441 -1.02687 -1.3269e-24)
(45.4809 -0.684324 -5.52773e-23)
(45.3573 -0.528866 8.88684e-24)
(45.2533 -0.402837 1.50947e-25)
(45.1639 -0.30452 -7.95532e-23)
(45.0857 -0.225269 0)
(45.0415 -0.174088 3.63679e-24)
(44.9818 -0.0918653 -9.66034e-24)
(45.0972 -0.000416262 0)
(45.1145 0.00516846 -1.11996e-24)
(45.1278 0.01812 -8.52979e-26)
(45.1497 0.0248463 0)
(45.1722 0.0514473 0)
(45.1927 0.0702826 -3.15552e-23)
(45.2108 0.108026 1.18324e-23)
(45.2121 0.14559 1.49612e-22)
(45.1771 0.218328 1.45362e-22)
(45.0419 0.252702 1.24827e-22)
(44.8113 0.256992 0)
(44.3575 -0.0754904 -7.47343e-24)
(40.1288 -1.04225 1.50766e-23)
(44.5791 -1.57921 -1.65431e-23)
(45.2234 -1.41516 1.64575e-23)
(45.4656 -1.17698 -1.74322e-23)
(45.384 -0.839457 3.2021e-23)
(45.3079 -0.657045 -6.2673e-24)
(45.2275 -0.527538 -5.92538e-27)
(45.1507 -0.411926 -1.61394e-25)
(45.0831 -0.323303 0)
(45.0194 -0.24155 -3.43495e-23)
(44.9846 -0.193891 -4.13377e-23)
(44.9326 -0.107347 -1.25616e-23)
(45.0942 -0.000167435 4.70966e-27)
(45.1083 0.00246834 -6.96873e-25)
(45.1193 0.0115134 2.3579e-24)
(45.1372 0.0140147 1.89074e-28)
(45.1559 0.0312353 -6.77498e-24)
(45.1724 0.0390255 -2.10095e-23)
(45.1886 0.0559679 -1.05179e-22)
(45.1901 0.0681359 -1.90208e-22)
(45.159 0.0905641 -3.04115e-23)
(45.0848 0.0548352 -5.50881e-24)
(44.988 -0.0678854 0)
(44.7828 -0.300229 -4.97194e-24)
(41.0584 -0.821379 -2.8067e-23)
(44.8364 -0.980483 -5.85339e-24)
(45.1272 -1.0507 -5.19046e-24)
(45.2927 -0.949202 -9.04194e-24)
(45.2392 -0.734241 -1.45688e-22)
(45.1789 -0.60888 0)
(45.1204 -0.502967 -2.32675e-23)
(45.0597 -0.403103 -7.7334e-24)
(45.0073 -0.327024 -1.16377e-24)
(44.9554 -0.2474 6.52802e-24)
(44.9282 -0.205613 0)
(44.8842 -0.11899 0)
(45.0935 -0.00127675 3.3817e-26)
(45.1051 -0.00231331 1.50129e-25)
(45.1153 0.00278729 5.48991e-25)
(45.1311 0.000861231 0)
(45.1492 0.00935085 -1.78498e-24)
(45.166 0.0081109 0)
(45.1869 0.00727593 -6.74733e-24)
(45.1989 0.00409922 -1.73433e-23)
(45.2102 -0.0374266 6.79068e-25)
(45.1602 -0.0621025 -3.89981e-24)
(45.1576 -0.186099 1.76931e-23)
(45.0082 -0.421475 -1.84725e-23)
(42.6876 -0.68533 -3.22564e-23)
(44.9493 -0.771329 3.2123e-24)
(45.1195 -0.808685 1.36225e-23)
(45.2039 -0.767192 4.78304e-24)
(45.133 -0.635636 -7.06431e-23)
(45.0839 -0.546179 7.88307e-23)
(45.0342 -0.465791 0)
(44.9828 -0.38269 2.91834e-23)
(44.9402 -0.320342 -2.97711e-24)
(44.8968 -0.245579 7.49333e-24)
(44.875 -0.210853 0)
(44.838 -0.127155 0)
(45.0953 -0.00338249 -1.32438e-25)
(45.1052 -0.00824931 1.86966e-25)
(45.1154 -0.00666781 -1.19505e-24)
(45.1306 -0.0125322 -1.50959e-24)
(45.1503 -0.011292 0)
(45.1701 -0.0188089 0)
(45.1984 -0.0308384 9.0636e-23)
(45.2249 -0.0449579 -1.28811e-23)
(45.2578 -0.0905248 8.88064e-24)
(45.2601 -0.147862 -3.56144e-23)
(45.2763 -0.234959 0)
(45.0641 -0.384893 2.00234e-24)
(42.9745 -0.614152 -7.53021e-23)
(45.0571 -0.589408 1.86223e-23)
(45.1364 -0.5954 4.7383e-23)
(45.1382 -0.57269 1.06386e-22)
(45.0703 -0.54465 6.37978e-23)
(45.0182 -0.479243 6.65511e-23)
(44.9674 -0.424161 -1.02433e-23)
(44.9201 -0.3558 -6.60617e-24)
(44.8825 -0.306984 -1.47199e-23)
(44.8447 -0.238426 -5.32963e-23)
(44.8263 -0.21095 3.21788e-25)
(44.7953 -0.13223 -2.77001e-24)
(45.0993 -0.00615249 -8.84904e-25)
(45.1081 -0.0146053 2.0041e-25)
(45.1191 -0.0158952 -1.16623e-24)
(45.1347 -0.0248839 -2.51449e-24)
(45.157 -0.0291673 0)
(45.1805 -0.0403425 0)
(45.2165 -0.0590326 8.61246e-23)
(45.2536 -0.0753138 1.12204e-24)
(45.3091 -0.126507 -1.09283e-23)
(45.32 -0.148851 -4.46537e-23)
(45.3834 -0.290969 0)
(44.4434 -0.207862 -7.16908e-23)
(43.993 -0.514205 9.17996e-24)
(45.1872 -0.410741 9.27192e-24)
(45.1381 -0.518096 9.64881e-24)
(45.1277 -0.478206 -2.6266e-23)
(45.0364 -0.472505 -2.0096e-23)
(44.9734 -0.420767 1.13953e-23)
(44.917 -0.384296 -2.98338e-24)
(44.8699 -0.326894 -5.11724e-23)
(44.8338 -0.290207 -1.64911e-23)
(44.7995 -0.228045 -6.9427e-23)
(44.7829 -0.207316 0)
(44.7566 -0.13478 -9.91982e-24)
(45.1053 -0.00932017 -8.32236e-25)
(45.1135 -0.0208778 -8.50079e-25)
(45.1257 -0.0243669 0)
(45.142 -0.0356119 -1.77305e-24)
(45.1673 -0.043986 0)
(45.1943 -0.0566556 -5.45223e-23)
(45.2373 -0.0800222 -5.30642e-24)
(45.2812 -0.0933547 9.07878e-24)
(45.3514 -0.150602 -1.04726e-23)
(45.371 -0.151602 -1.26454e-23)
(45.4228 -0.292062 -1.08718e-23)
(44.5112 -0.203727 -7.95048e-23)
(44.056 -0.434063 3.18358e-23)
(45.2036 -0.338146 -9.14184e-24)
(45.1502 -0.450113 -5.5289e-24)
(45.121 -0.401504 -1.7086e-24)
(45.0123 -0.414429 -1.13967e-23)
(44.941 -0.369752 -1.27108e-23)
(44.8783 -0.347872 -2.87681e-23)
(44.8299 -0.298385 -7.06607e-24)
(44.7932 -0.27217 -4.40348e-24)
(44.761 -0.215976 -2.28096e-23)
(44.7448 -0.201208 -9.8128e-24)
(44.7223 -0.135333 -4.42418e-24)
(45.1129 -0.012692 0)
(45.1208 -0.0267623 -1.79092e-24)
(45.1343 -0.0318583 -9.45106e-25)
(45.1515 -0.04454 -1.20224e-24)
(45.1798 -0.0559406 6.04011e-24)
(45.2097 -0.0684504 -5.79555e-23)
(45.2586 -0.0954185 0)
(45.3076 -0.103742 -1.3021e-23)
(45.3867 -0.164779 0)
(45.4158 -0.150796 0)
(45.4606 -0.282155 -1.57309e-25)
(44.5603 -0.192385 -1.82754e-25)
(44.1055 -0.378411 1.28174e-23)
(45.2246 -0.28659 -6.4839e-24)
(45.1644 -0.394556 -3.4504e-24)
(45.1169 -0.341187 -2.07112e-24)
(44.9957 -0.366969 2.12831e-24)
(44.9172 -0.325297 -5.5452e-24)
(44.8483 -0.31533 -7.69575e-24)
(44.7979 -0.271408 1.31243e-23)
(44.7594 -0.254119 -4.42255e-24)
(44.7282 -0.203249 0)
(44.7117 -0.193579 1.99038e-28)
(44.6921 -0.134346 0)
(45.1216 -0.0161388 0)
(45.1295 -0.0320996 -2.15045e-24)
(45.1443 -0.038325 -1.23752e-24)
(45.1624 -0.0517156 2.68359e-24)
(45.1934 -0.0653716 0)
(45.2257 -0.0765686 2.05183e-24)
(45.2794 -0.106282 -3.81927e-23)
(45.3324 -0.108968 -2.4998e-23)
(45.4167 -0.171862 -9.95406e-25)
(45.453 -0.146944 6.277e-26)
(45.491 -0.269306 1.6797e-23)
(44.5906 -0.180149 -1.05132e-23)
(44.1381 -0.335292 1.76842e-23)
(45.2432 -0.247387 -4.6457e-24)
(45.1768 -0.350183 5.55559e-24)
(45.115 -0.293474 -5.00978e-25)
(44.9848 -0.327953 -4.86374e-24)
(44.8996 -0.287118 3.62648e-24)
(44.825 -0.286802 1.00855e-23)
(44.7723 -0.246576 -1.9254e-28)
(44.7314 -0.236817 -2.12378e-24)
(44.7007 -0.190535 -1.43237e-23)
(44.6832 -0.185123 7.39663e-24)
(44.6657 -0.132195 6.84347e-24)
(45.1312 -0.0195837 -1.19112e-24)
(45.1391 -0.0368354 -2.3966e-24)
(45.1552 -0.0438344 -3.10327e-32)
(45.174 -0.0573204 5.75873e-24)
(45.2075 -0.0726771 1.39118e-23)
(45.2415 -0.0818485 1.33357e-24)
(45.2989 -0.113653 -3.65264e-23)
(45.355 -0.11082 -2.21456e-23)
(45.4423 -0.17448 1.24722e-23)
(45.4836 -0.141826 0)
(45.5145 -0.255928 3.34383e-24)
(44.6108 -0.168264 -3.48666e-24)
(44.1608 -0.300854 5.49158e-24)
(45.2578 -0.216416 -3.62923e-24)
(45.187 -0.313969 -1.83069e-29)
(45.1142 -0.255125 -7.07669e-24)
(44.9774 -0.295646 -4.02737e-24)
(44.8864 -0.254569 -8.65554e-25)
(44.8067 -0.262044 5.44665e-24)
(44.7516 -0.224142 -7.96083e-24)
(44.7081 -0.220685 -1.21171e-23)
(44.6774 -0.178256 -6.06386e-24)
(44.6587 -0.17635 -6.37811e-24)
(44.6429 -0.129185 5.97341e-24)
(45.1413 -0.0229853 -1.2674e-32)
(45.1494 -0.0409868 -1.27338e-24)
(45.1666 -0.0485068 1.40755e-24)
(45.186 -0.0615991 2.9591e-24)
(45.2216 -0.0782609 9.11537e-28)
(45.2569 -0.0850217 0)
(45.3169 -0.118432 -5.95978e-25)
(45.3754 -0.110565 -1.98668e-23)
(45.4641 -0.174258 1.05827e-23)
(45.509 -0.136169 0)
(45.5332 -0.242791 -9.1085e-29)
(44.6243 -0.157053 2.67151e-24)
(44.1772 -0.273001 -6.02384e-24)
(45.2696 -0.191576 0)
(45.1956 -0.284098 8.15185e-25)
(45.114 -0.224006 2.03936e-24)
(44.9723 -0.268713 0)
(44.8762 -0.226883 1.72497e-24)
(44.7923 -0.240657 1.80029e-24)
(44.7349 -0.204118 -2.00669e-23)
(44.6887 -0.205907 -5.07973e-24)
(44.6578 -0.166656 5.146e-24)
(44.6377 -0.167593 -6.55415e-24)
(44.623 -0.125555 0)
(45.1517 -0.026331 1.29308e-24)
(45.1599 -0.0446096 -1.30975e-24)
(45.1781 -0.0524836 0)
(45.198 -0.0648067 8.06447e-25)
(45.2352 -0.0824903 2.10911e-24)
(45.2715 -0.0866854 4.20616e-25)
(45.3334 -0.12132 0)
(45.3937 -0.109037 -1.92909e-25)
(45.483 -0.17227 8.79384e-24)
(45.5304 -0.130431 0)
(45.5482 -0.230451 2.24444e-24)
(44.633 -0.146712 1.19968e-24)
(44.1889 -0.250094 -4.09207e-24)
(45.2794 -0.171378 6.03001e-25)
(45.2028 -0.259312 -1.31703e-24)
(45.1142 -0.198575 1.37558e-26)
(44.9687 -0.246135 1.40597e-24)
(44.8683 -0.203363 -5.37316e-25)
(44.7807 -0.222226 1.52692e-26)
(44.7212 -0.186395 -7.26497e-24)
(44.6724 -0.192539 2.6478e-24)
(44.6413 -0.155857 3.05983e-24)
(44.6198 -0.159084 -1.02857e-24)
(44.6058 -0.12149 -4.80254e-25)
(45.1622 -0.029622 -1.01802e-25)
(45.1705 -0.0477801 -1.61255e-24)
(45.1895 -0.0559015 -2.11712e-25)
(45.2097 -0.0671795 0)
(45.2482 -0.0856824 2.56709e-23)
(45.2853 -0.0873093 0)
(45.3484 -0.122863 -1.46223e-23)
(45.4101 -0.106804 0)
(45.4993 -0.169261 7.41271e-24)
(45.5486 -0.12493 3.66899e-24)
(45.5601 -0.219129 0)
(44.6378 -0.137435 9.66579e-25)
(44.197 -0.231102 0)
(45.2875 -0.154831 4.91245e-25)
(45.2088 -0.23859 -3.62564e-25)
(45.1144 -0.177676 0)
(44.9661 -0.227127 0)
(44.8619 -0.183421 -4.36418e-25)
(44.7712 -0.20637 6.32344e-25)
(44.7099 -0.170825 0)
(44.6587 -0.180548 0)
(44.6271 -0.145909 2.49532e-24)
(44.6043 -0.150962 4.90478e-25)
(44.5909 -0.117137 -2.00003e-24)
(45.1725 -0.0328674 9.99362e-26)
(45.181 -0.0505779 8.69848e-26)
(45.2005 -0.058885 0)
(45.2211 -0.0689271 -2.18021e-25)
(45.2606 -0.0880995 1.24353e-23)
(45.2982 -0.0872531 -1.30629e-26)
(45.362 -0.123484 -1.31829e-23)
(45.4249 -0.104257 -3.18651e-25)
(45.5137 -0.165754 0)
(45.5642 -0.11977 4.16519e-24)
(45.5693 -0.208915 0)
(44.6395 -0.129373 0)
(44.2029 -0.215228 0)
(45.2942 -0.141118 3.37042e-24)
(45.2137 -0.221138 4.4978e-24)
(45.1146 -0.16045 0)
(44.964 -0.211081 -1.46168e-25)
(44.8566 -0.166564 0)
(44.7634 -0.192754 0)
(44.7004 -0.157232 0)
(44.647 -0.169863 0)
(44.615 -0.136838 -2.21984e-24)
(44.5908 -0.14331 -1.83896e-24)
(44.5777 -0.112624 2.8861e-29)
(45.1825 -0.0360764 0)
(45.1911 -0.0530764 6.31359e-25)
(45.2112 -0.0615385 -9.85481e-25)
(45.2319 -0.0702186 1.34185e-24)
(45.2722 -0.0899525 1.16239e-23)
(45.3102 -0.0867849 2.35051e-23)
(45.3745 -0.123507 0)
(45.4382 -0.101669 0)
(45.5263 -0.162114 7.4242e-25)
(45.5776 -0.11508 -7.8495e-25)
(45.5768 -0.199882 -1.34219e-31)
(44.6391 -0.122401 3.43259e-24)
(44.2066 -0.201784 6.6893e-24)
(45.2999 -0.12966 2.79474e-24)
(45.2178 -0.206514 1.22487e-25)
(45.1147 -0.14619 0)
(44.9624 -0.197532 -3.47214e-24)
(44.8522 -0.15231 -4.13791e-24)
(44.7568 -0.181077 0)
(44.6922 -0.145402 -4.02534e-24)
(44.637 -0.160405 -3.52694e-39)
(44.6044 -0.128604 5.45046e-24)
(44.579 -0.136188 3.41021e-24)
(44.566 -0.108034 2.67262e-24)
(45.1922 -0.0392538 -1.29967e-24)
(45.2009 -0.0553352 5.38189e-25)
(45.2214 -0.0639403 -6.30982e-25)
(45.2422 -0.0711898 2.55282e-24)
(45.283 -0.0914054 1.06593e-23)
(45.3214 -0.0861035 4.36846e-23)
(45.3858 -0.123173 0)
(45.4502 -0.099196 0)
(45.5376 -0.158565 6.55435e-25)
(45.5894 -0.110934 0)
(45.5828 -0.19198 0)
(44.637 -0.116448 0)
(44.2086 -0.190418 0)
(45.3048 -0.120127 -2.3033e-24)
(45.2212 -0.194268 -3.04075e-24)
(45.1149 -0.134394 -2.87889e-24)
(44.961 -0.186119 -5.62551e-24)
(44.8483 -0.140307 -3.4903e-24)
(44.7511 -0.171107 0)
(44.6851 -0.135172 -9.8655e-25)
(44.6281 -0.152096 0)
(44.595 -0.121181 0)
(44.5685 -0.129628 1.5625e-24)
(44.5554 -0.103441 1.08054e-24)
(45.2014 -0.0423957 -1.09645e-24)
(45.2102 -0.0573985 -6.74156e-25)
(45.231 -0.0661459 -1.32043e-25)
(45.252 -0.0719418 9.13705e-26)
(45.2932 -0.0925801 -2.9327e-32)
(45.3318 -0.0853576 2.03859e-23)
(45.3962 -0.122659 0)
(45.4612 -0.096935 -7.31966e-25)
(45.5478 -0.155251 8.5985e-25)
(45.5998 -0.107355 7.40711e-25)
(45.5877 -0.185144 3.47816e-24)
(44.6337 -0.111449 2.41477e-24)
(44.2092 -0.180859 2.36535e-24)
(45.309 -0.112263 0)
(45.224 -0.184055 0)
(45.1149 -0.124685 5.54792e-27)
(44.9598 -0.176568 2.34483e-24)
(44.845 -0.13027 1.15486e-29)
(44.7462 -0.162663 -2.04932e-24)
(44.6787 -0.126403 0)
(44.6202 -0.144864 0)
(44.5865 -0.11455 5.87955e-25)
(44.559 -0.123655 0)
(44.5457 -0.0989174 0)
(45.21 -0.0454866 0)
(45.219 -0.0592862 -1.09829e-24)
(45.2401 -0.0681854 -6.82612e-25)
(45.2613 -0.0725402 -1.17977e-24)
(45.3026 -0.0935684 0)
(45.3416 -0.0846444 0)
(45.4058 -0.122081 0)
(45.4712 -0.0949596 -1.18369e-24)
(45.557 -0.152277 0)
(45.6091 -0.104355 -1.35032e-25)
(45.5917 -0.179313 1.48404e-24)
(44.6294 -0.107345 9.76151e-25)
(44.2087 -0.172899 1.96114e-24)
(45.3126 -0.10587 3.00172e-24)
(45.2265 -0.175621 2.04512e-24)
(45.1149 -0.116786 0)
(44.9587 -0.168665 -1.9296e-24)
(44.8419 -0.121977 -1.99661e-24)
(44.7417 -0.155607 0)
(44.6729 -0.11898 0)
(44.6131 -0.138663 0)
(44.5786 -0.108702 5.4772e-25)
(44.5502 -0.118298 0)
(44.5366 -0.094534 0)
(45.218 -0.0484883 4.47914e-26)
(45.2273 -0.0609977 -9.09251e-25)
(45.2485 -0.0700607 1.09666e-25)
(45.27 -0.0730274 0)
(45.3115 -0.094424 3.85654e-25)
(45.3508 -0.0839885 -3.27253e-25)
(45.4146 -0.121518 0)
(45.4806 -0.0933023 -5.47479e-25)
(45.5654 -0.149696 6.73592e-25)
(45.6176 -0.10192 5.95255e-25)
(45.595 -0.174425 -9.99687e-26)
(44.6244 -0.104078 7.60289e-25)
(44.2074 -0.166381 3.19092e-24)
(45.3159 -0.100807 4.55586e-26)
(45.2287 -0.168783 -2.96799e-26)
(45.1148 -0.11049 1.48161e-24)
(44.9576 -0.162254 2.21902e-26)
(44.839 -0.115256 -1.09145e-25)
(44.7376 -0.149827 0)
(44.6675 -0.112819 -1.26647e-24)
(44.6065 -0.133457 -1.22005e-24)
(44.5711 -0.103643 0)
(44.5419 -0.113595 1.37491e-24)
(44.5277 -0.0903712 3.37219e-25)
(45.2253 -0.0513307 0)
(45.235 -0.0625035 -5.30633e-25)
(45.2564 -0.0717512 -1.46058e-25)
(45.2784 -0.0734359 -2.24952e-26)
(45.3197 -0.0951683 0)
(45.3595 -0.0834296 8.4272e-24)
(45.4228 -0.121037 -1.78053e-24)
(45.4894 -0.0919783 -4.47375e-25)
(45.5731 -0.147546 -5.63172e-25)
(45.6255 -0.10003 -4.53509e-25)
(45.5976 -0.170435 9.23573e-25)
(44.6187 -0.101592 1.11664e-24)
(44.2055 -0.161211 1.25347e-24)
(45.3188 -0.0969661 3.99719e-26)
(45.2306 -0.163413 -1.2798e-24)
(45.1145 -0.105643 -1.11232e-24)
(44.9566 -0.157222 4.25004e-26)
(44.8361 -0.109981 -1.0627e-25)
(44.7338 -0.145258 0)
(44.6623 -0.107868 -8.71187e-25)
(44.6002 -0.129245 -9.68595e-25)
(44.5639 -0.0994041 0)
(44.5339 -0.109609 4.15356e-25)
(44.5189 -0.0865345 -6.09114e-25)
(45.2319 -0.0539116 -4.18178e-25)
(45.2425 -0.0637582 4.72684e-25)
(45.2638 -0.0732167 -1.00362e-24)
(45.2866 -0.0737481 -1.6052e-26)
(45.3275 -0.0958069 2.72342e-25)
(45.3682 -0.0829858 8.21594e-24)
(45.4304 -0.120678 -9.07454e-25)
(45.498 -0.0909798 -2.52864e-25)
(45.5804 -0.145833 -4.5125e-25)
(45.6331 -0.0985996 -7.75458e-25)
(45.5998 -0.167222 -8.14932e-25)
(44.6127 -0.0997988 -3.79111e-25)
(44.2031 -0.157382 -9.12924e-25)
(45.3214 -0.0942922 0)
(45.2324 -0.15942 -9.32637e-25)
(45.1141 -0.102112 -7.76761e-25)
(44.9557 -0.153474 1.99638e-26)
(44.8331 -0.106036 0)
(44.7303 -0.141831 6.56883e-26)
(44.657 -0.104074 9.52249e-26)
(44.5942 -0.126008 -7.20477e-25)
(44.5564 -0.0960152 -7.52381e-25)
(44.5259 -0.106397 2.77899e-25)
(44.5097 -0.0831465 0)
(45.2372 -0.0559671 -3.06431e-25)
(45.249 -0.0646369 4.18614e-25)
(45.2698 -0.0743229 -3.80091e-25)
(45.2939 -0.0739317 0)
(45.334 -0.0963046 0)
(45.3759 -0.0826784 -1.85611e-24)
(45.4368 -0.120477 6.65595e-25)
(45.5056 -0.0903349 -2.83937e-25)
(45.5863 -0.144679 -6.15628e-25)
(45.6398 -0.0976875 -9.52039e-26)
(45.6015 -0.164988 5.64098e-25)
(44.607 -0.0986815 0)
(44.2006 -0.154884 0)
(45.3237 -0.0926537 0)
(45.234 -0.156819 0)
(45.1135 -0.0998455 -1.35715e-26)
(44.9551 -0.15104 0)
(44.8304 -0.103437 0)
(44.7273 -0.139592 5.55776e-26)
(44.6521 -0.101515 0)
(44.5891 -0.123839 0)
(44.5497 -0.0936365 0)
(44.5189 -0.104137 2.45397e-25)
(44.5012 -0.0804977 0)
(45.2437 -0.0575117 0)
(45.2589 -0.0652275 -3.02951e-26)
(45.2778 -0.0751389 -8.19484e-26)
(45.3056 -0.074046 -5.1705e-27)
(45.3423 -0.0967194 7.50589e-26)
(45.3884 -0.0825024 -3.14338e-24)
(45.4448 -0.120422 -3.45315e-26)
(45.518 -0.0899203 1.38462e-28)
(45.5937 -0.143822 8.30292e-32)
(45.6499 -0.0965559 -1.3906e-29)
(45.603 -0.162334 6.65623e-25)
(44.6 -0.097669 0)
(44.1972 -0.154496 4.22228e-26)
(45.3259 -0.0924602 -7.89462e-26)
(45.2365 -0.155351 -3.14452e-25)
(45.1116 -0.0984966 -2.53398e-25)
(44.9549 -0.149567 0)
(44.8251 -0.1018 0)
(44.7238 -0.138198 0)
(44.6439 -0.0998512 0)
(44.582 -0.122438 0)
(44.5385 -0.0920195 0)
(44.5086 -0.102607 1.74641e-25)
(44.487 -0.0785258 0)
(48.4565 -3.62524 9.19149e-25)
(50.4002 5.79248 3.25893e-24)
(45.5806 6.49542 1.42336e-23)
(49.9199 -0.587847 -1.57856e-24)
(53.0748 1.63957 -6.1645e-25)
(50.9233 5.36868 -2.70917e-24)
(48.9317 2.24086 -8.62055e-25)
(52.2555 -2.68535 -6.92748e-24)
(53.1748 1.0437 -2.03546e-24)
(46.6954 3.22698 -2.78756e-24)
(49.401 -4.95747 1.0806e-23)
(51.949 -3.10036 0)
(44.7331 2.60034 2.91009e-28)
(46.328 -5.00584 -7.57533e-24)
(49.0046 -5.08957 6.4971e-24)
(43.8747 1.04743 0)
(37.2258 -0.452195 -1.6352e-24)
(33.2665 -1.36267 3.64077e-24)
(44.4342 -3.21355 3.76764e-23)
(45.9856 -4.86292 -1.14931e-23)
(44.4717 -4.24431 7.46734e-24)
(41.1101 0.0551265 1.90663e-24)
(44.9232 6.14183 2.0277e-23)
(43.276 2.92353 4.49921e-23)
(46.9433 -1.75179 -5.23872e-24)
(48.237 -3.22311 2.62433e-25)
(45.3312 -3.9889 -1.0038e-23)
(48.3425 10.755 0)
(42.6308 9.99998 -1.14702e-23)
(50.1519 5.27935 0)
(48.4579 2.93043 5.3145e-25)
(46.8302 3.34073 -6.19405e-23)
(47.7453 -0.451124 5.78802e-24)
(49.604 -0.522044 -1.44695e-24)
(48.535 -2.92314 3.01827e-25)
(49.5021 -2.17878 -2.76007e-25)
(50.9454 -2.66921 2.54225e-25)
(50.0309 -4.53721 -2.8439e-25)
(53.902 5.13902 2.70563e-24)
(52.2935 7.84485 1.15543e-24)
(52.5999 1.52425 2.47321e-25)
(49.8572 1.05892 -1.79827e-23)
(48.9307 2.56705 6.77042e-24)
(47.4672 0.907004 1.18058e-23)
(48.7618 1.99017 7.61564e-25)
(49.6164 -0.148949 -2.57835e-27)
(49.7041 0.991744 9.75443e-29)
(51.0965 1.6355 -1.52318e-24)
(51.4653 -0.314909 -2.21857e-26)
(54.654 -2.08733 1.07812e-25)
(54.9259 1.51647 -2.27478e-24)
(51.9108 -2.52713 -8.26572e-24)
(49.7414 -1.15107 2.45479e-24)
(49.9723 0.483215 -1.85262e-23)
(46.4892 1.59778 -1.05544e-23)
(46.715 2.94042 1.35898e-24)
(48.5358 2.21131 0)
(47.8556 2.97622 0)
(48.2144 4.21274 -5.28419e-25)
(49.6013 3.50767 -7.29329e-26)
(51.1584 -6.00746 -2.22774e-25)
(53.0183 -4.45121 2.30533e-24)
(49.348 -4.60237 4.69651e-28)
(48.4779 -2.60576 3.39707e-23)
(49.5022 -1.6131 2.90545e-23)
(47.1462 -7.07686 -8.82409e-25)
(49.0373 -6.83663 -1.06971e-25)
(46.5097 -4.66914 4.93565e-24)
(46.8871 -2.97186 0)
(48.078 -2.79686 0)
(43.3652 -5.29363 8.74543e-25)
(44.9002 -6.5395 0)
(44.2062 0.0434346 0)
(40.4261 -0.322762 1.65358e-23)
(37.5625 -0.545022 1.00379e-27)
(38.6645 -1.21049 5.91606e-24)
(44.2387 -1.73511 0)
(44.3462 -2.95444 0)
(49.8583 -4.81078 2.04555e-25)
(47.9125 -6.64523 1.40709e-24)
(47.1959 -4.42503 8.57978e-24)
(48.0266 -7.06971 4.00375e-25)
(50.0196 -5.0118 9.47526e-25)
(43.096 -7.49704 1.66974e-23)
(47.594 -7.36664 1.77567e-24)
(52.15 8.02746 -1.36328e-25)
(48.7177 10.572 -1.71199e-25)
(48.5067 6.75542 -3.07037e-24)
(48.8644 9.92125 -3.03075e-25)
(51.9856 7.79059 8.0836e-26)
(51.4443 -0.58691 2.3113e-25)
(51.0351 -2.40633 0)
(49.6631 -1.78706 3.79484e-25)
(51.1284 -2.57951 9.25274e-27)
(51.5499 -0.489452 8.17924e-28)
(50.2114 -4.71882 -4.59091e-25)
(51.0853 -2.7143 1.00492e-26)
(54.8717 1.79531 -3.28107e-24)
(53.9884 4.94551 6.04541e-24)
(52.4554 3.36148 -5.11675e-25)
(53.9351 4.65644 -8.11746e-25)
(54.8928 2.07382 1.5465e-24)
(52.1392 7.6197 1.04541e-24)
(53.8455 4.85548 2.95516e-24)
(52.1497 3.90013 -4.97562e-25)
(49.7796 3.36285 0)
(50.9617 1.89209 -1.28618e-24)
(49.5536 1.34966 2.83258e-25)
(51.1157 2.10138 -1.07501e-25)
(49.7834 3.54696 1.15338e-26)
(51.5634 -0.339813 -7.76303e-28)
(51.183 1.96638 -5.29009e-25)
(53.1265 -4.32208 -5.45473e-25)
(54.5773 -2.27297 0)