# Forces     
# CofR       : (0.000000e+00 0.000000e+00 0.000000e+00)
# Time       forces(pressure viscous porous)	moments(pressure viscous porous)
100          	((-1.595680e-01 5.268155e+00 -1.384103e-19) (7.379848e-02 4.227175e-03 -3.955047e-23) (0.000000e+00 0.000000e+00 0.000000e+00)) ((-2.765781e+00 -8.377320e-02 1.767712e+00) (-2.219267e-03 3.874420e-02 -6.825166e-04) (0.000000e+00 0.000000e+00 0.000000e+00))
200          	((-2.975372e-01 5.554933e+00 -1.953424e-19) (6.147315e-02 6.034299e-03 -2.709462e-23) (0.000000e+00 0.000000e+00 0.000000e+00)) ((-2.916340e+00 -1.562070e-01 1.762308e+00) (-3.168007e-03 3.227341e-02 5.088696e-06) (0.000000e+00 0.000000e+00 0.000000e+00))
300          	((-3.304191e-01 5.457985e+00 -2.011153e-19) (6.006142e-02 6.652409e-03 -2.317790e-23) (0.000000e+00 0.000000e+00 0.000000e+00)) ((-2.865442e+00 -1.734700e-01 1.675801e+00) (-3.492515e-03 3.153225e-02 2.080412e-04) (0.000000e+00 0.000000e+00 0.000000e+00))
400          	((-3.411678e-01 5.394005e+00 -2.013400e-19) (6.008056e-02 6.740297e-03 -2.399639e-23) (0.000000e+00 0.000000e+00 0.000000e+00)) ((-2.831852e+00 -1.791131e-01 1.618431e+00) (-3.538656e-03 3.154229e-02 1.454210e-04) (0.000000e+00 0.000000e+00 0.000000e+00))
500          	((-3.486695e-01 5.328577e+00 -1.997417e-19) (6.036447e-02 6.577611e-03 -2.395166e-23) (0.000000e+00 0.000000e+00 0.000000e+00)) ((-2.797503e+00 -1.830515e-01 1.558526e+00) (-3.453246e-03 3.169135e-02 -6.944758e-05) (0.000000e+00 0.000000e+00 0.000000e+00))
600          	((-3.567716e-01 5.422208e+00 -1.986321e-19) (6.075536e-02 6.425812e-03 -2.297850e-23) (0.000000e+00 0.000000e+00 0.000000e+00)) ((-2.846659e+00 -1.873051e-01 1.595497e+00) (-3.373551e-03 3.189657e-02 -2.569414e-04) (0.000000e+00 0.000000e+00 0.000000e+00))
700          	((-3.705153e-01 5.592440e+00 -2.042652e-19) (6.108047e-02 6.391576e-03 -2.035789e-23) (0.000000e+00 0.000000e+00 0.000000e+00)) ((-2.936031e+00 -1.945205e-01 1.668617e+00) (-3.355577e-03 3.206724e-02 -3.687808e-04) (0.000000e+00 0.000000e+00 0.000000e+00))
800          	((-3.839990e-01 5.726475e+00 -2.111720e-19) (6.126287e-02 6.416953e-03 -1.759703e-23) (0.000000e+00 0.000000e+00 0.000000e+00)) ((-3.006399e+00 -2.015995e-01 1.723038e+00) (-3.368901e-03 3.216300e-02 -4.308286e-04) (0.000000e+00 0.000000e+00 0.000000e+00))
900          	((-3.937722e-01 5.811992e+00 -2.163703e-19) (6.132724e-02 6.452030e-03 -1.552513e-23) (0.000000e+00 0.000000e+00 0.000000e+00)) ((-3.051296e+00 -2.067304e-01 1.756166e+00) (-3.387316e-03 3.219680e-02 -4.653904e-04) (0.000000e+00 0.000000e+00 0.000000e+00))
1000         	((-4.001137e-01 5.862884e+00 -2.197653e-19) (6.132285e-02 6.478983e-03 -1.417542e-23) (0.000000e+00 0.000000e+00 0.000000e+00)) ((-3.078014e+00 -2.100597e-01 1.774885e+00) (-3.401466e-03 3.219450e-02 -4.870277e-04) (0.000000e+00 0.000000e+00 0.000000e+00))
1100         	((-4.041334e-01 5.891426e+00 -2.218165e-19) (6.129472e-02 6.493900e-03 -1.332462e-23) (0.000000e+00 0.000000e+00 0.000000e+00)) ((-3.092999e+00 -2.121700e-01 1.784403e+00) (-3.409297e-03 3.217973e-02 -5.037771e-04) (0.000000e+00 0.000000e+00 0.000000e+00))
1200         	((-4.066448e-01 5.908172e+00 -2.229884e-19) (6.127172e-02 6.499237e-03 -1.279316e-23) (0.000000e+00 0.000000e+00 0.000000e+00)) ((-3.101790e+00 -2.134885e-01 1.789610e+00) (-3.412100e-03 3.216765e-02 -5.179809e-04) (0.000000e+00 0.000000e+00 0.000000e+00))
1300         	((-4.083011e-01 5.920155e+00 -2.237256e-19) (6.125879e-02 6.500367e-03 -1.243872e-23) (0.000000e+00 0.000000e+00 0.000000e+00)) ((-3.108082e+00 -2.143581e-01 1.793538e+00) (-3.412693e-03 3.216086e-02 -5.292901e-04) (0.000000e+00 0.000000e+00 0.000000e+00))
1400         	((-4.095008e-01 5.929680e+00 -2.242691e-19) (6.125244e-02 6.500743e-03 -1.217727e-23) (0.000000e+00 0.000000e+00 0.000000e+00)) ((-3.113082e+00 -2.149879e-01 1.796875e+00) (-3.412890e-03 3.215753e-02 -5.374999e-04) (0.000000e+00 0.000000e+00 0.000000e+00))
1500         	((-4.104017e-01 5.937117e+00 -2.246928e-19) (6.124921e-02 6.501408e-03 -1.197824e-23) (0.000000e+00 0.000000e+00 0.000000e+00)) ((-3.116987e+00 -2.154609e-01 1.799567e+00) (-3.413239e-03 3.215584e-02 -5.432679e-04) (0.000000e+00 0.000000e+00 0.000000e+00))
1600         	((-4.110687e-01 5.942651e+00 -2.250169e-19) (6.124734e-02 6.502279e-03 -1.182917e-23) (0.000000e+00 0.000000e+00 0.000000e+00)) ((-3.119892e+00 -2.158111e-01 1.801592e+00) (-3.413697e-03 3.215485e-02 -5.471520e-04) (0.000000e+00 0.000000e+00 0.000000e+00))
1700         	((-4.115499e-01 5.946565e+00 -2.252537e-19) (6.124509e-02 6.503078e-03 -1.171982e-23) (0.000000e+00 0.000000e+00 0.000000e+00)) ((-3.121947e+00 -2.160637e-01 1.803019e+00) (-3.414116e-03 3.215367e-02 -5.495695e-04) (0.000000e+00 0.000000e+00 0.000000e+00))
1800         	((-4.118855e-01 5.949246e+00 -2.254190e-19) (6.124355e-02 6.503824e-03 -1.164650e-23) (0.000000e+00 0.000000e+00 0.000000e+00)) ((-3.123354e+00 -2.162399e-01 1.803978e+00) (-3.414508e-03 3.215286e-02 -5.513865e-04) (0.000000e+00 0.000000e+00 0.000000e+00))
1900         	((-4.121160e-01 5.951054e+00 -2.255328e-19) (6.124206e-02 6.504274e-03 -1.159368e-23) (0.000000e+00 0.000000e+00 0.000000e+00)) ((-3.124303e+00 -2.163609e-01 1.804621e+00) (-3.414744e-03 3.215208e-02 -5.525968e-04) (0.000000e+00 0.000000e+00 0.000000e+00))
2000         	((-4.122597e-01 5.952210e+00 -2.256007e-19) (6.124078e-02 6.504455e-03 -1.156152e-23) (0.000000e+00 0.000000e+00 0.000000e+00)) ((-3.124910e+00 -2.164364e-01 1.805037e+00) (-3.414839e-03 3.215141e-02 -5.533706e-04) (0.000000e+00 0.000000e+00 0.000000e+00))
2100         	((-4.123665e-01 5.952988e+00 -2.256511e-19) (6.124014e-02 6.504597e-03 -1.153783e-23) (0.000000e+00 0.000000e+00 0.000000e+00)) ((-3.125319e+00 -2.164924e-01 1.805293e+00) (-3.414913e-03 3.215107e-02 -5.540016e-04) (0.000000e+00 0.000000e+00 0.000000e+00))
2200         	((-4.124336e-01 5.953504e+00 -2.256846e-19) (6.123985e-02 6.504734e-03 -1.152395e-23) (0.000000e+00 0.000000e+00 0.000000e+00)) ((-3.125589e+00 -2.165276e-01 1.805473e+00) (-3.414986e-03 3.215092e-02 -5.543778e-04) (0.000000e+00 0.000000e+00 0.000000e+00))
2300         	((-4.124829e-01 5.953877e+00 -2.257090e-19) (6.123942e-02 6.504824e-03 -1.151145e-23) (0.000000e+00 0.000000e+00 0.000000e+00)) ((-3.125785e+00 -2.165535e-01 1.805605e+00) (-3.415033e-03 3.215070e-02 -5.546097e-04) (0.000000e+00 0.000000e+00 0.000000e+00))
2400         	((-4.125191e-01 5.954170e+00 -2.257263e-19) (6.123936e-02 6.504914e-03 -1.150396e-23) (0.000000e+00 0.000000e+00 0.000000e+00)) ((-3.125939e+00 -2.165725e-01 1.805710e+00) (-3.415080e-03 3.215067e-02 -5.548989e-04) (0.000000e+00 0.000000e+00 0.000000e+00))
2500         	((-4.125488e-01 5.954407e+00 -2.257408e-19) (6.123918e-02 6.504951e-03 -1.149775e-23) (0.000000e+00 0.000000e+00 0.000000e+00)) ((-3.126063e+00 -2.165881e-01 1.805795e+00) (-3.415099e-03 3.215057e-02 -5.549960e-04) (0.000000e+00 0.000000e+00 0.000000e+00))
2600         	((-4.125719e-01 5.954582e+00 -2.257522e-19) (6.123898e-02 6.505000e-03 -1.149199e-23) (0.000000e+00 0.000000e+00 0.000000e+00)) ((-3.126156e+00 -2.166002e-01 1.805857e+00) (-3.415125e-03 3.215046e-02 -5.550996e-04) (0.000000e+00 0.000000e+00 0.000000e+00))
2700         	((-4.125900e-01 5.954716e+00 -2.257609e-19) (6.123876e-02 6.505030e-03 -1.148827e-23) (0.000000e+00 0.000000e+00 0.000000e+00)) ((-3.126226e+00 -2.166097e-01 1.805903e+00) (-3.415141e-03 3.215035e-02 -5.551459e-04) (0.000000e+00 0.000000e+00 0.000000e+00))
2800         	((-4.126039e-01 5.954820e+00 -2.257675e-19) (6.123858e-02 6.505063e-03 -1.148463e-23) (0.000000e+00 0.000000e+00 0.000000e+00)) ((-3.126280e+00 -2.166170e-01 1.805939e+00) (-3.415158e-03 3.215026e-02 -5.552245e-04) (0.000000e+00 0.000000e+00 0.000000e+00))
2900         	((-4.126143e-01 5.954906e+00 -2.257726e-19) (6.123843e-02 6.505082e-03 -1.148243e-23) (0.000000e+00 0.000000e+00 0.000000e+00)) ((-3.126325e+00 -2.166225e-01 1.805969e+00) (-3.415168e-03 3.215018e-02 -5.552505e-04) (0.000000e+00 0.000000e+00 0.000000e+00))
3000         	((-4.126214e-01 5.954973e+00 -2.257754e-19) (6.123855e-02 6.505111e-03 -1.148124e-23) (0.000000e+00 0.000000e+00 0.000000e+00)) ((-3.126361e+00 -2.166263e-01 1.805993e+00) (-3.415183e-03 3.215024e-02 -5.554207e-04) (0.000000e+00 0.000000e+00 0.000000e+00))
3100         	((-4.126279e-01 5.955021e+00 -2.257788e-19) (6.123878e-02 6.505084e-03 -1.147962e-23) (0.000000e+00 0.000000e+00 0.000000e+00)) ((-3.126386e+00 -2.166296e-01 1.806010e+00) (-3.415169e-03 3.215036e-02 -5.554881e-04) (0.000000e+00 0.000000e+00 0.000000e+00))
3200         	((-4.126337e-01 5.955064e+00 -2.257812e-19) (6.123883e-02 6.505074e-03 -1.147856e-23) (0.000000e+00 0.000000e+00 0.000000e+00)) ((-3.126409e+00 -2.166327e-01 1.806025e+00) (-3.415164e-03 3.215039e-02 -5.555211e-04) (0.000000e+00 0.000000e+00 0.000000e+00))
3300         	((-4.126372e-01 5.955093e+00 -2.257831e-19) (6.123883e-02 6.505071e-03 -1.147774e-23) (0.000000e+00 0.000000e+00 0.000000e+00)) ((-3.126424e+00 -2.166345e-01 1.806035e+00) (-3.415162e-03 3.215039e-02 -5.555414e-04) (0.000000e+00 0.000000e+00 0.000000e+00))
3400         	((-4.126405e-01 5.955117e+00 -2.257847e-19) (6.123892e-02 6.505088e-03 -1.147699e-23) (0.000000e+00 0.000000e+00 0.000000e+00)) ((-3.126437e+00 -2.166363e-01 1.806044e+00) (-3.415171e-03 3.215043e-02 -5.555919e-04) (0.000000e+00 0.000000e+00 0.000000e+00))
3500         	((-4.126429e-01 5.955140e+00 -2.257860e-19) (6.123888e-02 6.505094e-03 -1.147643e-23) (0.000000e+00 0.000000e+00 0.000000e+00)) ((-3.126449e+00 -2.166375e-01 1.806053e+00) (-3.415174e-03 3.215041e-02 -5.555962e-04) (0.000000e+00 0.000000e+00 0.000000e+00))
3600         	((-4.126450e-01 5.955157e+00 -2.257871e-19) (6.123885e-02 6.505100e-03 -1.147602e-23) (0.000000e+00 0.000000e+00 0.000000e+00)) ((-3.126457e+00 -2.166386e-01 1.806059e+00) (-3.415177e-03 3.215040e-02 -5.555991e-04) (0.000000e+00 0.000000e+00 0.000000e+00))
