# Forces     
# CofR       : (0.000000e+00 0.000000e+00 0.000000e+00)
# Time       forces(pressure viscous porous)	moments(pressure viscous porous)
100          	((-3.051855e-01 6.290688e+00 -2.292819e-19) (7.285404e-02 5.158718e-03 -2.245890e-23) (0.000000e+00 0.000000e+00 0.000000e+00)) ((-3.302611e+00 -1.602224e-01 2.060359e+00) (-2.708327e-03 3.824837e-02 -5.378786e-04) (0.000000e+00 0.000000e+00 0.000000e+00))
200          	((-4.911885e-01 6.621493e+00 -3.107496e-19) (5.977294e-02 7.198073e-03 2.369528e-23) (0.000000e+00 0.000000e+00 0.000000e+00)) ((-3.476284e+00 -2.578740e-01 2.054462e+00) (-3.778988e-03 3.138079e-02 2.280538e-04) (0.000000e+00 0.000000e+00 0.000000e+00))
300          	((-5.297738e-01 6.492471e+00 -3.210818e-19) (5.775966e-02 7.935047e-03 3.243173e-23) (0.000000e+00 0.000000e+00 0.000000e+00)) ((-3.408547e+00 -2.781312e-01 1.949578e+00) (-4.165900e-03 3.032382e-02 4.981085e-04) (0.000000e+00 0.000000e+00 0.000000e+00))
400          	((-5.377112e-01 6.402430e+00 -3.222892e-19) (5.719747e-02 8.077209e-03 3.129957e-23) (0.000000e+00 0.000000e+00 0.000000e+00)) ((-3.361276e+00 -2.822984e-01 1.882086e+00) (-4.240534e-03 3.002867e-02 4.787104e-04) (0.000000e+00 0.000000e+00 0.000000e+00))
500          	((-5.427001e-01 6.282763e+00 -3.206551e-19) (5.710487e-02 7.933286e-03 3.044790e-23) (0.000000e+00 0.000000e+00 0.000000e+00)) ((-3.298451e+00 -2.849175e-01 1.793935e+00) (-4.164975e-03 2.998006e-02 2.864651e-04) (0.000000e+00 0.000000e+00 0.000000e+00))
600          	((-5.487665e-01 6.306781e+00 -3.158054e-19) (5.737005e-02 7.777934e-03 3.034922e-23) (0.000000e+00 0.000000e+00 0.000000e+00)) ((-3.311060e+00 -2.881024e-01 1.793985e+00) (-4.083415e-03 3.011928e-02 1.166502e-04) (0.000000e+00 0.000000e+00 0.000000e+00))
700          	((-5.624847e-01 6.451172e+00 -3.189801e-19) (5.768761e-02 7.728951e-03 3.352434e-23) (0.000000e+00 0.000000e+00 0.000000e+00)) ((-3.386865e+00 -2.953045e-01 1.854807e+00) (-4.057699e-03 3.028599e-02 1.181777e-05) (0.000000e+00 0.000000e+00 0.000000e+00))
800          	((-5.784210e-01 6.586807e+00 -3.255564e-19) (5.790089e-02 7.744238e-03 3.809062e-23) (0.000000e+00 0.000000e+00 0.000000e+00)) ((-3.458074e+00 -3.036710e-01 1.909614e+00) (-4.065725e-03 3.039797e-02 -5.172271e-05) (0.000000e+00 0.000000e+00 0.000000e+00))
900          	((-5.911785e-01 6.684549e+00 -3.313523e-19) (5.799685e-02 7.776438e-03 4.196839e-23) (0.000000e+00 0.000000e+00 0.000000e+00)) ((-3.509388e+00 -3.103687e-01 1.947910e+00) (-4.082630e-03 3.044835e-02 -8.996703e-05) (0.000000e+00 0.000000e+00 0.000000e+00))
1000         	((-6.001071e-01 6.749132e+00 -3.356445e-19) (5.800765e-02 7.806189e-03 4.439931e-23) (0.000000e+00 0.000000e+00 0.000000e+00)) ((-3.543294e+00 -3.150562e-01 1.972585e+00) (-4.098249e-03 3.045402e-02 -1.135962e-04) (0.000000e+00 0.000000e+00 0.000000e+00))
1100         	((-6.060499e-01 6.788122e+00 -3.385339e-19) (5.797555e-02 7.827468e-03 4.589014e-23) (0.000000e+00 0.000000e+00 0.000000e+00)) ((-3.563764e+00 -3.181762e-01 1.986579e+00) (-4.109420e-03 3.043717e-02 -1.297410e-04) (0.000000e+00 0.000000e+00 0.000000e+00))
1200         	((-6.097958e-01 6.809634e+00 -3.402765e-19) (5.793958e-02 7.839248e-03 4.680141e-23) (0.000000e+00 0.000000e+00 0.000000e+00)) ((-3.575058e+00 -3.201428e-01 1.993525e+00) (-4.115605e-03 3.041828e-02 -1.422592e-04) (0.000000e+00 0.000000e+00 0.000000e+00))
1300         	((-6.120980e-01 6.822320e+00 -3.412721e-19) (5.791391e-02 7.844285e-03 4.733333e-23) (0.000000e+00 0.000000e+00 0.000000e+00)) ((-3.581718e+00 -3.213515e-01 1.997408e+00) (-4.118250e-03 3.040480e-02 -1.521657e-04) (0.000000e+00 0.000000e+00 0.000000e+00))
1400         	((-6.136004e-01 6.831018e+00 -3.418898e-19) (5.789700e-02 7.846221e-03 4.767938e-23) (0.000000e+00 0.000000e+00 0.000000e+00)) ((-3.586284e+00 -3.221402e-01 2.000151e+00) (-4.119266e-03 3.039592e-02 -1.593941e-04) (0.000000e+00 0.000000e+00 0.000000e+00))
1500         	((-6.146540e-01 6.837527e+00 -3.423189e-19) (5.788784e-02 7.847199e-03 4.792176e-23) (0.000000e+00 0.000000e+00 0.000000e+00)) ((-3.589701e+00 -3.226934e-01 2.002307e+00) (-4.119779e-03 3.039112e-02 -1.646800e-04) (0.000000e+00 0.000000e+00 0.000000e+00))
1600         	((-6.154185e-01 6.842480e+00 -3.426341e-19) (5.788276e-02 7.848035e-03 4.809886e-23) (0.000000e+00 0.000000e+00 0.000000e+00)) ((-3.592302e+00 -3.230947e-01 2.004014e+00) (-4.120218e-03 3.038845e-02 -1.684335e-04) (0.000000e+00 0.000000e+00 0.000000e+00))
1700         	((-6.159781e-01 6.846202e+00 -3.428727e-19) (5.787935e-02 7.848739e-03 4.823116e-23) (0.000000e+00 0.000000e+00 0.000000e+00)) ((-3.594256e+00 -3.233885e-01 2.005331e+00) (-4.120588e-03 3.038666e-02 -1.709197e-04) (0.000000e+00 0.000000e+00 0.000000e+00))
1800         	((-6.163817e-01 6.848898e+00 -3.430495e-19) (5.787693e-02 7.849438e-03 4.832636e-23) (0.000000e+00 0.000000e+00 0.000000e+00)) ((-3.595671e+00 -3.236004e-01 2.006292e+00) (-4.120955e-03 3.038539e-02 -1.725466e-04) (0.000000e+00 0.000000e+00 0.000000e+00))
1900         	((-6.166615e-01 6.850742e+00 -3.431724e-19) (5.787525e-02 7.849984e-03 4.839320e-23) (0.000000e+00 0.000000e+00 0.000000e+00)) ((-3.596640e+00 -3.237473e-01 2.006945e+00) (-4.121242e-03 3.038451e-02 -1.737139e-04) (0.000000e+00 0.000000e+00 0.000000e+00))
2000         	((-6.168368e-01 6.851870e+00 -3.432470e-19) (5.787396e-02 7.850289e-03 4.843426e-23) (0.000000e+00 0.000000e+00 0.000000e+00)) ((-3.597232e+00 -3.238393e-01 2.007336e+00) (-4.121402e-03 3.038383e-02 -1.744667e-04) (0.000000e+00 0.000000e+00 0.000000e+00))
2100         	((-6.169511e-01 6.852601e+00 -3.433013e-19) (5.787310e-02 7.850538e-03 4.846108e-23) (0.000000e+00 0.000000e+00 0.000000e+00)) ((-3.597616e+00 -3.238993e-01 2.007588e+00) (-4.121532e-03 3.038338e-02 -1.748729e-04) (0.000000e+00 0.000000e+00 0.000000e+00))
2200         	((-6.170313e-01 6.853105e+00 -3.433372e-19) (5.787243e-02 7.850790e-03 4.848005e-23) (0.000000e+00 0.000000e+00 0.000000e+00)) ((-3.597880e+00 -3.239414e-01 2.007759e+00) (-4.121665e-03 3.038303e-02 -1.752670e-04) (0.000000e+00 0.000000e+00 0.000000e+00))
2300         	((-6.170908e-01 6.853472e+00 -3.433628e-19) (5.787222e-02 7.850884e-03 4.849465e-23) (0.000000e+00 0.000000e+00 0.000000e+00)) ((-3.598073e+00 -3.239727e-01 2.007884e+00) (-4.121714e-03 3.038292e-02 -1.754937e-04) (0.000000e+00 0.000000e+00 0.000000e+00))
2400         	((-6.171373e-01 6.853750e+00 -3.433834e-19) (5.787167e-02 7.850958e-03 4.850541e-23) (0.000000e+00 0.000000e+00 0.000000e+00)) ((-3.598219e+00 -3.239971e-01 2.007978e+00) (-4.121753e-03 3.038263e-02 -1.756248e-04) (0.000000e+00 0.000000e+00 0.000000e+00))
2500         	((-6.171733e-01 6.853976e+00 -3.433990e-19) (5.787114e-02 7.851026e-03 4.851383e-23) (0.000000e+00 0.000000e+00 0.000000e+00)) ((-3.598337e+00 -3.240160e-01 2.008057e+00) (-4.121789e-03 3.038235e-02 -1.757241e-04) (0.000000e+00 0.000000e+00 0.000000e+00))
2600         	((-6.172008e-01 6.854153e+00 -3.434114e-19) (5.787069e-02 7.851084e-03 4.852073e-23) (0.000000e+00 0.000000e+00 0.000000e+00)) ((-3.598430e+00 -3.240304e-01 2.008118e+00) (-4.121819e-03 3.038211e-02 -1.758084e-04) (0.000000e+00 0.000000e+00 0.000000e+00))
2700         	((-6.172220e-01 6.854276e+00 -3.434205e-19) (5.787040e-02 7.851116e-03 4.852519e-23) (0.000000e+00 0.000000e+00 0.000000e+00)) ((-3.598495e+00 -3.240415e-01 2.008158e+00) (-4.121836e-03 3.038196e-02 -1.758449e-04) (0.000000e+00 0.000000e+00 0.000000e+00))
2800         	((-6.172367e-01 6.854375e+00 -3.434264e-19) (5.787074e-02 7.851163e-03 4.852881e-23) (0.000000e+00 0.000000e+00 0.000000e+00)) ((-3.598547e+00 -3.240493e-01 2.008191e+00) (-4.121861e-03 3.038214e-02 -1.760760e-04) (0.000000e+00 0.000000e+00 0.000000e+00))
2900         	((-6.172497e-01 6.854458e+00 -3.434315e-19) (5.787072e-02 7.851164e-03 4.853142e-23) (0.000000e+00 0.000000e+00 0.000000e+00)) ((-3.598590e+00 -3.240561e-01 2.008218e+00) (-4.121861e-03 3.038213e-02 -1.761208e-04) (0.000000e+00 0.000000e+00 0.000000e+00))
3000         	((-6.172592e-01 6.854517e+00 -3.434359e-19) (5.787066e-02 7.851167e-03 4.853346e-23) (0.000000e+00 0.000000e+00 0.000000e+00)) ((-3.598621e+00 -3.240611e-01 2.008239e+00) (-4.121863e-03 3.038210e-02 -1.761503e-04) (0.000000e+00 0.000000e+00 0.000000e+00))
3100         	((-6.172669e-01 6.854567e+00 -3.434391e-19) (5.787058e-02 7.851171e-03 4.853507e-23) (0.000000e+00 0.000000e+00 0.000000e+00)) ((-3.598648e+00 -3.240651e-01 2.008257e+00) (-4.121865e-03 3.038206e-02 -1.761706e-04) (0.000000e+00 0.000000e+00 0.000000e+00))
3200         	((-6.172729e-01 6.854606e+00 -3.434418e-19) (5.787057e-02 7.851185e-03 4.853794e-23) (0.000000e+00 0.000000e+00 0.000000e+00)) ((-3.598668e+00 -3.240683e-01 2.008271e+00) (-4.121872e-03 3.038205e-02 -1.762293e-04) (0.000000e+00 0.000000e+00 0.000000e+00))
3300         	((-6.172775e-01 6.854636e+00 -3.434440e-19) (5.787051e-02 7.851195e-03 4.853894e-23) (0.000000e+00 0.000000e+00 0.000000e+00)) ((-3.598684e+00 -3.240707e-01 2.008281e+00) (-4.121878e-03 3.038202e-02 -1.762329e-04) (0.000000e+00 0.000000e+00 0.000000e+00))
3400         	((-6.172821e-01 6.854664e+00 -3.434456e-19) (5.787045e-02 7.851203e-03 4.853975e-23) (0.000000e+00 0.000000e+00 0.000000e+00)) ((-3.598699e+00 -3.240731e-01 2.008291e+00) (-4.121882e-03 3.038199e-02 -1.762371e-04) (0.000000e+00 0.000000e+00 0.000000e+00))
3500         	((-6.172844e-01 6.854680e+00 -3.434470e-19) (5.787040e-02 7.851209e-03 4.854040e-23) (0.000000e+00 0.000000e+00 0.000000e+00)) ((-3.598707e+00 -3.240743e-01 2.008297e+00) (-4.121885e-03 3.038196e-02 -1.762405e-04) (0.000000e+00 0.000000e+00 0.000000e+00))
3600         	((-6.172867e-01 6.854695e+00 -3.434480e-19) (5.787036e-02 7.851214e-03 4.854090e-23) (0.000000e+00 0.000000e+00 0.000000e+00)) ((-3.598715e+00 -3.240755e-01 2.008302e+00) (-4.121887e-03 3.038194e-02 -1.762433e-04) (0.000000e+00 0.000000e+00 0.000000e+00))
3700         	((-6.172884e-01 6.854707e+00 -3.434489e-19) (5.787034e-02 7.851217e-03 4.854124e-23) (0.000000e+00 0.000000e+00 0.000000e+00)) ((-3.598721e+00 -3.240764e-01 2.008306e+00) (-4.121889e-03 3.038193e-02 -1.762456e-04) (0.000000e+00 0.000000e+00 0.000000e+00))
3800         	((-6.172896e-01 6.854714e+00 -3.434495e-19) (5.787031e-02 7.851220e-03 4.854151e-23) (0.000000e+00 0.000000e+00 0.000000e+00)) ((-3.598725e+00 -3.240770e-01 2.008309e+00) (-4.121890e-03 3.038191e-02 -1.762475e-04) (0.000000e+00 0.000000e+00 0.000000e+00))
3900         	((-6.172909e-01 6.854720e+00 -3.434499e-19) (5.787030e-02 7.851221e-03 4.854172e-23) (0.000000e+00 0.000000e+00 0.000000e+00)) ((-3.598728e+00 -3.240777e-01 2.008312e+00) (-4.121891e-03 3.038191e-02 -1.762491e-04) (0.000000e+00 0.000000e+00 0.000000e+00))
4000         	((-6.172912e-01 6.854723e+00 -3.434503e-19) (5.787028e-02 7.851223e-03 4.854187e-23) (0.000000e+00 0.000000e+00 0.000000e+00)) ((-3.598730e+00 -3.240779e-01 2.008312e+00) (-4.121892e-03 3.038190e-02 -1.762504e-04) (0.000000e+00 0.000000e+00 0.000000e+00))
4100         	((-6.172922e-01 6.854725e+00 -3.434504e-19) (5.787027e-02 7.851223e-03 4.854199e-23) (0.000000e+00 0.000000e+00 0.000000e+00)) ((-3.598730e+00 -3.240784e-01 2.008312e+00) (-4.121892e-03 3.038189e-02 -1.762514e-04) (0.000000e+00 0.000000e+00 0.000000e+00))
4200         	((-6.172925e-01 6.854733e+00 -3.434506e-19) (5.787027e-02 7.851224e-03 4.854209e-23) (0.000000e+00 0.000000e+00 0.000000e+00)) ((-3.598735e+00 -3.240786e-01 2.008315e+00) (-4.121893e-03 3.038189e-02 -1.762523e-04) (0.000000e+00 0.000000e+00 0.000000e+00))
4300         	((-6.172928e-01 6.854733e+00 -3.434508e-19) (5.787026e-02 7.851224e-03 4.854217e-23) (0.000000e+00 0.000000e+00 0.000000e+00)) ((-3.598735e+00 -3.240787e-01 2.008315e+00) (-4.121893e-03 3.038189e-02 -1.762530e-04) (0.000000e+00 0.000000e+00 0.000000e+00))
4400         	((-6.172931e-01 6.854735e+00 -3.434509e-19) (5.787026e-02 7.851225e-03 4.854222e-23) (0.000000e+00 0.000000e+00 0.000000e+00)) ((-3.598736e+00 -3.240789e-01 2.008316e+00) (-4.121893e-03 3.038189e-02 -1.762535e-04) (0.000000e+00 0.000000e+00 0.000000e+00))
4500         	((-6.172935e-01 6.854737e+00 -3.434510e-19) (5.787025e-02 7.851225e-03 4.854227e-23) (0.000000e+00 0.000000e+00 0.000000e+00)) ((-3.598737e+00 -3.240791e-01 2.008316e+00) (-4.121893e-03 3.038188e-02 -1.762539e-04) (0.000000e+00 0.000000e+00 0.000000e+00))
4600         	((-6.172933e-01 6.854739e+00 -3.434511e-19) (5.787025e-02 7.851225e-03 4.854231e-23) (0.000000e+00 0.000000e+00 0.000000e+00)) ((-3.598738e+00 -3.240790e-01 2.008317e+00) (-4.121893e-03 3.038188e-02 -1.762542e-04) (0.000000e+00 0.000000e+00 0.000000e+00))
4700         	((-6.172937e-01 6.854738e+00 -3.434511e-19) (5.787025e-02 7.851226e-03 4.854234e-23) (0.000000e+00 0.000000e+00 0.000000e+00)) ((-3.598738e+00 -3.240792e-01 2.008317e+00) (-4.121893e-03 3.038188e-02 -1.762544e-04) (0.000000e+00 0.000000e+00 0.000000e+00))
4800         	((-6.172938e-01 6.854739e+00 -3.434512e-19) (5.787025e-02 7.851226e-03 4.854236e-23) (0.000000e+00 0.000000e+00 0.000000e+00)) ((-3.598738e+00 -3.240792e-01 2.008317e+00) (-4.121894e-03 3.038188e-02 -1.762546e-04) (0.000000e+00 0.000000e+00 0.000000e+00))
4900         	((-6.172936e-01 6.854740e+00 -3.434512e-19) (5.787025e-02 7.851226e-03 4.854237e-23) (0.000000e+00 0.000000e+00 0.000000e+00)) ((-3.598738e+00 -3.240791e-01 2.008318e+00) (-4.121894e-03 3.038188e-02 -1.762547e-04) (0.000000e+00 0.000000e+00 0.000000e+00))
5000         	((-6.172939e-01 6.854741e+00 -3.434512e-19) (5.787025e-02 7.851226e-03 4.854239e-23) (0.000000e+00 0.000000e+00 0.000000e+00)) ((-3.598739e+00 -3.240793e-01 2.008318e+00) (-4.121894e-03 3.038188e-02 -1.762549e-04) (0.000000e+00 0.000000e+00 0.000000e+00))
5100         	((-6.172940e-01 6.854737e+00 -3.434513e-19) (5.787025e-02 7.851226e-03 4.854240e-23) (0.000000e+00 0.000000e+00 0.000000e+00)) ((-3.598737e+00 -3.240794e-01 2.008316e+00) (-4.121894e-03 3.038188e-02 -1.762549e-04) (0.000000e+00 0.000000e+00 0.000000e+00))
5200         	((-6.172941e-01 6.854742e+00 -3.434514e-19) (5.787025e-02 7.851226e-03 4.854241e-23) (0.000000e+00 0.000000e+00 0.000000e+00)) ((-3.598740e+00 -3.240794e-01 2.008318e+00) (-4.121894e-03 3.038188e-02 -1.762550e-04) (0.000000e+00 0.000000e+00 0.000000e+00))
5300         	((-6.172941e-01 6.854741e+00 -3.434514e-19) (5.787024e-02 7.851226e-03 4.854241e-23) (0.000000e+00 0.000000e+00 0.000000e+00)) ((-3.598739e+00 -3.240794e-01 2.008318e+00) (-4.121894e-03 3.038188e-02 -1.762551e-04) (0.000000e+00 0.000000e+00 0.000000e+00))
5400         	((-6.172940e-01 6.854741e+00 -3.434513e-19) (5.787024e-02 7.851226e-03 4.854242e-23) (0.000000e+00 0.000000e+00 0.000000e+00)) ((-3.598739e+00 -3.240793e-01 2.008318e+00) (-4.121894e-03 3.038188e-02 -1.762551e-04) (0.000000e+00 0.000000e+00 0.000000e+00))
5500         	((-6.172939e-01 6.854744e+00 -3.434513e-19) (5.787024e-02 7.851226e-03 4.854242e-23) (0.000000e+00 0.000000e+00 0.000000e+00)) ((-3.598740e+00 -3.240793e-01 2.008319e+00) (-4.121894e-03 3.038188e-02 -1.762551e-04) (0.000000e+00 0.000000e+00 0.000000e+00))
5600         	((-6.172942e-01 6.854740e+00 -3.434513e-19) (5.787024e-02 7.851226e-03 4.854242e-23) (0.000000e+00 0.000000e+00 0.000000e+00)) ((-3.598739e+00 -3.240794e-01 2.008317e+00) (-4.121894e-03 3.038188e-02 -1.762551e-04) (0.000000e+00 0.000000e+00 0.000000e+00))
5700         	((-6.172941e-01 6.854742e+00 -3.434513e-19) (5.787024e-02 7.851226e-03 4.854243e-23) (0.000000e+00 0.000000e+00 0.000000e+00)) ((-3.598740e+00 -3.240794e-01 2.008318e+00) (-4.121894e-03 3.038188e-02 -1.762552e-04) (0.000000e+00 0.000000e+00 0.000000e+00))
5800         	((-6.172937e-01 6.854740e+00 -3.434513e-19) (5.787024e-02 7.851226e-03 4.854243e-23) (0.000000e+00 0.000000e+00 0.000000e+00)) ((-3.598738e+00 -3.240792e-01 2.008318e+00) (-4.121894e-03 3.038188e-02 -1.762552e-04) (0.000000e+00 0.000000e+00 0.000000e+00))
5900         	((-6.172941e-01 6.854742e+00 -3.434513e-19) (5.787024e-02 7.851226e-03 4.854243e-23) (0.000000e+00 0.000000e+00 0.000000e+00)) ((-3.598739e+00 -3.240794e-01 2.008318e+00) (-4.121894e-03 3.038188e-02 -1.762552e-04) (0.000000e+00 0.000000e+00 0.000000e+00))
6000         	((-6.172941e-01 6.854741e+00 -3.434513e-19) (5.787024e-02 7.851226e-03 4.854243e-23) (0.000000e+00 0.000000e+00 0.000000e+00)) ((-3.598739e+00 -3.240794e-01 2.008318e+00) (-4.121894e-03 3.038188e-02 -1.762552e-04) (0.000000e+00 0.000000e+00 0.000000e+00))
6100         	((-6.172942e-01 6.854741e+00 -3.434513e-19) (5.787024e-02 7.851226e-03 4.854243e-23) (0.000000e+00 0.000000e+00 0.000000e+00)) ((-3.598739e+00 -3.240795e-01 2.008318e+00) (-4.121894e-03 3.038188e-02 -1.762552e-04) (0.000000e+00 0.000000e+00 0.000000e+00))
6200         	((-6.172942e-01 6.854741e+00 -3.434513e-19) (5.787024e-02 7.851226e-03 4.854243e-23) (0.000000e+00 0.000000e+00 0.000000e+00)) ((-3.598739e+00 -3.240794e-01 2.008318e+00) (-4.121894e-03 3.038188e-02 -1.762552e-04) (0.000000e+00 0.000000e+00 0.000000e+00))
6300         	((-6.172941e-01 6.854741e+00 -3.434513e-19) (5.787024e-02 7.851226e-03 4.854243e-23) (0.000000e+00 0.000000e+00 0.000000e+00)) ((-3.598739e+00 -3.240794e-01 2.008318e+00) (-4.121894e-03 3.038188e-02 -1.762552e-04) (0.000000e+00 0.000000e+00 0.000000e+00))
6400         	((-6.172941e-01 6.854742e+00 -3.434513e-19) (5.787024e-02 7.851226e-03 4.854243e-23) (0.000000e+00 0.000000e+00 0.000000e+00)) ((-3.598739e+00 -3.240794e-01 2.008318e+00) (-4.121894e-03 3.038188e-02 -1.762552e-04) (0.000000e+00 0.000000e+00 0.000000e+00))
6500         	((-6.172942e-01 6.854742e+00 -3.434513e-19) (5.787024e-02 7.851226e-03 4.854243e-23) (0.000000e+00 0.000000e+00 0.000000e+00)) ((-3.598739e+00 -3.240794e-01 2.008318e+00) (-4.121894e-03 3.038188e-02 -1.762552e-04) (0.000000e+00 0.000000e+00 0.000000e+00))
6600         	((-6.172940e-01 6.854741e+00 -3.434514e-19) (5.787024e-02 7.851226e-03 4.854243e-23) (0.000000e+00 0.000000e+00 0.000000e+00)) ((-3.598739e+00 -3.240794e-01 2.008318e+00) (-4.121894e-03 3.038188e-02 -1.762552e-04) (0.000000e+00 0.000000e+00 0.000000e+00))
6700         	((-6.172943e-01 6.854736e+00 -3.434513e-19) (5.787024e-02 7.851226e-03 4.854243e-23) (0.000000e+00 0.000000e+00 0.000000e+00)) ((-3.598736e+00 -3.240795e-01 2.008315e+00) (-4.121894e-03 3.038188e-02 -1.762552e-04) (0.000000e+00 0.000000e+00 0.000000e+00))
6800         	((-6.172941e-01 6.854743e+00 -3.434514e-19) (5.787024e-02 7.851226e-03 4.854243e-23) (0.000000e+00 0.000000e+00 0.000000e+00)) ((-3.598740e+00 -3.240794e-01 2.008319e+00) (-4.121894e-03 3.038188e-02 -1.762552e-04) (0.000000e+00 0.000000e+00 0.000000e+00))
6900         	((-6.172940e-01 6.854741e+00 -3.434513e-19) (5.787024e-02 7.851226e-03 4.854243e-23) (0.000000e+00 0.000000e+00 0.000000e+00)) ((-3.598739e+00 -3.240794e-01 2.008318e+00) (-4.121894e-03 3.038188e-02 -1.762552e-04) (0.000000e+00 0.000000e+00 0.000000e+00))
7000         	((-6.172942e-01 6.854741e+00 -3.434513e-19) (5.787024e-02 7.851226e-03 4.854243e-23) (0.000000e+00 0.000000e+00 0.000000e+00)) ((-3.598739e+00 -3.240794e-01 2.008318e+00) (-4.121894e-03 3.038188e-02 -1.762552e-04) (0.000000e+00 0.000000e+00 0.000000e+00))
7100         	((-6.172941e-01 6.854742e+00 -3.434514e-19) (5.787024e-02 7.851226e-03 4.854243e-23) (0.000000e+00 0.000000e+00 0.000000e+00)) ((-3.598739e+00 -3.240794e-01 2.008318e+00) (-4.121894e-03 3.038188e-02 -1.762552e-04) (0.000000e+00 0.000000e+00 0.000000e+00))
7200         	((-6.172942e-01 6.854741e+00 -3.434513e-19) (5.787024e-02 7.851226e-03 4.854243e-23) (0.000000e+00 0.000000e+00 0.000000e+00)) ((-3.598739e+00 -3.240794e-01 2.008318e+00) (-4.121894e-03 3.038188e-02 -1.762552e-04) (0.000000e+00 0.000000e+00 0.000000e+00))
