# Forces     
# CofR       : (0.000000e+00 0.000000e+00 0.000000e+00)
# Time       forces(pressure viscous porous)	moments(pressure viscous porous)
100          	((5.682219e-02 3.111901e+00 9.814911e-21) (7.487265e-02 2.166218e-03 -8.738970e-23) (0.000000e+00 0.000000e+00 0.000000e+00)) ((-1.633748e+00 2.983165e-02 1.153049e+00) (-1.137264e-03 3.930814e-02 -9.671152e-04) (0.000000e+00 0.000000e+00 0.000000e+00))
200          	((-3.986891e-03 3.285428e+00 -8.028489e-21) (6.342448e-02 3.367064e-03 -7.365476e-23) (0.000000e+00 0.000000e+00 0.000000e+00)) ((-1.724849e+00 -2.093118e-03 1.143664e+00) (-1.767709e-03 3.329785e-02 -4.571467e-04) (0.000000e+00 0.000000e+00 0.000000e+00))
300          	((-2.494666e-02 3.237304e+00 -6.684662e-21) (6.277742e-02 3.721718e-03 -7.013391e-23) (0.000000e+00 0.000000e+00 0.000000e+00)) ((-1.699584e+00 -1.309700e-02 1.092825e+00) (-1.953902e-03 3.295815e-02 -3.738835e-04) (0.000000e+00 0.000000e+00 0.000000e+00))
400          	((-3.466751e-02 3.220439e+00 -5.310786e-21) (6.355323e-02 3.724442e-03 -6.996830e-23) (0.000000e+00 0.000000e+00 0.000000e+00)) ((-1.690730e+00 -1.820044e-02 1.065963e+00) (-1.955332e-03 3.336545e-02 -4.746136e-04) (0.000000e+00 0.000000e+00 0.000000e+00))
500          	((-4.011190e-02 3.234655e+00 -5.203350e-21) (6.429401e-02 3.586258e-03 -6.952745e-23) (0.000000e+00 0.000000e+00 0.000000e+00)) ((-1.698194e+00 -2.105875e-02 1.057493e+00) (-1.882785e-03 3.375436e-02 -6.600461e-04) (0.000000e+00 0.000000e+00 0.000000e+00))
600          	((-4.431526e-02 3.348046e+00 -7.348877e-21) (6.478275e-02 3.486671e-03 -6.820420e-23) (0.000000e+00 0.000000e+00 0.000000e+00)) ((-1.757724e+00 -2.326551e-02 1.107871e+00) (-1.830502e-03 3.401094e-02 -8.086581e-04) (0.000000e+00 0.000000e+00 0.000000e+00))
700          	((-4.993505e-02 3.479214e+00 -1.182714e-20) (6.505260e-02 3.481926e-03 -6.600409e-23) (0.000000e+00 0.000000e+00 0.000000e+00)) ((-1.826588e+00 -2.621590e-02 1.164579e+00) (-1.828011e-03 3.415261e-02 -8.884209e-04) (0.000000e+00 0.000000e+00 0.000000e+00))
800          	((-5.492817e-02 3.565290e+00 -1.561797e-20) (6.517947e-02 3.513769e-03 -6.415040e-23) (0.000000e+00 0.000000e+00 0.000000e+00)) ((-1.871777e+00 -2.883729e-02 1.198826e+00) (-1.844729e-03 3.421922e-02 -9.276031e-04) (0.000000e+00 0.000000e+00 0.000000e+00))
900          	((-5.824129e-02 3.613285e+00 -1.797195e-20) (6.523006e-02 3.541789e-03 -6.300233e-23) (0.000000e+00 0.000000e+00 0.000000e+00)) ((-1.896975e+00 -3.057668e-02 1.216581e+00) (-1.859439e-03 3.424578e-02 -9.502110e-04) (0.000000e+00 0.000000e+00 0.000000e+00))
1000         	((-6.029871e-02 3.639957e+00 -1.932599e-20) (6.524553e-02 3.556158e-03 -6.233470e-23) (0.000000e+00 0.000000e+00 0.000000e+00)) ((-1.910978e+00 -3.165682e-02 1.225662e+00) (-1.866983e-03 3.425390e-02 -9.679976e-04) (0.000000e+00 0.000000e+00 0.000000e+00))
1100         	((-6.160906e-02 3.656185e+00 -2.011533e-20) (6.524917e-02 3.559839e-03 -6.191848e-23) (0.000000e+00 0.000000e+00 0.000000e+00)) ((-1.919497e+00 -3.234476e-02 1.230859e+00) (-1.868916e-03 3.425582e-02 -9.841662e-04) (0.000000e+00 0.000000e+00 0.000000e+00))
1200         	((-6.249081e-02 3.668653e+00 -2.064815e-20) (6.525167e-02 3.559273e-03 -6.162950e-23) (0.000000e+00 0.000000e+00 0.000000e+00)) ((-1.926043e+00 -3.280767e-02 1.235157e+00) (-1.868619e-03 3.425713e-02 -9.975910e-04) (0.000000e+00 0.000000e+00 0.000000e+00))
1300         	((-6.315219e-02 3.679314e+00 -2.108177e-20) (6.525566e-02 3.558627e-03 -6.140303e-23) (0.000000e+00 0.000000e+00 0.000000e+00)) ((-1.931640e+00 -3.315490e-02 1.239116e+00) (-1.868279e-03 3.425922e-02 -1.007757e-03) (0.000000e+00 0.000000e+00 0.000000e+00))
1400         	((-6.366980e-02 3.687802e+00 -2.143721e-20) (6.525869e-02 3.559099e-03 -6.122589e-23) (0.000000e+00 0.000000e+00 0.000000e+00)) ((-1.936096e+00 -3.342665e-02 1.242327e+00) (-1.868527e-03 3.426081e-02 -1.014711e-03) (0.000000e+00 0.000000e+00 0.000000e+00))
1500         	((-6.405906e-02 3.693982e+00 -2.170718e-20) (6.526043e-02 3.560159e-03 -6.109318e-23) (0.000000e+00 0.000000e+00 0.000000e+00)) ((-1.939341e+00 -3.363101e-02 1.244646e+00) (-1.869083e-03 3.426173e-02 -1.019295e-03) (0.000000e+00 0.000000e+00 0.000000e+00))
1600         	((-6.434044e-02 3.698239e+00 -2.190021e-20) (6.526100e-02 3.561157e-03 -6.099576e-23) (0.000000e+00 0.000000e+00 0.000000e+00)) ((-1.941575e+00 -3.377873e-02 1.246214e+00) (-1.869607e-03 3.426203e-02 -1.022276e-03) (0.000000e+00 0.000000e+00 0.000000e+00))
1700         	((-6.453725e-02 3.701124e+00 -2.203252e-20) (6.526116e-02 3.561858e-03 -6.092863e-23) (0.000000e+00 0.000000e+00 0.000000e+00)) ((-1.943090e+00 -3.388205e-02 1.247256e+00) (-1.869976e-03 3.426211e-02 -1.024448e-03) (0.000000e+00 0.000000e+00 0.000000e+00))
1800         	((-6.467431e-02 3.703120e+00 -2.212281e-20) (6.526114e-02 3.562235e-03 -6.088248e-23) (0.000000e+00 0.000000e+00 0.000000e+00)) ((-1.944138e+00 -3.395401e-02 1.247970e+00) (-1.870173e-03 3.426210e-02 -1.026063e-03) (0.000000e+00 0.000000e+00 0.000000e+00))
1900         	((-6.477122e-02 3.704554e+00 -2.218688e-20) (6.526115e-02 3.562452e-03 -6.084903e-23) (0.000000e+00 0.000000e+00 0.000000e+00)) ((-1.944891e+00 -3.400489e-02 1.248487e+00) (-1.870287e-03 3.426210e-02 -1.027224e-03) (0.000000e+00 0.000000e+00 0.000000e+00))
2000         	((-6.483376e-02 3.705601e+00 -2.223092e-20) (6.526130e-02 3.562534e-03 -6.082727e-23) (0.000000e+00 0.000000e+00 0.000000e+00)) ((-1.945441e+00 -3.403772e-02 1.248885e+00) (-1.870331e-03 3.426218e-02 -1.028136e-03) (0.000000e+00 0.000000e+00 0.000000e+00))
2100         	((-6.488111e-02 3.706322e+00 -2.226127e-20) (6.526143e-02 3.562561e-03 -6.081269e-23) (0.000000e+00 0.000000e+00 0.000000e+00)) ((-1.945819e+00 -3.406258e-02 1.249146e+00) (-1.870344e-03 3.426225e-02 -1.028833e-03) (0.000000e+00 0.000000e+00 0.000000e+00))
2200         	((-6.492013e-02 3.706851e+00 -2.228616e-20) (6.526139e-02 3.562648e-03 -6.079861e-23) (0.000000e+00 0.000000e+00 0.000000e+00)) ((-1.946097e+00 -3.408307e-02 1.249329e+00) (-1.870390e-03 3.426223e-02 -1.029171e-03) (0.000000e+00 0.000000e+00 0.000000e+00))
2300         	((-6.494341e-02 3.707200e+00 -2.230252e-20) (6.526143e-02 3.562729e-03 -6.079150e-23) (0.000000e+00 0.000000e+00 0.000000e+00)) ((-1.946280e+00 -3.409529e-02 1.249456e+00) (-1.870433e-03 3.426225e-02 -1.029460e-03) (0.000000e+00 0.000000e+00 0.000000e+00))
2400         	((-6.495969e-02 3.707444e+00 -2.231354e-20) (6.526154e-02 3.562786e-03 -6.078673e-23) (0.000000e+00 0.000000e+00 0.000000e+00)) ((-1.946408e+00 -3.410384e-02 1.249545e+00) (-1.870463e-03 3.426231e-02 -1.029707e-03) (0.000000e+00 0.000000e+00 0.000000e+00))
2500         	((-6.497269e-02 3.707633e+00 -2.232233e-20) (6.526152e-02 3.562825e-03 -6.078200e-23) (0.000000e+00 0.000000e+00 0.000000e+00)) ((-1.946507e+00 -3.411066e-02 1.249614e+00) (-1.870483e-03 3.426230e-02 -1.029797e-03) (0.000000e+00 0.000000e+00 0.000000e+00))
2600         	((-6.498293e-02 3.707779e+00 -2.232917e-20) (6.526153e-02 3.562867e-03 -6.077803e-23) (0.000000e+00 0.000000e+00 0.000000e+00)) ((-1.946584e+00 -3.411604e-02 1.249667e+00) (-1.870505e-03 3.426230e-02 -1.029931e-03) (0.000000e+00 0.000000e+00 0.000000e+00))
2700         	((-6.499081e-02 3.707891e+00 -2.233424e-20) (6.526147e-02 3.562904e-03 -6.077522e-23) (0.000000e+00 0.000000e+00 0.000000e+00)) ((-1.946643e+00 -3.412018e-02 1.249707e+00) (-1.870525e-03 3.426227e-02 -1.029968e-03) (0.000000e+00 0.000000e+00 0.000000e+00))
2800         	((-6.499680e-02 3.707975e+00 -2.233820e-20) (6.526141e-02 3.562927e-03 -6.077302e-23) (0.000000e+00 0.000000e+00 0.000000e+00)) ((-1.946687e+00 -3.412332e-02 1.249737e+00) (-1.870536e-03 3.426224e-02 -1.030006e-03) (0.000000e+00 0.000000e+00 0.000000e+00))
2900         	((-6.500157e-02 3.708048e+00 -2.234131e-20) (6.526137e-02 3.562942e-03 -6.077132e-23) (0.000000e+00 0.000000e+00 0.000000e+00)) ((-1.946725e+00 -3.412582e-02 1.249762e+00) (-1.870544e-03 3.426222e-02 -1.030038e-03) (0.000000e+00 0.000000e+00 0.000000e+00))
3000         	((-6.500540e-02 3.708108e+00 -2.234388e-20) (6.526133e-02 3.562954e-03 -6.076994e-23) (0.000000e+00 0.000000e+00 0.000000e+00)) ((-1.946756e+00 -3.412783e-02 1.249785e+00) (-1.870551e-03 3.426220e-02 -1.030063e-03) (0.000000e+00 0.000000e+00 0.000000e+00))
3100         	((-6.500809e-02 3.708159e+00 -2.234554e-20) (6.526145e-02 3.562959e-03 -6.077043e-23) (0.000000e+00 0.000000e+00 0.000000e+00)) ((-1.946784e+00 -3.412925e-02 1.249804e+00) (-1.870553e-03 3.426226e-02 -1.030233e-03) (0.000000e+00 0.000000e+00 0.000000e+00))
3200         	((-6.501066e-02 3.708190e+00 -2.234732e-20) (6.526154e-02 3.562945e-03 -6.076948e-23) (0.000000e+00 0.000000e+00 0.000000e+00)) ((-1.946800e+00 -3.413060e-02 1.249815e+00) (-1.870546e-03 3.426231e-02 -1.030270e-03) (0.000000e+00 0.000000e+00 0.000000e+00))
3300         	((-6.501258e-02 3.708221e+00 -2.234860e-20) (6.526157e-02 3.562944e-03 -6.076877e-23) (0.000000e+00 0.000000e+00 0.000000e+00)) ((-1.946816e+00 -3.413160e-02 1.249826e+00) (-1.870546e-03 3.426232e-02 -1.030289e-03) (0.000000e+00 0.000000e+00 0.000000e+00))
3400         	((-6.501424e-02 3.708245e+00 -2.234971e-20) (6.526158e-02 3.562947e-03 -6.076822e-23) (0.000000e+00 0.000000e+00 0.000000e+00)) ((-1.946829e+00 -3.413248e-02 1.249835e+00) (-1.870547e-03 3.426233e-02 -1.030301e-03) (0.000000e+00 0.000000e+00 0.000000e+00))
3500         	((-6.501542e-02 3.708262e+00 -2.235057e-20) (6.526157e-02 3.562951e-03 -6.076778e-23) (0.000000e+00 0.000000e+00 0.000000e+00)) ((-1.946837e+00 -3.413309e-02 1.249841e+00) (-1.870549e-03 3.426232e-02 -1.030309e-03) (0.000000e+00 0.000000e+00 0.000000e+00))
3600         	((-6.501640e-02 3.708277e+00 -2.235116e-20) (6.526156e-02 3.562955e-03 -6.076743e-23) (0.000000e+00 0.000000e+00 0.000000e+00)) ((-1.946845e+00 -3.413361e-02 1.249846e+00) (-1.870551e-03 3.426232e-02 -1.030315e-03) (0.000000e+00 0.000000e+00 0.000000e+00))
