# Forces     
# CofR       : (0.000000e+00 0.000000e+00 0.000000e+00)
# Time       forces(pressure viscous porous)	moments(pressure viscous porous)
100          	((-2.669864e-01 7.298027e+00 -2.189164e-19) (7.820209e-02 6.702330e-03 -5.884015e-23) (0.000000e+00 0.000000e+00 0.000000e+00)) ((-3.831464e+00 -1.401679e-01 2.371825e+00) (-3.518723e-03 4.105610e-02 -1.226351e-04) (0.000000e+00 0.000000e+00 0.000000e+00))
200          	((-4.939722e-01 7.832747e+00 -3.569499e-19) (7.641604e-02 9.342815e-03 2.084297e-24) (0.000000e+00 0.000000e+00 0.000000e+00)) ((-4.112192e+00 -2.593354e-01 2.401599e+00) (-4.904978e-03 4.011842e-02 5.477699e-04) (0.000000e+00 0.000000e+00 0.000000e+00))
300          	((-5.668530e-01 7.847656e+00 -3.933799e-19) (7.534893e-02 1.057127e-02 2.786086e-23) (0.000000e+00 0.000000e+00 0.000000e+00)) ((-4.120019e+00 -2.975978e-01 2.357712e+00) (-5.549916e-03 3.955819e-02 8.965610e-04) (0.000000e+00 0.000000e+00 0.000000e+00))
400          	((-5.849259e-01 7.757409e+00 -4.031845e-19) (7.419244e-02 1.105374e-02 3.242804e-23) (0.000000e+00 0.000000e+00 0.000000e+00)) ((-4.072640e+00 -3.070861e-01 2.297275e+00) (-5.803211e-03 3.895103e-02 1.014088e-03) (0.000000e+00 0.000000e+00 0.000000e+00))
500          	((-5.875587e-01 7.650906e+00 -4.056471e-19) (7.313747e-02 1.113537e-02 3.217883e-23) (0.000000e+00 0.000000e+00 0.000000e+00)) ((-4.016726e+00 -3.084683e-01 2.233183e+00) (-5.846070e-03 3.839717e-02 9.554642e-04) (0.000000e+00 0.000000e+00 0.000000e+00))
600          	((-5.874422e-01 7.565052e+00 -4.041762e-19) (7.235111e-02 1.104523e-02 3.133144e-23) (0.000000e+00 0.000000e+00 0.000000e+00)) ((-3.971652e+00 -3.084072e-01 2.178956e+00) (-5.798747e-03 3.798433e-02 8.267349e-04) (0.000000e+00 0.000000e+00 0.000000e+00))
700          	((-5.887709e-01 7.531123e+00 -4.013182e-19) (7.193761e-02 1.093447e-02 3.109071e-23) (0.000000e+00 0.000000e+00 0.000000e+00)) ((-3.953839e+00 -3.091047e-01 2.152483e+00) (-5.740596e-03 3.776724e-02 7.095062e-04) (0.000000e+00 0.000000e+00 0.000000e+00))
800          	((-5.923995e-01 7.552269e+00 -3.997688e-19) (7.180303e-02 1.086592e-02 3.155690e-23) (0.000000e+00 0.000000e+00 0.000000e+00)) ((-3.964941e+00 -3.110097e-01 2.156116e+00) (-5.704608e-03 3.769659e-02 6.312432e-04) (0.000000e+00 0.000000e+00 0.000000e+00))
900          	((-5.978886e-01 7.598574e+00 -4.003694e-19) (7.180007e-02 1.084344e-02 3.265007e-23) (0.000000e+00 0.000000e+00 0.000000e+00)) ((-3.989251e+00 -3.138915e-01 2.173047e+00) (-5.692808e-03 3.769504e-02 5.850559e-04) (0.000000e+00 0.000000e+00 0.000000e+00))
1000         	((-6.037638e-01 7.643719e+00 -4.021457e-19) (7.183525e-02 1.084855e-02 3.402334e-23) (0.000000e+00 0.000000e+00 0.000000e+00)) ((-4.012953e+00 -3.169760e-01 2.189878e+00) (-5.695486e-03 3.771351e-02 5.583819e-04) (0.000000e+00 0.000000e+00 0.000000e+00))
1100         	((-6.087716e-01 7.678576e+00 -4.040463e-19) (7.186298e-02 1.086385e-02 3.529051e-23) (0.000000e+00 0.000000e+00 0.000000e+00)) ((-4.031252e+00 -3.196051e-01 2.202672e+00) (-5.703522e-03 3.772806e-02 5.426857e-04) (0.000000e+00 0.000000e+00 0.000000e+00))
1200         	((-6.125091e-01 7.702884e+00 -4.056128e-19) (7.187008e-02 1.087977e-02 3.627987e-23) (0.000000e+00 0.000000e+00 0.000000e+00)) ((-4.044014e+00 -3.215673e-01 2.211447e+00) (-5.711880e-03 3.773179e-02 5.330389e-04) (0.000000e+00 0.000000e+00 0.000000e+00))
1300         	((-6.151016e-01 7.718669e+00 -4.067664e-19) (7.185972e-02 1.089254e-02 3.698740e-23) (0.000000e+00 0.000000e+00 0.000000e+00)) ((-4.052301e+00 -3.229283e-01 2.216976e+00) (-5.718586e-03 3.772635e-02 5.266411e-04) (0.000000e+00 0.000000e+00 0.000000e+00))
1400         	((-6.168129e-01 7.728228e+00 -4.075532e-19) (7.184089e-02 1.090137e-02 3.746502e-23) (0.000000e+00 0.000000e+00 0.000000e+00)) ((-4.057320e+00 -3.238268e-01 2.220127e+00) (-5.723219e-03 3.771647e-02 5.219472e-04) (0.000000e+00 0.000000e+00 0.000000e+00))
1500         	((-6.178991e-01 7.733706e+00 -4.080556e-19) (7.182031e-02 1.090672e-02 3.777424e-23) (0.000000e+00 0.000000e+00 0.000000e+00)) ((-4.060196e+00 -3.243970e-01 2.221758e+00) (-5.726027e-03 3.770566e-02 5.182602e-04) (0.000000e+00 0.000000e+00 0.000000e+00))
1600         	((-6.185698e-01 7.736798e+00 -4.083592e-19) (7.180356e-02 1.090946e-02 3.792620e-23) (0.000000e+00 0.000000e+00 0.000000e+00)) ((-4.061819e+00 -3.247492e-01 2.222574e+00) (-5.727468e-03 3.769687e-02 5.152147e-04) (0.000000e+00 0.000000e+00 0.000000e+00))
1700         	((-6.189899e-01 7.738665e+00 -4.085350e-19) (7.178852e-02 1.091066e-02 3.798628e-23) (0.000000e+00 0.000000e+00 0.000000e+00)) ((-4.062799e+00 -3.249697e-01 2.223044e+00) (-5.728098e-03 3.768897e-02 5.130196e-04) (0.000000e+00 0.000000e+00 0.000000e+00))
1800         	((-6.192369e-01 7.739744e+00 -4.086258e-19) (7.177691e-02 1.091106e-02 3.802205e-23) (0.000000e+00 0.000000e+00 0.000000e+00)) ((-4.063366e+00 -3.250994e-01 2.223289e+00) (-5.728306e-03 3.768288e-02 5.114240e-04) (0.000000e+00 0.000000e+00 0.000000e+00))
1900         	((-6.193986e-01 7.740411e+00 -4.086973e-19) (7.176989e-02 1.091130e-02 3.804847e-23) (0.000000e+00 0.000000e+00 0.000000e+00)) ((-4.063716e+00 -3.251843e-01 2.223409e+00) (-5.728432e-03 3.767919e-02 5.104519e-04) (0.000000e+00 0.000000e+00 0.000000e+00))
2000         	((-6.195126e-01 7.740935e+00 -4.087478e-19) (7.176537e-02 1.091155e-02 3.806677e-23) (0.000000e+00 0.000000e+00 0.000000e+00)) ((-4.063991e+00 -3.252441e-01 2.223539e+00) (-5.728565e-03 3.767682e-02 5.098864e-04) (0.000000e+00 0.000000e+00 0.000000e+00))
2100         	((-6.195954e-01 7.741322e+00 -4.087820e-19) (7.176193e-02 1.091175e-02 3.807992e-23) (0.000000e+00 0.000000e+00 0.000000e+00)) ((-4.064194e+00 -3.252876e-01 2.223638e+00) (-5.728669e-03 3.767501e-02 5.094796e-04) (0.000000e+00 0.000000e+00 0.000000e+00))
2200         	((-6.196548e-01 7.741632e+00 -4.088058e-19) (7.175951e-02 1.091196e-02 3.808907e-23) (0.000000e+00 0.000000e+00 0.000000e+00)) ((-4.064357e+00 -3.253187e-01 2.223721e+00) (-5.728778e-03 3.767374e-02 5.091369e-04) (0.000000e+00 0.000000e+00 0.000000e+00))
2300         	((-6.196998e-01 7.741855e+00 -4.088246e-19) (7.175778e-02 1.091208e-02 3.809609e-23) (0.000000e+00 0.000000e+00 0.000000e+00)) ((-4.064474e+00 -3.253424e-01 2.223782e+00) (-5.728843e-03 3.767283e-02 5.089302e-04) (0.000000e+00 0.000000e+00 0.000000e+00))
2400         	((-6.197327e-01 7.742031e+00 -4.088383e-19) (7.175651e-02 1.091220e-02 3.810098e-23) (0.000000e+00 0.000000e+00 0.000000e+00)) ((-4.064566e+00 -3.253597e-01 2.223830e+00) (-5.728906e-03 3.767217e-02 5.087190e-04) (0.000000e+00 0.000000e+00 0.000000e+00))
2500         	((-6.197603e-01 7.742155e+00 -4.088500e-19) (7.175544e-02 1.091226e-02 3.810508e-23) (0.000000e+00 0.000000e+00 0.000000e+00)) ((-4.064631e+00 -3.253742e-01 2.223861e+00) (-5.728935e-03 3.767161e-02 5.086088e-04) (0.000000e+00 0.000000e+00 0.000000e+00))
2600         	((-6.197765e-01 7.742243e+00 -4.088575e-19) (7.175484e-02 1.091231e-02 3.810763e-23) (0.000000e+00 0.000000e+00 0.000000e+00)) ((-4.064678e+00 -3.253827e-01 2.223883e+00) (-5.728963e-03 3.767129e-02 5.084784e-04) (0.000000e+00 0.000000e+00 0.000000e+00))
2700         	((-6.197932e-01 7.742306e+00 -4.088641e-19) (7.175426e-02 1.091233e-02 3.811041e-23) (0.000000e+00 0.000000e+00 0.000000e+00)) ((-4.064711e+00 -3.253914e-01 2.223897e+00) (-5.728975e-03 3.767098e-02 5.084233e-04) (0.000000e+00 0.000000e+00 0.000000e+00))
2800         	((-6.198036e-01 7.742347e+00 -4.088687e-19) (7.175365e-02 1.091235e-02 3.811211e-23) (0.000000e+00 0.000000e+00 0.000000e+00)) ((-4.064732e+00 -3.253969e-01 2.223907e+00) (-5.728983e-03 3.767067e-02 5.083614e-04) (0.000000e+00 0.000000e+00 0.000000e+00))
2900         	((-6.198119e-01 7.742384e+00 -4.088722e-19) (7.175331e-02 1.091236e-02 3.811343e-23) (0.000000e+00 0.000000e+00 0.000000e+00)) ((-4.064751e+00 -3.254012e-01 2.223917e+00) (-5.728991e-03 3.767049e-02 5.083383e-04) (0.000000e+00 0.000000e+00 0.000000e+00))
3000         	((-6.198175e-01 7.742411e+00 -4.088747e-19) (7.175290e-02 1.091238e-02 3.811448e-23) (0.000000e+00 0.000000e+00 0.000000e+00)) ((-4.064766e+00 -3.254042e-01 2.223923e+00) (-5.728998e-03 3.767027e-02 5.082913e-04) (0.000000e+00 0.000000e+00 0.000000e+00))
3100         	((-6.198228e-01 7.742437e+00 -4.088767e-19) (7.175271e-02 1.091239e-02 3.811528e-23) (0.000000e+00 0.000000e+00 0.000000e+00)) ((-4.064779e+00 -3.254069e-01 2.223931e+00) (-5.729003e-03 3.767017e-02 5.082791e-04) (0.000000e+00 0.000000e+00 0.000000e+00))
3200         	((-6.198260e-01 7.742447e+00 -4.088783e-19) (7.175255e-02 1.091239e-02 3.811582e-23) (0.000000e+00 0.000000e+00 0.000000e+00)) ((-4.064785e+00 -3.254086e-01 2.223931e+00) (-5.729007e-03 3.767009e-02 5.082701e-04) (0.000000e+00 0.000000e+00 0.000000e+00))
3300         	((-6.198288e-01 7.742456e+00 -4.088793e-19) (7.175243e-02 1.091240e-02 3.811620e-23) (0.000000e+00 0.000000e+00 0.000000e+00)) ((-4.064790e+00 -3.254101e-01 2.223934e+00) (-5.729009e-03 3.767003e-02 5.082635e-04) (0.000000e+00 0.000000e+00 0.000000e+00))
3400         	((-6.198302e-01 7.742463e+00 -4.088801e-19) (7.175234e-02 1.091240e-02 3.811649e-23) (0.000000e+00 0.000000e+00 0.000000e+00)) ((-4.064793e+00 -3.254109e-01 2.223936e+00) (-5.729011e-03 3.766998e-02 5.082584e-04) (0.000000e+00 0.000000e+00 0.000000e+00))
3500         	((-6.198319e-01 7.742464e+00 -4.088804e-19) (7.175214e-02 1.091241e-02 3.811682e-23) (0.000000e+00 0.000000e+00 0.000000e+00)) ((-4.064794e+00 -3.254118e-01 2.223935e+00) (-5.729014e-03 3.766988e-02 5.082234e-04) (0.000000e+00 0.000000e+00 0.000000e+00))
3600         	((-6.198326e-01 7.742473e+00 -4.088811e-19) (7.175212e-02 1.091241e-02 3.811703e-23) (0.000000e+00 0.000000e+00 0.000000e+00)) ((-4.064798e+00 -3.254121e-01 2.223938e+00) (-5.729015e-03 3.766986e-02 5.082198e-04) (0.000000e+00 0.000000e+00 0.000000e+00))
