# Forces     
# CofR       : (0.000000e+00 0.000000e+00 0.000000e+00)
# Time       forces(pressure viscous porous)	moments(pressure viscous porous)
100          	((5.779827e-04 6.365613e-02 3.304120e-22) (6.123666e-04 -2.589414e-05 -1.066745e-24) (0.000000e+00 0.000000e+00 0.000000e+00)) ((-3.341947e-02 3.034409e-04 2.777216e-02) (1.359442e-05 3.214924e-04 -4.509958e-05) (0.000000e+00 0.000000e+00 0.000000e+00))
200          	((5.283436e-04 6.366695e-02 3.265093e-22) (5.009822e-04 -1.970068e-05 -1.034737e-24) (0.000000e+00 0.000000e+00 0.000000e+00)) ((-3.342515e-02 2.773804e-04 2.760275e-02) (1.034286e-05 2.630157e-04 -4.054795e-05) (0.000000e+00 0.000000e+00 0.000000e+00))
300          	((5.060825e-04 6.363341e-02 3.250807e-22) (4.792532e-04 -1.680125e-05 -1.011275e-24) (0.000000e+00 0.000000e+00 0.000000e+00)) ((-3.340754e-02 2.656933e-04 2.753333e-02) (8.820657e-06 2.516079e-04 -3.903606e-05) (0.000000e+00 0.000000e+00 0.000000e+00))
400          	((5.037217e-04 6.397062e-02 3.301998e-22) (4.731857e-04 -1.495506e-05 -9.957943e-25) (0.000000e+00 0.000000e+00 0.000000e+00)) ((-3.358457e-02 2.644539e-04 2.769779e-02) (7.851407e-06 2.484225e-04 -3.841795e-05) (0.000000e+00 0.000000e+00 0.000000e+00))
500          	((5.045658e-04 6.433247e-02 3.179073e-22) (4.699449e-04 -1.331382e-05 -9.945191e-25) (0.000000e+00 0.000000e+00 0.000000e+00)) ((-3.377455e-02 2.648970e-04 2.783462e-02) (6.989757e-06 2.467211e-04 -3.803484e-05) (0.000000e+00 0.000000e+00 0.000000e+00))
600          	((4.998796e-04 6.474415e-02 3.095959e-22) (4.673535e-04 -1.191319e-05 -9.757518e-25) (0.000000e+00 0.000000e+00 0.000000e+00)) ((-3.399068e-02 2.624368e-04 2.802957e-02) (6.254426e-06 2.453606e-04 -3.767424e-05) (0.000000e+00 0.000000e+00 0.000000e+00))
