# Force coefficients
# liftDir    : (0.000000e+00 1.000000e+00 0.000000e+00)
# dragDir    : (1.000000e+00 0.000000e+00 0.000000e+00)
# pitchAxis  : (0.000000e+00 1.000000e+00 0.000000e+00)
# magUInf    : 4.500000e+01
# lRef       : 1.000000e+00
# Aref       : 7.500000e-02
# CofR       : (0.000000e+00 0.000000e+00 0.000000e+00)
# Time       	Cm           	Cd           	Cl           	Cl(f)        	Cl(r)        
100          	6.447104e-03	1.228020e-02	7.759100e-02	4.524261e-02	3.234840e-02
200          	5.367945e-03	1.022466e-02	8.533759e-02	4.803674e-02	3.730085e-02
300          	4.787374e-03	9.118807e-03	8.862381e-02	4.909928e-02	3.952453e-02
400          	4.662148e-03	8.880283e-03	9.477160e-02	5.204795e-02	4.272365e-02
500          	4.639093e-03	8.836367e-03	9.955903e-02	5.441861e-02	4.514042e-02
600          	4.644049e-03	8.845808e-03	1.036148e-01	5.645143e-02	4.716333e-02
