/*--------------------------------*- C++ -*----------------------------------*\
| =========                 |                                                 |
| \\      /  F ield         | OpenFOAM: The Open Source CFD Toolbox           |
|  \\    /   O peration     | Version:  5.x                                   |
|   \\  /    A nd           | Web:      www.OpenFOAM.org                      |
|    \\/     M anipulation  |                                                 |
\*---------------------------------------------------------------------------*/
FoamFile
{
    version     2.0;
    format      ascii;
    class       volScalarField;
    location    "600";
    object      p;
}
// * * * * * * * * * * * * * * * * * * * * * * * * * * * * * * * * * * * * * //

dimensions      [0 2 -2 0 0 0 0];

internalField   nonuniform List<scalar> 
6584
(
32.305
31.1268
30.0829
29.4306
29.1145
29.2424
29.7881
30.7725
31.8569
32.8053
32.6395
30.3197
25.0805
17.1252
7.57521
-2.22025
-11.2087
-19.0992
-25.7449
-31.2886
-35.8743
-39.7427
-42.8938
-45.7694
32.0784
30.961
29.8696
29.2031
28.8503
28.9774
29.5556
30.7017
32.0412
33.4205
33.7047
31.6958
26.3592
17.9123
7.79112
-2.6098
-11.8664
-19.8499
-26.4464
-31.8968
-36.3663
-40.1641
-43.2084
-46.1499
31.5889
30.4788
29.2954
28.5575
28.1076
28.2076
28.8707
30.4722
32.4042
34.6156
37.2505
37.2169
32.6539
23.2923
11.3186
-3.97562
-13.8798
-22.0257
-28.4393
-33.5769
-37.7212
-41.2706
-44.0829
-46.9635
30.9485
29.774
28.4514
27.5626
26.9253
26.8798
27.5758
29.622
33.0717
36.9638
42.7306
45.9822
41.9198
29.127
12.8493
-2.01141
-17.3137
-25.6154
-31.5774
-36.12
-39.7283
-42.847
-45.3251
-47.9988
30.2118
28.9035
27.3878
26.2365
25.2715
24.8299
25.257
27.3306
30.9525
38.596
49.2415
59.501
57.127
36.8268
12.1644
-6.85785
-19.5203
-31.146
-36.104
-39.4929
-42.2912
-44.7652
-46.8088
-49.139
29.4279
27.9194
26.1569
24.6099
23.1275
21.8165
21.4371
22.4015
26.9708
35.6253
52.2667
82.0791
92.544
53.7954
6.06701
-17.6547
-29.5178
-38.4468
-41.7627
-43.5314
-45.259
-46.8862
-48.4085
-50.2708
28.6662
26.9071
24.8677
22.8254
20.6906
18.2083
16.4603
16.1344
16.7784
22.5728
44.1982
101.631
183.448
57.4428
-9.75212
-38.4812
-44.0441
-47.7996
-48.298
-47.9562
-48.3705
-48.9955
-49.9478
-51.2503
28.0034
25.9762
23.6726
21.1128
18.2739
14.5008
10.7625
8.24846
2.37034
-3.43708
-0.532545
30.4199
-27.827
-67.7101
-70.7845
-63.0196
-58.0592
-54.9333
-52.2344
-51.2313
-50.8145
-51.2153
-51.9237
27.5076
25.2394
22.7383
19.7533
16.3257
11.4978
5.85134
0.60419
-12.1478
-33.4125
-65.072
-145.61
-254.681
-148.453
-105.675
-81.7157
-66.9597
-60.3
-55.5745
-53.3414
-52.0322
-51.9938
-52.1532
27.2229
24.7865
22.2061
19.0071
15.3091
10.088
3.48227
-3.56388
-19.4358
-47.7095
-95.1652
-204.284
-362.5
-197.493
-125.764
-92.8846
-71.7729
-62.9321
-57.1723
-54.2271
-52.3744
-52.1009
-51.84
27.1571
24.6555
22.1355
18.9912
15.4372
10.6449
4.45518
-2.58655
-16.1087
-38.84
-76.4258
-150.721
-320.892
-188.835
-121.873
-92.0855
-70.8627
-62.0281
-56.5787
-53.6253
-51.6938
-51.4403
-50.9487
27.277
24.8168
22.4755
19.6194
16.5553
12.803
8.12802
2.70722
-4.86044
-14.7964
-28.6926
-43.9237
-194.62
-136.903
-98.3977
-80.4804
-64.6674
-57.868
-53.8873
-51.5947
-50.0257
-50.0335
-49.5201
27.5181
25.1827
23.0844
20.6432
18.229
15.703
12.9123
9.81512
8.30294
10.2875
17.3165
46.237
-59.0247
-73.4546
-67.5774
-63.3034
-55.2952
-51.631
-49.6773
-48.4767
-47.5852
-48.0104
-47.6596
27.8039
25.6393
23.7858
21.7675
19.9697
18.4957
17.2996
18.02
18.1192
26.9582
41.0153
83.0629
177.726
23.2332
-25.5922
-40.8057
-46.2394
-45.2397
-44.7228
-44.735
-44.7568
-44.6541
-45.568
-45.5074
28.0644
26.0789
24.4248
22.749
21.3985
20.5704
20.2734
21.5439
23.5276
31.68
44.0495
64.8833
70.201
31.9252
-5.50897
-23.3337
-32.1012
-36.1233
-38.2104
-39.7555
-40.8844
-41.5213
-42.9125
-43.2091
28.2485
26.4235
24.9024
23.4578
22.3587
21.8245
21.8111
23.2773
25.1585
30.4815
38.2496
43.7974
39.5642
20.8771
1.68946
-13.7829
-24.5068
-29.2612
-32.735
-35.2212
-37.1932
-38.4462
-40.2332
-40.9019
28.3274
26.6307
25.1769
23.8611
22.8473
22.3718
22.2386
23.4674
24.8384
26.9426
29.9045
30.1936
27.4734
16.3046
2.60926
-8.92228
-18.6076
-24.1035
-28.2636
-31.3102
-33.8558
-35.5639
-37.6568
-38.6687
28.2916
26.6873
25.2465
23.979
22.9301
22.3491
21.9084
22.3845
23.0732
23.7144
23.8336
23.5216
17.5891
11.3691
-0.333411
-7.92539
-14.6407
-20.4098
-24.7242
-28.0642
-30.9436
-32.9666
-35.2633
-36.573
28.1453
26.6007
25.1345
23.8612
22.7089
21.9471
21.1614
20.9976
20.5421
20.7137
17.3405
17.9648
13.0862
4.5798
0.0171295
-7.23434
-12.7802
-17.9579
-22.0571
-25.4566
-28.4736
-30.6941
-33.1051
-34.6585
27.9018
26.3902
24.8765
23.5683
22.2866
21.3411
20.2287
19.663
18.4006
18.1755
15.1458
14.3703
10.2664
3.73028
-0.458978
-6.81711
-11.4769
-16.1955
-20.0265
-23.3722
-26.4038
-28.7375
-31.1959
-32.941
27.578
26.08
24.5089
23.1539
21.7385
20.634
19.2382
18.3917
16.6464
15.949
12.9242
11.2716
7.68179
2.62015
-1.11265
-6.55344
-10.5461
-14.892
-18.4505
-21.6983
-24.6756
-27.068
-29.5274
-31.419
27.1916
25.6942
24.0635
22.6601
21.1186
19.8837
18.2575
17.1923
15.1458
14.0933
11.085
9.16131
5.89344
1.60599
-1.69446
-6.42711
-9.93096
-13.932
-17.2236
-20.3526
-23.236
-25.6516
-28.0813
-30.0818
26.7596
25.2547
23.5676
22.1197
20.4664
19.1285
17.3258
16.0963
13.8718
12.5886
9.66722
7.61882
4.59544
0.830766
-2.17349
-6.37359
-9.51512
-13.2117
-16.2619
-19.2669
-22.0369
-24.4528
-26.8343
-28.9133
26.2971
24.7805
23.0429
21.5568
19.8095
18.3927
16.4608
15.111
12.7901
11.3477
8.52459
6.41223
3.58229
0.20865
-2.57548
-6.35622
-9.22283
-12.6579
-15.4987
-18.3842
-21.0357
-23.4381
-25.7616
-27.8948
25.8167
24.2869
22.5059
20.9889
19.1652
17.6895
15.6666
14.2288
11.8635
10.3103
7.5875
5.45673
2.77757
-0.301
-2.91303
-6.35814
-9.01266
-12.2237
-14.8854
-17.6601
-20.1957
-22.5763
-24.838
-27.0069
25.3289
23.786
21.9691
20.4279
18.5444
17.0257
14.9419
13.4401
11.0641
9.4359
6.80681
4.68497
2.12959
-0.716973
-3.19461
-6.36965
-8.85852
-11.8778
-14.3875
-17.0604
-19.4868
-21.8405
-24.0407
-26.2307
24.8421
23.2871
21.4414
19.8818
17.953
16.4035
14.282
12.7345
10.3696
8.69329
6.14945
4.05324
1.60814
-1.0608
-3.43133
-6.38721
-8.74399
-11.598
-13.9783
-16.5588
-18.8848
-21.2091
-23.3501
-25.5491
24.3627
22.7969
20.9287
19.3553
17.3936
15.8226
13.6809
12.1017
9.76018
8.05579
5.59208
3.53059
1.1763
-1.35506
-3.62922
-6.40343
-8.6521
-11.3639
-13.6342
-16.1319
-18.3672
-20.6605
-22.7465
-24.945
23.8959
22.3203
20.4349
18.8512
16.8669
15.2808
13.1324
11.532
9.22041
7.50127
5.1117
3.08683
0.811338
-1.60319
-3.79508
-6.41797
-8.57624
-11.1646
-13.3402
-15.7625
-17.9164
-20.1776
-22.2127
-24.4037
23.4454
21.8606
19.9625
18.3704
16.3718
14.7751
12.6293
11.015
8.73858
7.0136
4.69226
2.70441
0.498518
-1.81493
-3.93565
-6.43012
-8.51127
-10.9912
-13.0846
-15.4373
-17.5179
-19.7455
-21.7339
-23.9112
23.0139
21.4195
19.5123
17.9124
15.9061
14.3018
12.1646
10.5412
8.30343
6.57874
4.3208
2.36969
0.226477
-1.99836
-4.05601
-6.43915
-8.45325
-10.8362
-12.8575
-15.1451
-17.1598
-19.3519
-21.2976
-23.4552
22.6041
20.9982
19.0852
17.4761
15.4681
13.856
11.734
10.1041
7.90687
6.18558
3.98723
2.07162
-0.0142999
-2.15991
-4.16059
-6.44488
-8.39976
-10.6945
-12.6521
-14.8771
-16.8326
-18.9865
-20.8932
-23.025
22.2165
20.5946
18.6793
17.057
15.0529
13.4297
11.3312
9.69371
7.54048
5.82289
3.68266
1.80028
-0.231527
-2.30445
-4.25309
-6.44682
-8.3494
-10.5605
-12.4623
-14.6244
-16.5272
-18.6382
-20.5094
-22.6077
21.8588
20.2144
18.3011
16.6591
14.6656
13.0264
10.9593
9.30972
7.20505
5.48725
3.40323
1.54832
-0.430197
-2.43463
-4.33609
-6.44481
-8.30279
-10.4329
-12.2877
-14.3853
-16.2433
-18.3058
-20.1465
-22.2027
21.5078
19.8223
17.9211
16.2405
14.2763
12.6015
10.5878
8.90823
6.87321
5.14357
3.13179
1.30086
-0.62232
-2.55916
-4.41887
-6.43515
-8.25858
-10.295
-12.1144
-14.1319
-15.9553
-17.9514
-19.7686
-21.7622
21.2683
19.5434
17.6595
15.9405
14.0101
12.2974
10.3365
8.62237
6.64811
4.89247
2.91534
1.06734
-0.786466
-2.65078
-4.4795
-6.42336
-8.22963
-10.1909
-11.9935
-13.9451
-15.7519
-17.6914
-19.4982
-21.436
-130.088
-249.814
-18.2277
-203.186
-388.08
-276.451
-162.292
-359.075
-394.338
-57.2988
-221.974
-344.745
37.2931
-70.5931
-202.927
83.3389
199.771
193.696
31.5589
-53.4284
52.0466
184.167
12.0899
79.6002
-50.6654
-113.871
23.6797
-190.734
84.8785
-231.124
-144.184
-67.2401
-92.4132
-183.21
-128.056
-180.915
-262.621
-218.269
-482.083
-391.908
-356.97
-217.164
-167.477
-85.1086
-149.411
-184.19
-196.575
-275.246
-289.579
-531.983
-540.17
-332.849
-220.941
-224.895
-41.5733
-55.2897
-139.006
-112.264
-135.933
-202.584
-355.027
-453.154
-212.064
-165.44
-211.147
-151.021
-243.94
-74.5948
-89.0565
-146.692
47.9327
-34.521
72.012
72.6472
181.007
68.7672
47.3543
35.3198
-209.675
-115.859
-70.1992
-128.168
-225.889
95.8837
-109.14
-384.323
-215.184
-157.902
-205.683
-374.543
-288.296
-267.012
-188.896
-276.871
-298.915
-234.384
-276.018
-534.367
-486.73
-354.689
-471.414
-528.902
-380.917
-467.207
-338.939
-211.706
-269.011
-190.089
-279.021
-217.374
-298.28
-283.425
-457.758
-527.598
-390.644
-525.033
-446.219
-532.406
-528.787
-396.135
-129.96
-59.4511
-211.647
-140.326
-250.731
-348.372
-277.335
-344.512
-249.6
-440.933
-351.259
-295.301
20.0461
66.985
-49.9188
12.3084
-47.316
-138.098
-236.96
-149.666
-144.689
115.398
129.366
72.0882
112.522
97.0955
55.446
-46.2694
-95.9426
84.6729
-77.7922
227.028
7.34885
31.6061
-43.0942
-5.64915
9.39055
-50.2313
31.1576
-26.7426
20.0029
-27.4572
-71.0588
192.682
-64.1367
67.2353
-177.961
-122.947
-59.2107
-126.142
-98.5829
-99.1559
-57.4793
60.7677
83.6315
-51.7468
-12.8783
-34.5924
-88.4967
-125.764
-137.129
-50.4504
86.581
114.787
-38.6021
38.8204
-7.14535
307.732
198.387
124.862
117.68
194.927
309.337
-115.499
-79.4735
-125.43
203.554
-87.0066
-39.2182
-447.511
-438.677
-547.16
-545.94
-399.329
-407.17
-188.726
-156.093
-197.084
91.9433
39.2012
-28.2328
27.5961
3.62176
-199.807
-180.06
-246.355
-204.936
-249.834
-193.3
-193.177
-74.6693
-30.1951
-92.3866
-188.587
-316.424
-307.093
-290.559
-290.576
-254.968
-256.7
-512.952
-512.293
-507.311
-433.176
-410.17
-453.879
-439.161
-509.479
-429.295
-360.759
-321.226
-401.763
-372.034
-435.502
-254.11
-248.822
-299.55
-297.133
-496.881
-499.651
-497.041
-431.569
-449.503
-400.67
-424.323
-493.166
-540.813
-462.309
-457.155
-454.213
-461.791
-541.302
-104.247
-99.5596
-104.502
-146.353
-57.671
-99.0146
-89.5126
-181.758
-151.111
-171.441
-296.744
-303.952
-400.195
-363.361
-392.043
-322.075
-353.162
-393.791
31.8437
58.2341
-21.7956
-13.7938
-52.0122
25.0719
-8.68733
-12.9002
-7.49515
27.4146
-86.0406
-88.874
-35.7218
-150.231
-95.574
-99.402
-94.2122
150.241
167.596
220.984
118.314
144.188
239.907
136.457
96.7619
431.998
38.1092
69.1976
39.7614
68.1058
99.6523
70.0537
115.878
87.8735
99.4506
288.624
63.2064
16.8078
6.0169
79.0995
88.1027
254.748
169.865
165.34
92.8672
104.647
144.923
144.259
220.618
468.259
325.25
223.088
266.249
346.512
477.646
-247.379
-205.736
-223.716
-471.566
-419.081
-413.967
-287.448
-241.09
-233.795
-244.404
-244.886
-289.39
-541.091
-542.158
-374.106
-434.409
119.05
104.76
15.6324
35.2077
79.2788
127.417
104.422
119.505
0.518075
-51.2375
179.466
-356.731
-387.27
-414.723
-284.751
-235.733
-169.597
-306.299
-253.654
-306.678
-281.516
-238.862
-245.87
-225.966
-238.423
-278.518
-284.038
-306.914
-298.112
-325.335
-324.019
-295.231
-295.377
-289.049
-267.705
-527.964
-497.816
-487.43
-456.695
-448.09
-492.165
-483.367
-522.099
-227.673
-213.563
-246.288
-269.77
-289.633
-308.035
-300.874
-330.428
-326.724
-312.128
-323.357
-290.205
-476.442
-517.268
-514.474
-477.453
-485.655
-433.807
-438.938
-465.095
-536.81
-499
-492.344
-490.373
-495.395
-536.687
-270.137
-280.664
-258.855
-357.431
-343.87
-329.632
-301.028
-278.507
-311.283
-234.486
-267.193
-287.873
41.6115
55.6756
29.2981
79.3565
60.3262
48.1675
164.201
172.881
91.2177
108.035
86.0408
151.811
161.998
139.983
124.896
34.6533
322.056
84.5107
41.645
5.24224
9.55704
43.4861
-0.280265
-3.19911
67.2387
60.1877
272.151
7.87774
28.7716
-82.4221
-74.0364
71.4099
76.6776
70.504
76.1572
69.0379
88.0134
78.7628
73.2794
-34.2705
-28.271
-57.2806
-64.9348
98.1351
103.025
91.3119
109.499
126.108
-185.643
-159.968
-81.6264
-240.02
-182.169
-208.886
-467.782
-420.211
-543.232
-546.402
-379.841
-428.276
-182.33
-178.503
-198.58
-151.854
-171.922
-173.878
-233.793
-255.12
-205.144
-225.693
70.2217
91.3274
110.458
50.6098
82.5549
63.9095
89.3639
54.0754
-224.902
-196.507
-218.687
-158.399
-187.961
-216.576
-244.969
-256.425
-224.797
-240.83
-145.346
-109.855
-148.318
-160.028
-174.992
-359.376
-379.442
-349.162
-360.401
-311.411
-258.153
-352.219
-325.603
-269.455
-306.991
-348.99
-316.764
-310.522
-284.583
-314.03
-320.603
-308.768
-309.913
-330.128
-328.605
-319.988
-326.865
-295.432
-322.108
-317.302
-279.002
-289.843
-260.251
-274.366
-299.988
-305.947
-292.321
-299.297
-266.519
-287.558
-280.621
-527.424
-497.94
-470.898
-458.455
-492.591
-519.979
-482.615
-472.127
-270.221
-284.488
-264.823
-294.355
-279.765
-314.567
-299.487
-256.153
-235.821
-274.335
-260.882
-331.39
-330.177
-299.487
-334.692
-338.421
-330.818
-336.002
-328.998
-316.194
-335.431
-331.775
-293.727
-325.685
-329.99
-481.575
-509.638
-461.996
-471.97
-508.946
-473.789
-444.967
-456.333
-501.666
-498.229
-539.285
-538.691
-498.939
-499.63
-121.781
-121.09
-117.502
-101.164
-140.35
-123.294
-129.431
-74.8273
-73.1204
-59.5907
-95.694
-78.6949
-81.1891
-207.047
-190.197
-229.145
-212.699
-166.982
-162.417
-145.843
-184.817
-168.008
-174.862
-308.051
-288.635
-277.296
-290.151
-307.707
-261.359
-281.754
-313.671
-322.918
-336.434
-313.635
44.1829
50.2731
40.1513
66.547
54.3042
48.0266
68.7804
8.43595
34.6994
13.5901
-127.367
-124.11
-145.067
-95.2767
-117.357
-119.324
-119.034
-126.953
177.1
196.911
132.441
147.405
179.276
146.993
-2.36445
-43.7462
1.34569
5.25322
48.108
77.9772
631.181
471.887
399.869
470.049
526.962
648.724
65.8432
156.188
96.3478
-176.781
-201.411
-241.297
-477.863
-480.44
-485.452
-538.118
-540.189
-178.463
-156.349
-174.965
-454.994
-449.074
-447.563
-252.021
-230.785
-224.496
-177.785
-137.037
-169.826
-250.476
-236.419
-216.034
-246.203
-293.052
-257.917
-241.222
-266.468
-254.428
-530.304
-491.826
-496.503
-491.183
-512.747
-510.048
-525.893
-439.829
-431.107
-455.468
-237.956
-205.899
-187.019
-229.801
-246.654
-231.157
-463.068
-461.142
-457.409
-524.761
-521.829
-503.823
-507.124
-534.01
-517.272
-515.324
-510.734
-514.061
-532.805
-200.622
-209.45
-224.386
-423.626
-409.997
-422.209
-199.009
-189.651
-223.108
171.962
172.791
135.383
115.601
95.969
171.918
172.293
90.8195
119.871
80.617
-66.4828
-45.7636
-93.9512
-56.6433
-62.2572
-63.3362
-46.0027
-45.2611
-50.943
-11.3933
-16.6039
-18.1694
-87.393
-80.7946
-81.2583
123.336
107.717
101.574
180.911
296.372
238.962
-138.039
-155.845
-135.005
-103.526
-256.162
-236.953
-55.9936
22.4085
38.4501
-459.753
-462.112
-454.774
-431.462
-446.206
-452.76
-551.092
-546.507
-406.94
-399.699
-392.115
-415.178
-421.384
-414.916
-195.95
-201.295
-154.769
-161.314
-161.825
-206.572
-212.015
-217.66
-223.413
-203.511
-208.616
-238.043
-238.867
-245.093
-181.817
-192.118
-214.091
-268.15
-273.696
-249.878
-253.018
-250.025
-52.3097
-98.5998
-129.66
-115.589
-107.908
-118.904
-172.731
-288.919
-278.155
-278.285
-269.896
-243.444
-277.785
-278.657
-516.352
-511.677
-398.904
-386.125
-409.843
-451.823
-421.619
-410.801
-236.689
-251.458
-265.21
-491.227
-501.562
-523.55
-523.361
-540.81
-542.592
-523.821
-523.571
-109.444
-110.187
-108.94
-103.145
-145.436
-140.149
-141.894
-188.004
-204.099
-192.021
-201.168
-196.037
-231.995
-227.782
-156.08
-156.129
-150.711
-191.334
-186.729
-387.152
-398.465
-417.681
-376.013
-364.423
-375.739
-29.3302
-28.3382
-18.3857
-49.8993
-38.9107
-34.9185
-65.6416
-69.5867
-88.1641
-41.8082
-56.463
-58.1184
-143.309
-141.228
-147.937
-103.398
-95.3487
-146.115
198.83
201.238
213.257
144.212
132.465
143.085
128.872
157.614
147.067
138.184
222.005
185.833
116.87
134.448
117.738
209.031
394.224
118.09
81.7545
84.7439
201.456
210.328
238.509
96.0647
96.0281
91.2746
105.329
100.542
100.092
232.99
195.7
184.346
323.638
471.846
415.013
-476.222
-477.36
-474.575
-421.533
-423.425
-417.082
-435.722
-424.597
-541.413
-539.881
-381.047
-385.033
-365.167
-373.261
-440.819
-441.243
-434.718
111.959
117.6
124.955
106.083
111.782
106.214
-395.869
-394.131
-385.168
-410.511
-402.535
-405.612
-527.69
-494.571
-497.631
-498.024
-523.556
-507.808
-505.676
-470.445
-464.858
-469.987
-524.104
-496.335
-500.429
-519.177
-520.234
-518.56
-534.995
-535.46
-516.777
-518.598
-351.882
-352.523
-358.085
-340.905
-346.428
-347.475
174.48
177.006
163.718
167.465
155.782
162.184
158.159
147.566
139.3
134.718
142.003
146.444
130.062
134.425
129.975
18.4236
-3.65477
-14.5081
52.0634
265.602
224.163
297.866
106.197
138.945
188.378
19.828
18.2382
8.40052
37.6856
28.3271
30.2536
-17.5752
-15.6214
-25.3328
-1.04103
-9.54592
-9.10383
90.3686
106.387
48.0542
-52.4439
-84.3484
-8.80964
-16.3023
-88.9909
-69.0845
-67.9889
-75.1008
72.7438
74.4846
65.5392
68.3239
71.3787
-33.899
-39.6402
-40.2177
-15.2837
-9.9247
-21.5639
-22.8202
-20.6909
-28.0244
-54.5228
-48.7747
-50.3498
-47.2781
-56.0623
-32.8357
-40.0507
-73.2971
-72.9657
-64.583
114.658
115.862
110.454
127.972
121.685
120.187
-193.563
-164.334
-160.198
-228.962
-237.259
-217.169
-463.718
-461.923
-468.192
-473.887
-444.167
-441.887
-455.189
-448.23
-547.824
-548.413
-398.796
-404.93
-389.061
-393.561
-385.658
-393.526
-388.056
-429.695
-425.15
-422.032
-414.204
-180.613
-189.661
-167.627
-167.886
-174.536
-241.845
-243.234
-234.581
-255.892
-251.146
-249.063
-211.892
-213.037
-206.767
-226.818
-218.422
-218.292
-219.103
60.9169
56.0248
46.1241
77.368
65.4527
-214.83
-225.035
-232.62
-231.132
-220.172
-204.014
-214.019
-261.723
-263.978
-271.026
-266.96
-252.362
-250.224
-258.616
-147.062
-130.818
-141.885
-103.48
-183.274
-172.416
-163.41
-369.456
-352.063
-341.087
-374.929
-364.806
-378.887
-382.893
-370.643
-293.014
-295.391
-313.983
-279.254
-294.338
-276.645
-340.418
-326.617
-332.944
-337.122
-317.981
-321.204
-310.378
-313.754
-313.734
-312.333
-311.494
-329.058
-327.826
-321.202
-323.695
-284.602
-290.083
-284.062
-292.147
-291.368
-287.742
-264.095
-277.158
-274.552
-284.154
-280.451
-268.601
-280.734
-282.915
-301.381
-303.444
-302.329
-309.447
-306.125
-303.476
-294.993
-298.291
-294.883
-303.274
-303.364
-297.995
-520.869
-505.439
-290.116
-292.046
-294.512
-280.707
-287.366
-285.351
-309.967
-297.446
-301.43
-304.717
-250.063
-252.658
-259.456
-238.981
-245.306
-243.013
-269.507
-270.393
-274.857
-263.592
-266.625
-265.066
-335.314
-337.123
-333.782
-337.122
-323.564
-319.266
-332.598
-331.327
-485.699
-504.749
-540.913
-523.155
-521.841
-520.731
-522.605
-541.198
-114.854
-120.542
-114.864
-115.951
-136.51
-134.221
-127.264
-214
-207.044
-201.291
-206.712
-212.86
-223.549
-228.755
-233.498
-218.699
-223.599
-217.993
-224.383
-220.676
-167.963
-161.875
-161.313
-181.87
-174.079
-301.986
-297.438
-304.186
-283.676
-290.698
-295.875
-298.17
-303.207
-266.842
-267.288
-260.964
-274.419
-327.941
-326.233
-334.064
-310.811
-318.224
-320.658
46.7017
45.1615
48.9749
37.3094
41.4547
43.6545
64.4851
60.2873
62.8172
52.9517
56.9687
58.6976
63.6829
6.0516
11.2799
-4.66329
0.907293
29.4504
27.6087
32.3031
16.8334
24.0945
23.099
-126.109
-134.034
-135.581
-111.169
-135.51
181.392
187.458
138.112
145.027
135.141
153.598
148.42
142.497
153.053
159.763
168.826
155.12
52.2443
68.973
54.8306
75.6458
84.0215
60.7797
81.8717
61.1431
48.7938
50.3574
24.745
24.3612
30.3908
40.8384
43.6098
49.0687
85.0396
73.6069
104.253
166.074
94.7596
165.19
85.5259
66.5994
60.1471
9.62454
20.0058
-1.85629
-17.4581
-7.62477
11.1477
10.776
36.1986
14.5369
41.8596
84.6916
100.132
163.706
142.218
266.48
186.57
149.123
56.0286
22.7976
34.6112
-49.227
-49.4024
-30.7825
-19.2445
-41.6348
-1.37282
-17.29
-20.9677
0.729029
6.10938
9.71613
39.249
-116.693
-107.707
-53.7659
-129.6
-97.8168
-72.5891
-43.3966
-76.26
-53.1847
-77.1962
-96.4135
-81.7505
-159.343
-179.461
-164.82
-311.687
-245.394
-198.979
-190.862
-139.49
-121.317
-45.9747
-71.347
-78.5881
-94.8607
-115.743
-116.97
-203.754
-226.757
-227.288
-363.83
-291.647
-284.032
-196.578
-151.201
-149.809
-27.8217
-36.2285
-64.3502
-65.9788
-77.4347
-90.7956
-138.514
-150.483
-164.651
-278.505
-236.485
-263.734
-152.43
-129.745
-143.973
-1.59716
4.72698
-25.5835
-30.7295
-30.4057
-45.1079
-141.483
-132.212
-172.961
-88.7976
-89.8937
-110.873
19.7835
31.7707
13.2394
-16.6273
-39.3514
-62.3341
-34.9182
-50.4582
-69.137
30.3719
37.1963
33.8476
45.4835
64.5259
71.9613
80.2329
98.3704
115.82
128.761
130.5
138.45
33.4585
1.07497
-17.4253
-12.6849
-23.3172
-35.1881
31.6012
36.9534
37.9198
41.714
46.7184
59.6618
48.2209
48.5481
75.1221
45.8753
32.2855
43.1502
26.0425
10.4398
3.34428
-0.166062
-10.3203
-15.5932
33.7862
36.4165
41.3427
34.0209
36.9799
42.3002
32.5621
23.3063
28.998
18.9922
10.1324
11.3797
-147.787
-127.948
-112.207
-219.521
-244.454
-292.042
-2.50741
-40.7619
-51.8347
-225.847
-222.5
-200.046
-379.288
-420.113
-435.333
-305.843
-344.099
-299.926
-178.147
-190.611
-172.739
-371.749
-411.423
-388.492
-438.37
-444.581
-397.919
-59.7641
-74.4649
-70.9555
-240.137
-260.475
-230.768
-379.524
-352.731
-329.17
-88.5806
-86.0178
-66.7201
-211.799
-189.88
-183.282
117.28
107.001
72.2848
222.382
203.025
185.816
182.824
180.159
218.892
-47.9292
-29.3346
-36.7996
109.295
165.459
93.93
742.499
642.892
653.695
157.121
191.724
265.829
743.788
775.977
35.295
58.5989
32.6325
131.379
153.814
74.6746
-63.7467
-43.0578
-34.3381
-59.8401
-50.7677
-77.2258
6.02488
-22.0905
-39.4131
-157.391
-170.301
-228.186
107.88
62.0642
46.4235
-184.014
-126.139
-146.973
-118.708
-125.614
-157.862
-61.8368
-92.7892
-92.8085
-114.166
-107.261
-86.2797
-169.028
-131.051
-139.194
-99.8612
-117.915
-161.683
-202.252
-191.842
-170.916
-257.935
-244.293
-249.234
-203.875
-212.208
-225.265
-401.691
-410.944
-399.479
-282.399
-253.976
-326.239
-204.579
-233.329
-248.367
-187.368
-212.86
-188.037
-102.097
-110.605
-91.3157
-173.07
-133.782
-122.81
-142.327
-140.473
-178.691
-218.744
-223.902
-201.018
-280.4
-262.65
-258.241
-272.631
-272.972
-290.351
-274.101
-286.498
-359.099
-226.653
-258.125
-250.106
-257.525
-260.789
-228.239
-47.1547
-62.662
-54.1462
-92.4725
-72.9496
-53.7421
-108.382
-91.4524
-104.859
-120.602
-135.722
-125.564
-165.193
-147.431
-123.488
-194.771
-186.175
-194.18
-361.846
-370.026
-361.693
-187.133
-223.241
-262.637
-182.788
-201.674
-180.316
-237.39
-220.988
-198.344
-164.047
-171.003
-150.961
-247.069
-240.452
-237.739
-88.3572
-112.301
-124.448
-107.905
-112.017
-89.5862
-157.65
-134.345
-127.302
37.8137
46.7903
57.6224
-31.2214
-17.5906
-21.6393
77.9497
92.3717
77.5293
105.896
96.7746
79.652
156.941
136.446
133.212
69.4124
82.0366
103.07
48.3441
72.2679
59.3815
82.015
75.5908
45.7103
-200.119
-185.023
-194.964
-84.0346
-126.587
-164.785
-92.3544
-105.215
-79.3973
-148.161
-177.623
-150.113
64.7976
71.0429
109.858
-124.707
-100.304
-86.2774
-375.818
-385.326
-393.585
-224.816
-242.058
-232.315
-168.659
-206.038
-190.649
-234.819
-220.2
-193.412
-340.013
-324.94
-344.474
-286.49
-270.554
-271.943
-253.504
-257.541
-271.214
-195.449
-217.489
-210.713
-280.216
-286.538
-283.962
-308.435
-307.401
-296.924
-281.821
-279.291
-272.449
-392.19
-414.487
-368.143
-476.47
-469.676
-463.27
-403.174
-372.376
-357.22
-460.816
-454.398
-462.706
-320.704
-354.753
-384.281
-220.655
-211.542
-203.37
-252.934
-247.213
-261.916
-182.204
-201.798
-211.253
-276.956
-285.858
-289.719
-220.82
-225.843
-221.59
-300.203
-310.193
-309.127
-293.618
-296.704
-285.03
-434.373
-418.607
-382.403
-440.635
-443.023
-450.963
-398.555
-444.145
-438.72
-119.632
-121.445
-138.063
-60.1099
-70.0696
-69.1731
-207.069
-210.152
-215.509
-143.605
-160.2
-150.718
-256.873
-260.254
-253.754
-353.853
-347.225
-342.27
-302.91
-271.55
-258.941
-324.998
-317.415
-329.423
-244.547
-256.654
-262.321
-435.669
-430.868
-434.596
-341.388
-353.068
-370.008
-312.608
-342.832
-313.444
27.5571
30.8642
23.1236
71.1687
64.7913
60.7483
-40.3625
-39.8576
-50.0641
15.0789
6.67702
4.19034
-60.2456
-58.59
-44.8638
-144.229
-123.639
-125.09
-224.265
-220.253
-232.409
-144.87
-178.156
-187.166
-163.89
-168.476
-147.521
126.375
155.5
140.846
154.306
158.206
126.621
79.1723
83.8784
77.2847
84.3768
126.659
129.916
-50.8205
-20.4314
-20.3642
-24.0103
-20.2447
-69.6763
52.9222
16.7692
3.16814
260.628
203.219
181.463
2.57963
1.21448
16.8689
-34.584
-16.0839
-8.08102
-2.98889
-16.3569
-17.951
-14.9404
-14.0292
0.540014
-46.0585
-29.5786
-23.4089
22.6109
25.4929
34.676
-25.5678
-17.989
-18.8773
-4.85448
-20.112
-5.33093
149.32
163.109
214.638
-100.169
-69.6429
-36.3992
-39.8873
-48.9416
15.3996
-147.059
-73.7729
-77.4571
-87.186
-83.3154
-126.551
-87.2128
-81.2239
-60.7535
-114.618
-89.807
-96.8007
-84.8095
-89.8347
-105.238
64.3355
66.589
63.4909
85.2697
81.8321
79.7946
-42.5825
-41.3167
-33.4816
-126.757
-106.223
-107.018
-99.471
-100.209
-133.847
-60.8303
-89.5518
-87.041
90.6004
92.1125
88.5465
117.398
112.71
109.857
-2.54929
-20.4894
-41.6224
16.3307
-1.0189
8.48707
-21.3388
-12.0473
3.65273
267.753
317.747
422.31
190.35
279.065
245.545
209.696
279.434
181.999
144.271
178.955
147.229
247.945
291.246
189.073
427.536
332.605
271.373
-77.9622
-149.402
-119.374
82.0046
85.6588
139.104
-70.763
-36.5493
-48.7295
2.89461
11.7516
-34.6309
-197.152
-177.586
-177.231
-204.407
-206.653
-200.124
84.1103
90.4716
97.2988
43.2055
51.9882
47.464
-5.14176
-12.928
-27.3008
16.151
1.59588
2.78992
-8.96744
-3.96538
9.58761
-207.009
-185.434
-165.229
-205.243
-231.355
-213.229
-176.2
-159.778
-171.488
-58.1285
-80.3539
-94.659
-59.5835
-70.4973
-40.7805
-329.984
-341
-328.845
-293.872
-306.855
-319.025
-298.828
-297.07
-287.917
-293.039
-301.614
-300.043
-262.428
-259.353
-250.404
-261.018
-267.851
-264.962
-491.651
-488.726
-504.511
-426.076
-445.363
-453.078
-429.781
-436.649
-418.382
-449.547
-471.606
-476.559
-459.779
-466.035
-444.85
-512.474
-496.977
-494.072
-418.4
-410.199
-422.587
-348.38
-367.468
-379.837
-340.016
-354.327
-335.423
-392.474
-412.076
-421.278
-391.378
-402.181
-382.795
-441.6
-430.998
-422.938
-259.195
-263.502
-257.091
-245.574
-250.047
-254.414
-310.572
-310.839
-298.846
-297.174
-308.262
-309.37
-479.604
-483.239
-500.425
-438.054
-461.502
-453.872
-474.611
-468.546
-444.28
-408.742
-426.177
-415.328
-445.486
-436.25
-416.872
-487.756
-471.377
-475.665
-461.468
-486.49
-487.801
-480.743
-484.122
-459.919
-457.696
-483.777
-479.818
-487.814
-486.547
-460.438
-101.006
-115.808
-109.326
-63.5502
-63.2692
-57.6827
-97.5107
-91.8492
-93.457
-79.2199
-80.6764
-91.5467
-161.127
-165.885
-182.505
-300.581
-294.308
-290.685
-310.136
-313.595
-307.043
-395.034
-400.439
-406.168
-373.147
-386.035
-375.619
-405.914
-396.187
-382.932
-332.537
-342.711
-331.477
-364.806
-353.844
-343.017
-387.85
-382.167
-387.621
36.1422
38.193
33.8997
60.6399
57.5757
55.1138
-20.4702
-29.9826
-30.9747
-18.9349
-20.0178
-14.7019
-52.3853
-46.643
-46.3202
11.5565
9.95171
18.5997
-8.71121
0.796875
6.73514
-4.18369
-2.09529
-11.1921
-2.11165
-0.521693
-5.97138
29.1962
24.5576
22.954
-85.3486
-71.9825
-72.9814
-81.3045
-80.9888
-88.3128
-36.5739
-44.5914
-43.4663
-95.3596
-102.865
-103.088
-112.453
-111.855
-99.3929
155.895
169.395
160.194
188.091
172.931
161.364
123.347
126.241
121.751
126.049
140.646
165.599
103.193
109.396
104.348
63.4519
51.1557
56.8584
30.5523
41.8847
59.9325
90.5132
79.8991
87.8347
61.3065
70.8645
79.9795
108.405
116.789
126.762
93.0087
107.981
99.5124
125.733
111.667
97.3999
44.3865
39.3037
50.6392
14.2903
27.2068
38.0081
17.1329
21.7014
9.69834
230.075
257.504
322.335
174.116
194.76
190.081
176.999
188.397
172.437
149.494
163.032
156.85
169.774
173.241
151.779
305.266
221.862
218.816
428.683
470.432
583.943
325.194
387.855
375.284
339.373
418.649
306.757
298.386
342.023
307.064
398.625
463.034
351.165
597.067
509.086
449.794
-233.236
-239.12
-252.938
-213.588
-225.541
-219.401
-235.621
-230.473
-216.829
-406.498
-419.256
-429.263
-269.224
-266.463
-284.49
-240.638
-254.403
-256.606
-246.999
-250.746
-235.625
-246.55
-260.062
-259.406
-258.72
-259.399
-243.987
-290.272
-272.424
-271.344
-382.811
-377.381
-368.366
22.7705
35.2911
27.238
53.6831
43.7013
30.2571
67.9615
56.1336
66.4143
121.629
130.853
148.243
111.583
121.544
112.911
133.192
123.489
113.605
-6.28035
31.6794
32.6789
37.2769
34.5182
-12.395
128.587
83.0602
71.3171
-368.807
-377.289
-368.082
-266.983
-244.352
-260.937
-213.186
-227.968
-250.054
-180.755
-205.376
-193.413
-290.399
-307.792
-324.257
-270.543
-290.133
-273.363
-327.015
-307.253
-287.87
-266.585
-268.893
-284.218
-243.09
-255.591
-252.932
-258.862
-257.119
-242.625
-231.957
-243.905
-239.622
-250.565
-247.087
-233.309
-275.026
-260.922
-264.089
-291.033
-288.677
-280.915
-304.471
-296.743
-298.569
-292.649
-294.754
-300.935
-324.554
-313.218
-314.051
-311.859
-312.731
-324.474
-297.417
-306.764
-305.564
-292.948
-288.222
-290.508
-283.938
-286.108
-290.822
-271.429
-277.262
-274.833
-476.966
-472.974
-481.288
-450.158
-462.149
-466.927
-488.063
-502.435
-505.239
-497.459
-500.252
-487.609
-224.622
-236.783
-241.886
-224.358
-230.5
-217.641
-254.252
-240.838
-234.207
-277.001
-281.185
-272.161
-295.233
-287.616
-283.603
-295.908
-292.022
-302.177
-311.273
-310.699
-299.32
-330.207
-317.262
-317.662
-315.056
-316.281
-328.46
-315.867
-302.415
-299.282
-308.651
-305.682
-319.682
-289.059
-299.984
-302.458
-479.302
-495.283
-491.854
-501.77
-498.91
-484.344
-449.666
-444.082
-435.863
-457.787
-450.456
-455.855
-495.719
-510.952
-512.842
-507.309
-509.618
-496.065
-491.214
-507.677
-505.161
-511.873
-510.324
-495.347
-273.936
-267.098
-263.82
-272.703
-269.146
-276.334
-255.878
-262.266
-265.328
-335.983
-340.505
-334.157
-293.759
-306.027
-312.643
-289.545
-297.17
-285.595
-320.076
-308.62
-300.521
-244.327
-250.706
-239.515
-273.892
-262.179
-255.703
-275.083
-268.933
-281.268
45.3481
38.2403
34.6813
45.3651
42.1654
49.224
26.8309
34.7019
41.6295
72.7382
68.6173
75.1027