/*--------------------------------*- C++ -*----------------------------------*\
| =========                 |                                                 |
| \\      /  F ield         | OpenFOAM: The Open Source CFD Toolbox           |
|  \\    /   O peration     | Version:  5.x                                   |
|   \\  /    A nd           | Web:      www.OpenFOAM.org                      |
|    \\/     M anipulation  |                                                 |
\*---------------------------------------------------------------------------*/
FoamFile
{
    version     2.0;
    format      ascii;
    class       volScalarField;
    location    "600";
    object      p_rgh;
}
// * * * * * * * * * * * * * * * * * * * * * * * * * * * * * * * * * * * * * //

dimensions      [0 2 -2 0 0 0 0];

internalField   nonuniform List<scalar> 
6584
(
11.3114
11.9581
12.7396
13.9126
15.422
17.3757
19.7472
22.5573
25.4671
28.241
29.9007
29.4063
25.9927
19.8628
12.1384
4.1685
-2.99434
-9.05919
-13.8789
-17.5964
-20.3559
-22.3983
-23.7238
-24.7749
11.083
11.7878
12.5205
13.6791
15.1514
17.1052
19.5117
22.4851
25.6504
28.8551
30.9647
30.7813
27.2702
20.6488
12.3533
3.77842
-3.65132
-9.80768
-14.5764
-18.1993
-20.8421
-22.8138
-24.0338
-25.1543
10.5928
11.3021
11.9394
13.0249
14.3998
16.3265
18.8199
22.2525
26.0119
29.5932
34.0533
35.8452
33.1076
25.5715
15.4236
2.41567
-5.6575
-11.9743
-16.56
-19.8708
-22.1894
-23.9145
-24.9059
-25.9673
9.95211
10.5962
11.0925
12.0243
13.2101
14.9899
17.5161
21.395
26.6756
31.9404
39.5324
44.6093
42.3724
31.4059
16.9603
3.93174
-9.07708
-15.5517
-19.688
-22.4057
-24.1905
-25.4883
-26.1473
-27.0024
9.21527
9.72536
10.0281
10.6956
11.551
12.9329
15.1868
19.0875
24.0899
33.5687
46.0412
58.1269
57.5784
39.1135
16.2944
-0.893161
-11.7282
-21.0722
-24.2067
-25.7727
-26.7505
-27.4055
-27.6306
-28.1425
8.43127
8.74095
8.79674
9.068
9.40428
9.91372
11.3562
13.6882
20.0846
30.5689
48.8227
80.4743
92.7665
55.8743
10.2179
-11.6764
-21.7165
-28.3659
-29.8598
-29.8082
-29.717
-29.5259
-29.23
-29.2742
7.6695
7.72848
7.50714
7.28291
6.96638
6.30264
6.37444
7.41541
9.88033
17.4951
40.7168
99.8828
183.556
59.5459
-5.81562
-32.4939
-36.2356
-37.7136
-36.3921
-34.2318
-32.8279
-31.6348
-30.7691
-30.2535
7.00668
6.79746
6.31173
5.56992
4.54904
2.59394
0.673792
-0.475339
-4.53289
-8.52045
-4.02435
28.6327
-25.8137
-63.7655
-64.7933
-55.2076
-47.9719
-43.0266
-38.5093
-35.6883
-33.4535
-32.0364
-30.9269
6.51081
6.06049
5.3773
4.21023
2.60054
-0.409371
-4.23785
-8.12157
-19.053
-38.4968
-68.5649
-147.401
-252.664
-144.508
-99.6849
-73.9058
-56.8749
-48.3944
-41.8494
-37.7981
-34.6711
-32.8148
-31.1564
6.22617
5.60762
4.8451
3.46406
1.58392
-1.81929
-6.60704
-12.2894
-26.3396
-52.7922
-98.6568
-206.074
-360.483
-193.55
-119.778
-85.0783
-61.6925
-51.0301
-43.4489
-38.684
-35.0133
-32.9219
-30.8433
6.16036
5.47676
4.77469
3.44835
1.71226
-1.26204
-5.63361
-11.3109
-23.0101
-43.9198
-79.9142
-152.509
-318.878
-184.898
-115.892
-84.2848
-60.788
-50.1317
-42.8597
-38.0839
-34.3327
-32.2613
-29.9519
6.28028
5.63811
5.11492
4.07685
2.83074
0.896487
-1.95982
-6.01533
-11.7595
-19.8731
-32.1771
-45.7069
-192.613
-132.975
-92.4246
-72.6873
-54.6
-45.9783
-40.1746
-36.0579
-32.666
-30.8547
-28.5233
6.52144
6.00416
5.7239
5.10085
4.50472
3.79682
2.82526
1.09403
1.4058
5.21342
13.8357
44.4589
-57.0301
-69.5382
-61.6145
-55.5197
-45.237
-39.7497
-35.9723
-32.9463
-30.2287
-28.832
-26.6629
6.80727
6.46079
6.42545
6.22527
6.24567
6.58996
7.21342
9.75667
11.2236
21.8888
37.5442
81.3175
177.752
25.3137
-21.6919
-34.8578
-38.4677
-35.1931
-32.8517
-31.039
-29.2328
-27.3019
-26.3915
-24.5109
7.0678
6.90047
7.06464
7.20706
7.67486
8.66547
10.1897
13.2874
16.64
26.6312
40.6054
63.265
70.4123
33.9761
-1.40236
-17.4007
-23.8866
-26.0837
-26.3451
-26.0653
-25.3661
-24.1754
-23.7414
-22.2143
7.25192
7.24524
7.54258
7.91644
8.63589
9.92101
11.7313
15.0306
18.2886
25.4418
35.036
42.182
39.7776
23.1479
5.79096
-7.85366
-16.2953
-19.2242
-20.8727
-21.5314
-21.6775
-21.1045
-21.0663
-19.9089
7.33091
7.45267
7.81743
8.3203
9.12554
10.4706
12.1639
15.2267
18.43
21.9039
26.692
28.8078
27.9149
18.5752
6.70921
-2.99567
-10.3997
-14.0706
-16.4048
-17.624
-18.3428
-18.2245
-18.4902
-17.6762
7.29517
7.50958
7.88749
8.43898
9.20965
10.4513
11.8394
14.1483
16.666
19.1331
20.6215
22.1363
18.0312
13.639
4.2203
-1.54529
-6.43476
-10.3788
-12.8672
-14.3806
-15.4337
-15.6299
-16.0995
-15.5816
7.14905
7.42326
7.77608
8.32197
8.98974
10.0528
11.0975
12.7643
14.1357
16.1333
14.5862
17.0371
13.9852
7.30562
4.56943
-0.855827
-4.57582
-7.92816
-10.2015
-11.7747
-12.9654
-13.359
-13.9434
-13.6682
6.9056
7.21311
7.51867
8.02996
8.56862
9.44936
10.168
11.4311
11.9947
13.5956
12.3921
13.4428
11.1653
6.45551
4.09236
-0.439765
-3.27367
-6.16677
-8.17193
-9.69157
-10.8968
-11.4037
-12.0357
-11.9516
6.58186
6.90327
7.15163
7.61646
8.02172
8.74411
9.17938
10.1607
10.2408
11.3693
10.1706
10.3441
8.58038
5.34478
3.43793
-0.176981
-2.34375
-4.86406
-6.59687
-8.01862
-9.16955
-9.73538
-10.3685
-10.4302
6.19563
6.51782
6.70693
7.12358
7.40295
7.99509
8.19985
8.9618
8.74062
9.51374
8.33141
8.23361
6.7917
4.33015
2.85554
-0.0512904
-1.72935
-3.90477
-5.37069
-6.67368
-7.7307
-8.31988
-8.92342
-9.09351
5.76377
6.07869
6.21159
6.58393
6.75183
7.2409
7.26902
7.86658
7.46708
8.00907
6.91351
6.69096
5.49344
3.55456
2.37606
0.00173177
-1.31405
-3.18496
-4.40947
-5.58861
-6.53228
-7.12192
-7.67733
-7.92542
5.30133
5.6048
5.68739
6.02187
6.09586
6.50605
6.40468
6.88194
6.38573
6.76834
5.77082
5.48422
4.48006
2.93215
1.97373
0.018702
-1.02218
-2.63153
-3.64674
-4.70639
-5.53162
-6.10783
-6.60528
-6.90735
4.82102
5.11151
5.15099
5.45474
5.45257
5.80379
5.61123
6.00037
5.45969
5.73132
4.83365
4.52858
3.67513
2.42225
1.6359
0.0164784
-0.81236
-2.1977
-3.03389
-3.98262
-4.6921
-5.24655
-5.68232
-6.01972
4.33334
4.61092
4.61476
4.89448
4.83269
5.14085
4.88716
5.2123
4.66097
4.85722
4.05343
3.7571
3.02735
2.00634
1.35431
0.00492096
-0.658276
-1.8519
-2.53595
-3.38286
-3.98337
-4.51117
-4.88553
-5.24384
3.84662
4.11228
4.08749
4.34902
4.24216
4.51946
4.22787
4.5072
3.96701
4.11567
3.3972
3.12641
2.50682
1.66339
1.11844
-0.0118141
-0.542933
-1.57131
-2.12585
-2.88065
-3.38085
-3.87934
-4.19462
-4.56202
3.36739
3.62242
3.57526
3.82325
3.68359
3.93926
3.62739
3.87496
3.35864
3.47964
2.8413
2.60524
2.07646
1.3706
0.922
-0.0266065
-0.449637
-1.33585
-1.78043
-2.45239
-2.862
-3.32956
-3.58981
-3.95736
2.90067
3.14611
3.08195
3.31968
3.15759
3.3982
3.0794
3.30617
2.82031
2.92656
2.3624
2.16296
1.71298
1.12396
0.757602
-0.0397052
-0.37238
-1.13515
-1.4851
-2.08173
-2.40992
-2.84535
-3.05483
-3.41545
2.45022
2.68664
2.60995
2.83946
2.66314
2.89317
2.57729
2.79062
2.33992
2.44035
1.94444
1.78203
1.40164
0.913689
0.618502
-0.0504217
-0.30599
-0.960293
-1.22811
-1.75516
-2.01015
-2.41206
-2.57484
-2.9224
2.01882
2.24577
2.16018
2.38206
2.19828
2.42114
2.11433
2.31837
1.90622
2.00696
1.57446
1.44879
1.13108
0.731725
0.499599
-0.0579919
-0.246525
-0.803945
-0.999619
-1.4616
-1.65072
-2.01718
-2.13723
-2.46577
1.60911
1.82469
1.73343
1.94623
1.76164
1.97758
1.68558
1.88272
1.51113
1.61526
1.24237
1.15219
0.891784
0.571654
0.396497
-0.062287
-0.191608
-0.660735
-0.792837
-1.19224
-1.32216
-1.65047
-1.7315
-2.03487
1.2215
1.4213
1.32789
1.52804
1.34877
1.55402
1.28459
1.47381
1.14618
1.25405
0.939262
0.882336
0.676038
0.428598
0.305444
-0.0627554
-0.139813
-0.525408
-0.601657
-0.938208
-1.01545
-1.30083
-1.34653
-1.617
0.86395
1.04135
0.949953
1.13149
0.964233
1.15332
0.91454
1.09132
0.812211
0.919877
0.661313
0.631857
0.478851
0.299886
0.223928
-0.0592868
-0.0917575
-0.396332
-0.425637
-0.697742
-0.730156
-0.967098
-0.982291
-1.21139
0.512983
0.649399
0.570318
0.714271
0.577595
0.73097
0.544864
0.691308
0.481849
0.577656
0.391356
0.385882
0.288212
0.176842
0.142628
-0.0481754
-0.0460964
-0.257
-0.250926
-0.442856
-0.440805
-0.611409
-0.603057
-0.770246
0.273511
0.37069
0.308937
0.415186
0.313231
0.429104
0.295381
0.406971
0.258202
0.328035
0.176377
0.15385
0.125546
0.0866998
0.0834652
-0.0349065
-0.0157047
-0.151432
-0.128647
-0.254719
-0.235977
-0.350008
-0.331347
-0.443367
-131.879
-248.024
-16.4417
-204.976
-386.289
-274.661
-164.08
-357.287
-392.547
-59.0826
-220.191
-342.957
35.5144
-68.8216
-201.145
81.579
199.682
193.722
33.3095
-51.6586
50.2606
184.045
13.8741
81.3517
-54.1583
-115.888
21.6654
-189.796
85.8107
-229.107
-140.693
-63.7502
-95.9053
-185.227
-130.073
-182.705
-263.676
-219.323
-481.111
-390.94
-354.953
-213.674
-163.986
-88.5979
-151.425
-186.207
-198.364
-276.298
-290.632
-531.005
-539.191
-330.834
-217.456
-221.406
-45.0589
-57.2999
-141.02
-114.05
-136.984
-203.637
-354.066
-452.183
-210.056
-161.962
-207.664
-150.086
-242.974
-72.5983
-85.5902
-143.217
48.8563
-33.5916
70.3925
72.5134
180.919
68.8626
48.9452
37.0644
-210.729
-116.911
-71.989
-129.108
-226.829
94.9494
-110.079
-383.355
-214.217
-156.113
-204.631
-373.518
-289.349
-268.067
-190.687
-277.841
-299.882
-235.325
-276.988
-533.39
-485.754
-352.898
-470.383
-527.872
-379.892
-466.178
-337.148
-212.758
-270.063
-191.879
-279.987
-218.341
-299.247
-284.39
-456.783
-526.622
-388.854
-524.003
-445.19
-531.374
-527.755
-394.344
-130.898
-60.3873
-212.614
-141.264
-249.765
-347.409
-275.55
-343.49
-248.55
-439.906
-350.238
-293.515
19.1124
66.0536
-50.8546
11.3744
-46.386
-137.163
-235.91
-148.618
-142.911
114.469
128.481
71.1571
111.593
97.9936
56.3688
-48.0588
-96.995
83.6246
-77.2997
227.527
3.86724
29.6008
-45.1038
-7.43041
8.34383
-51.2801
31.6624
-26.2359
21.9786
-24.0066
-67.5961
192.178
-64.6425
68.2814
-176.909
-121.159
-60.2598
-127.193
-100.368
-99.6672
-57.9938
60.2576
83.1243
-52.2566
-13.3891
-34.0854
-87.9899
-123.988
-136.082
-49.4085
86.0732
114.28
-37.5609
39.8555
-5.38201
307.667
197.539
123.929
118.61
195.772
309.4
-114.997
-78.5371
-124.874
204.112
-86.452
-38.2828
-446.549
-437.71
-546.174
-544.954
-398.36
-406.207
-187.79
-155.534
-196.119
92.4482
39.7064
-27.6685
28.1585
4.54868
-200.322
-181
-246.932
-205.504
-250.414
-194.24
-193.742
-75.2335
-31.1329
-92.8917
-189.095
-315.458
-306.127
-291.524
-291.541
-255.937
-257.669
-511.993
-511.337
-506.298
-431.781
-408.775
-452.483
-437.766
-508.464
-428.271
-359.364
-319.832
-400.368
-370.64
-434.481
-255.079
-249.79
-300.517
-298.1
-495.927
-498.693
-496.027
-430.175
-448.108
-399.276
-422.929
-492.154
-539.775
-460.913
-455.759
-452.817
-460.395
-540.264
-104.764
-100.497
-105.072
-146.917
-58.2408
-99.5803
-90.4496
-182.697
-151.681
-172.379
-295.777
-302.986
-399.174
-361.969
-390.65
-320.683
-351.77
-392.767
31.3332
57.7248
-22.7307
-14.3608
-52.5791
24.5046
-9.25401
-13.8351
-8.00467
26.9038
-85.1087
-88.3119
-35.1574
-149.676
-95.0147
-98.4696
-93.7144
149.763
167.121
220.863
117.806
143.709
240.012
136.93
97.2666
432.256
34.6317
67.0898
37.7567
66.3295
98.5543
68.9537
115.969
88.6588
100.286
288.359
62.1623
15.7614
4.23625
78.8248
87.8367
254.652
169.404
164.909
92.5943
104.362
145.356
144.722
220.666
468.187
324.8
222.585
266.746
346.959
477.711
-248.433
-207.13
-225.111
-470.605
-418.27
-413.003
-288.501
-242.484
-235.189
-245.798
-246.28
-290.444
-540.107
-541.174
-373.143
-433.45
119.323
105.03
16.5585
35.7701
79.8679
126.59
103.599
119.367
-0.419065
-51.8019
178.904
-355.767
-386.486
-413.917
-283.699
-234.339
-168.205
-304.905
-252.26
-305.626
-282.569
-240.256
-247.264
-227.36
-239.817
-279.571
-285.005
-307.7
-298.917
-326.125
-324.807
-296.198
-296.183
-289.851
-268.675
-526.993
-496.856
-486.409
-455.499
-446.921
-490.967
-482.17
-521.074
-229.066
-214.955
-247.342
-270.739
-290.433
-308.816
-301.842
-331.219
-327.515
-312.907
-324.141
-291.171
-475.483
-516.299
-513.45
-476.257
-484.457
-432.638
-437.743
-464.076
-535.774
-497.8
-491.145
-489.174
-494.195
-535.652
-269.171
-279.874
-258.058
-356.623
-343.07
-328.666
-299.977
-277.117
-309.892
-233.098
-265.803
-286.821
40.6787
55.1094
28.7308
78.7637
59.7315
47.2351
163.923
172.609
90.2877
107.443
85.4477
151.525
161.719
140.26
125.166
35.1532
322.368
85.0116
41.9325
5.74869
9.89331
43.8122
0.0648334
-2.69127
66.7344
59.8573
271.822
7.54294
28.2681
-82.9217
-74.542
71.1152
76.3977
69.9954
75.8228
68.6932
87.6854
78.4325
72.7717
-34.7689
-28.7708
-56.7753
-64.4321
97.6262
102.685
90.9785
109.217
125.836
-185.083
-159.233
-80.892
-239.282
-181.433
-208.315
-466.825
-419.245
-542.248
-545.418
-378.874
-427.319
-181.751
-177.768
-197.845
-151.119
-171.186
-173.299
-233.063
-254.377
-204.407
-224.963
70.7266
91.6585
110.789
50.944
82.8834
64.4143
89.6308
54.3617
-225.459
-197.245
-219.427
-159.139
-188.698
-217.13
-245.702
-257.167
-225.536
-241.563
-145.915
-110.594
-149.058
-160.539
-175.506
-358.585
-378.662
-348.197
-359.663
-310.674
-257.415
-351.488
-324.866
-268.488
-306.198
-348.201
-317.546
-311.303
-285.548
-314.752
-321.328
-309.521
-310.636
-330.86
-329.34
-320.714
-327.596
-296.398
-322.895
-318.084
-279.733
-290.574
-260.996
-275.103
-300.734
-306.701
-293.055
-300.04
-267.488
-288.358
-281.414
-526.455
-496.988
-469.704
-457.26
-491.577
-518.956
-481.419
-470.932
-271.022
-285.292
-265.792
-295.106
-280.511
-315.288
-300.234
-256.883
-236.55
-275.078
-261.615
-332.179
-330.968
-300.454
-335.427
-339.155
-331.553
-336.738
-329.725
-316.916
-336.164
-332.504
-294.692
-326.47
-330.779
-480.624
-508.671
-460.802
-470.774
-507.924
-472.775
-443.774
-455.14
-500.466
-497.029
-538.249
-537.654
-497.739
-498.43
-122.304
-121.649
-118.239
-101.903
-141.087
-124.03
-129.984
-75.393
-73.8587
-60.3012
-96.4327
-79.4327
-81.7502
-207.789
-190.931
-229.88
-213.443
-167.565
-163.156
-146.582
-185.548
-168.744
-175.442
-307.249
-287.842
-276.33
-289.414
-306.951
-260.615
-281.022
-312.916
-321.952
-335.64
-312.843
43.6766
49.9444
39.8058
66.204
53.9794
47.5208
68.4832
7.93233
34.3487
13.0855
-126.802
-123.374
-144.331
-94.542
-116.622
-118.763
-118.528
-126.44
176.828
196.637
132.167
147.118
179.546
147.271
-0.352478
-40.2573
4.82666
7.01405
49.1975
79.0499
631.139
471.64
399.604
470.299
527.202
648.757
67.6196
157.269
97.3921
-178.175
-202.805
-242.351
-476.895
-479.525
-484.533
-537.138
-539.208
-179.855
-157.74
-176.017
-454.075
-448.16
-446.595
-251.223
-229.995
-223.531
-178.839
-138.431
-171.22
-251.275
-237.213
-216.973
-245.408
-292.258
-256.95
-242.19
-267.263
-255.228
-529.329
-490.901
-495.575
-490.205
-511.66
-508.963
-524.864
-438.661
-429.94
-454.448
-239.009
-207.292
-188.411
-230.591
-247.444
-232.124
-462.092
-460.216
-456.486
-523.787
-520.801
-502.738
-506.038
-532.977
-516.183
-514.237
-509.647
-512.973
-531.772
-201.561
-210.25
-225.18
-422.607
-408.831
-421.042
-197.96
-188.265
-221.72
171.797
172.63
134.792
115.009
95.0393
171.745
172.124
91.4081
120.456
81.5361
-65.9919
-45.3174
-94.4568
-57.1054
-62.725
-63.854
-46.5075
-45.7107
-51.3989
-11.8494
-17.0592
-18.6787
-86.9339
-80.3418
-80.7525
123.004
107.379
101.066
181.831
296.939
239.519
-137.531
-155.295
-134.391
-102.911
-255.538
-236.336
-55.2593
23.1427
39.0086
-458.852
-461.218
-453.817
-430.493
-445.292
-451.847
-550.107
-545.522
-406.025
-398.782
-391.145
-414.22
-420.488
-414.014
-195.334
-200.672
-154.152
-160.694
-161.259
-205.942
-211.38
-216.696
-222.623
-202.717
-209.137
-238.613
-239.491
-245.72
-182.441
-192.742
-214.659
-268.777
-274.328
-250.505
-253.633
-250.603
-53.0194
-99.3394
-130.227
-116.093
-108.35
-119.347
-173.235
-288.283
-277.522
-279.076
-270.687
-244.412
-278.423
-279.299
-515.39
-510.724
-397.736
-384.958
-408.819
-450.805
-420.453
-409.635
-237.656
-252.25
-266.009
-490.275
-500.601
-522.458
-522.27
-539.773
-541.555
-522.729
-522.48
-109.967
-110.76
-109.567
-103.77
-146.056
-140.765
-142.453
-188.798
-204.897
-192.96
-201.791
-196.655
-232.634
-228.426
-156.655
-156.757
-151.334
-191.947
-187.339
-385.987
-397.3
-416.664
-374.989
-363.256
-374.573
-29.8908
-29.0459
-19.0945
-50.6084
-39.6183
-35.4783
-65.0798
-68.8809
-87.4291
-41.1024
-55.7571
-57.5554
-142.75
-140.609
-147.321
-102.904
-94.8893
-145.594
198.707
201.08
213.094
144.029
131.957
142.744
128.538
157.277
146.726
137.704
222.152
185.991
117.2
134.782
118.242
208.758
394.012
117.807
81.4847
84.4774
201.197
210.094
238.444
95.779
95.7879
91.0378
105.096
100.305
99.8044
232.987
195.942
184.608
324.128
472.15
415.327
-475.318
-476.45
-473.611
-420.722
-422.577
-416.224
-434.877
-423.754
-540.431
-538.899
-380.203
-384.183
-364.329
-372.421
-439.855
-440.334
-433.814
112.237
117.825
125.173
106.315
112.014
106.493
-395.079
-393.284
-384.325
-409.653
-401.682
-404.813
-526.717
-493.596
-496.702
-497.1
-522.529
-506.725
-504.594
-469.521
-463.93
-469.014
-523.131
-495.253
-499.346
-518.151
-519.144
-517.47
-533.961
-534.426
-515.688
-517.508
-351.073
-351.667
-357.241
-340.052
-345.572
-346.669
174.322
176.852
163.537
167.288
155.497
161.955
157.927
147.742
139.475
134.991
142.216
146.667
130.273
134.633
130.246
18.8621
-3.21369
-14.0098
52.4575
265.923
224.544
298.244
106.583
139.325
188.711
20.1564
18.6246
8.79151
38.0731
28.7123
30.577
-17.2217
-15.2303
-24.9445
-0.644635
-9.14695
-8.75143
90.0409
105.999
47.6674
-52.8324
-84.7468
-9.18827
-16.6817
-89.4921
-69.6017
-68.4603
-75.5698
72.4535
74.1995
65.1408
67.9263
71.0363
-34.338
-40.0837
-40.7183
-15.6928
-10.3302
-21.9705
-23.3248
-21.1345
-28.4618
-54.0781
-48.3214
-49.842
-46.8721
-55.6555
-32.4429
-39.651
-72.7941
-72.5197
-64.1414
114.381
115.639
110.226
127.759
121.467
119.914
-192.946
-163.719
-159.646
-228.385
-236.643
-216.548
-462.854
-460.968
-467.297
-472.988
-443.31
-441.037
-454.323
-447.367
-546.839
-547.428
-397.93
-404.061
-388.205
-392.7
-384.689
-392.612
-387.146
-428.796
-424.254
-421.076
-413.338
-179.997
-189.048
-167.054
-167.262
-173.91
-241.112
-242.556
-233.91
-255.199
-250.461
-248.325
-211.155
-212.355
-206.086
-226.15
-217.75
-217.559
-218.468
61.2493
56.4143
46.5137
77.6397
65.7319
-215.35
-225.651
-233.239
-231.695
-220.731
-204.634
-214.635
-262.339
-264.599
-271.711
-267.642
-253.101
-250.834
-259.227
-147.52
-131.267
-142.391
-103.883
-183.78
-172.884
-163.876
-368.663
-351.214
-340.237
-374.086
-363.96
-378.103
-382.147
-369.898
-292.278
-294.716
-313.302
-278.572
-293.662
-275.908
-339.692
-325.929
-332.255
-336.393
-318.702
-321.927
-311.127
-314.458
-314.439
-313.031
-312.227
-329.791
-328.56
-321.93
-324.424
-285.33
-290.751
-284.731
-292.822
-292.039
-288.47
-264.84
-277.849
-275.241
-284.83
-281.14
-269.344
-281.378
-283.555
-302.13
-304.141
-303.022
-310.15
-306.825
-304.228
-295.73
-298.974
-295.562
-303.964
-304.05
-298.735
-519.904
-504.488
-290.867
-292.746
-295.214
-281.401
-288.063
-286.1
-310.69
-298.148
-302.127
-305.449
-250.79
-253.328
-260.13
-239.649
-245.974
-243.74
-270.247
-271.079
-275.546
-264.27
-267.307
-265.803
-336.049
-337.858
-334.518
-337.858
-324.289
-319.989
-333.33
-332.058
-484.749
-503.785
-539.876
-522.064
-520.751
-519.64
-521.514
-540.161
-115.38
-121.162
-115.49
-116.522
-137.064
-134.835
-127.88
-214.633
-207.672
-202.03
-207.394
-213.546
-224.291
-229.444
-234.173
-219.389
-224.29
-218.737
-225.025
-221.314
-168.591
-162.505
-161.893
-182.479
-174.695
-301.184
-296.582
-303.332
-282.824
-289.844
-295.077
-297.425
-302.456
-266.108
-266.592
-260.266
-273.69
-327.153
-325.387
-333.215
-309.96
-317.377
-319.872
46.3676
44.772
48.5892
36.9113
41.0608
43.3146
64.1546
59.8962
62.421
52.5678
56.5828
58.3738
63.389
5.66355
10.8962
-5.06322
0.513438
29.0962
27.2086
31.902
16.4512
23.7061
22.7474
-125.488
-133.412
-135.014
-110.67
-134.989
181.239
187.305
137.833
144.807
134.929
153.364
148.188
142.212
152.866
159.579
168.99
155.291
49.0394
66.9132
52.5438
74.0427
83.7875
60.3184
82.0942
62.7478
50.1594
52.4282
27.9662
27.5711
25.3191
36.9048
39.4691
45.5939
82.9493
71.5439
102.628
165.953
94.5254
165.297
87.1583
68.2143
62.2408
13.1028
23.4654
2.07772
-12.3862
-2.5594
6.06669
6.83125
32.2607
11.0466
39.8464
82.59
98.3589
162.63
141.164
266.6
187.41
149.951
58.0313
25.3694
37.176
-45.283
-44.3218
-25.706
-24.329
-45.5823
-5.31907
-20.7828
-24.006
-2.30832
4.32111
8.15491
37.6889
-114.677
-105.011
-51.071
-125.655
-92.7356
-67.5078
-48.4803
-80.2065
-57.1321
-80.689
-99.452
-84.7891
-161.134
-181.025
-166.384
-309.67
-242.697
-196.282
-186.919
-134.411
-116.237
-51.056
-75.2908
-82.5341
-98.3517
-118.78
-120.007
-205.544
-228.321
-228.852
-361.814
-288.952
-281.336
-192.639
-146.127
-144.732
-32.9
-40.1687
-68.2931
-69.4663
-80.468
-93.8299
-140.301
-152.044
-166.212
-276.493
-233.796
-261.042
-148.499
-124.678
-138.901
-6.67243
0.790428
-29.5227
-32.5121
-31.962
-46.6648
-139.48
-129.532
-170.278
-84.8779
-84.8356
-105.81
14.7106
27.8373
9.30354
-14.639
-36.798
-59.7766
-31.0132
-45.4126
-64.0847
25.311
33.0557
29.6939
42.0382
62.4501
69.8696
78.4976
97.3187
114.765
128.79
130.875
138.867
35.5108
4.50177
-13.9799
-8.57061
-18.291
-30.1508
26.5595
32.8257
33.7885
38.4996
44.6457
57.587
46.6051
48.3038
74.8752
46.0887
33.8722
44.7405
28.0865
13.6272
6.76671
3.93696
-5.302
-10.5731
30.5732
34.1168
39.0424
32.6348
36.5076
42.0562
33.0039
24.6621
30.5838
21.2626
13.3183
14.5653
-149.351
-129.512
-113.997
-217.731
-242.947
-290.534
-0.948956
-39.202
-50.0477
-227.411
-224.064
-201.837
-377.497
-418.605
-433.825
-304.335
-342.591
-298.135
-179.708
-192.173
-174.527
-369.959
-409.916
-386.986
-436.861
-443.072
-396.128
-61.3216
-76.023
-72.7399
-238.354
-258.973
-229.211
-378.017
-351.226
-327.382
-86.8074
-84.4693
-65.1732
-210.243
-188.325
-181.502
116.219
105.903
70.5091
222.319
202.82
185.613
182.977
180.332
218.887
-46.3841
-27.7914
-35.0318
108.248
164.376
92.1533
742.453
642.77
653.556
156.304
190.885
265.702
743.898
776.011
37.0769
60.1525
34.1887
132.441
154.886
76.447
-66.7853
-46.0963
-37.831
-61.8569
-53.352
-79.8103
3.44211
-24.6743
-41.4295
-156.453
-169.506
-227.391
108.698
62.8836
47.3569
-181.317
-123.442
-144.957
-115.217
-122.577
-154.825
-58.8013
-89.7528
-89.3181
-117.204
-110.299
-89.7722
-171.046
-133.635
-141.778
-102.446
-120.499
-163.7
-203.816
-193.406
-172.706
-258.99
-245.461
-250.402
-205.042
-213.376
-226.319
-400.779
-410.035
-398.513
-279.703
-251.279
-324.221
-201.089
-230.292
-245.331
-184.331
-209.823
-184.546
-105.132
-113.641
-94.8059
-175.086
-136.364
-125.391
-144.911
-143.056
-180.707
-220.307
-225.466
-202.808
-281.453
-263.817
-259.407
-273.798
-274.139
-291.405
-271.408
-283.803
-357.083
-223.167
-255.091
-247.074
-254.489
-257.754
-224.751
-50.1859
-65.6943
-57.6328
-94.4845
-75.528
-56.3194
-110.962
-94.0319
-106.871
-122.162
-137.282
-127.35
-166.245
-148.822
-124.878
-195.937
-187.341
-195.233
-360.886
-369.127
-360.793
-184.448
-220.553
-260.627
-179.308
-198.647
-177.291
-234.359
-217.958
-194.862
-163.112
-170.209
-150.168
-246.159
-239.543
-236.773
-85.796
-109.736
-122.447
-104.435
-109.001
-86.5728
-154.628
-131.325
-123.83
38.7381
47.6031
58.4346
-30.404
-16.7739
-20.7107
76.7868
91.3209
75.9088
105.759
95.9519
78.8321
156.512
136.019
133.127
70.1963
82.8184
103.162
49.94
73.282
60.5105
83.0788
76.6141
47.4349
-201.172
-186.19
-196.131
-85.4275
-127.981
-165.839
-94.1445
-106.778
-80.9603
-149.101
-178.419
-150.91
63.8621
70.2212
109.038
-125.533
-101.129
-87.2161
-374.85
-384.416
-392.673
-223.906
-241.148
-231.348
-167.096
-204.475
-188.859
-233.766
-219.034
-192.246
-338.846
-323.773
-343.422
-287.544
-271.721
-273.111
-254.672
-258.709
-272.268
-197.24
-219.053
-212.277
-281.185
-287.45
-284.876
-309.344
-308.309
-297.891
-282.735
-280.206
-273.42
-390.682
-412.978
-366.351
-475.44
-468.591
-462.184
-402.15
-371.208
-356.052
-459.732
-453.316
-461.681
-318.913
-353.245
-382.772
-221.708
-212.709
-204.536
-254.1
-248.38
-262.969
-183.992
-203.36
-212.815
-277.922
-286.765
-290.624
-221.729
-226.752
-222.557
-301.17
-311.102
-310.036
-294.523
-297.609
-285.995
-432.865
-417.099
-380.613
-439.55
-441.939
-449.934
-396.764
-442.637
-437.212
-120.569
-122.24
-138.858
-60.9332
-70.8931
-70.1096
-208.037
-211.063
-216.419
-144.402
-160.996
-151.657
-255.908
-259.345
-252.844
-352.948
-346.315
-341.304
-301.406
-270.048
-257.157
-323.974
-316.25
-328.258
-243.384
-255.49
-261.271
-434.644
-429.786
-433.512
-340.223
-351.903
-368.985
-310.821
-341.327
-311.94
26.6236
30.0435
22.3026
70.3499
63.9721
59.8165
-41.298
-40.6798
-50.8868
14.2576
5.85563
3.2561
-59.3149
-57.7715
-44.0458
-143.436
-122.846
-124.157
-223.216
-219.091
-231.246
-143.486
-176.77
-186.118
-162.111
-166.923
-145.968
125.448
154.912
140.255
153.761
157.624
125.699
78.2415
83.0602
76.4662
85.2935
127.238
130.472
-52.383
-21.9933
-22.1531
-25.0616
-21.6363
-71.069
51.5892
15.4351
2.11743
261.066
203.659
181.964
0.572527
-1.35934
14.2962
-37.1601
-18.6588
-10.0887
-4.5439
-17.9125
-19.7329
-15.988
-15.3589
-0.788992
-47.3894
-30.9089
-24.4568
23.1154
25.9383
35.1222
-25.1191
-17.5383
-18.3697
-2.31169
-17.5633
-3.34524
148.815
162.663
214.192
-100.617
-70.0884
-36.9039
-38.8381
-47.5517
16.7871
-145.667
-72.3825
-76.4071
-85.3982
-81.7545
-124.99
-88.2628
-82.6127
-62.085
-116.008
-91.196
-97.851
-86.5945
-91.3934
-106.797
63.8254
66.1353
63.0371
84.8211
81.3842
79.2877
-42.0746
-40.8646
-33.0324
-125.205
-104.673
-105.244
-98.4263
-98.8275
-132.464
-59.5078
-88.1713
-85.9969
90.0919
91.6609
88.0964
116.948
112.259
109.349
-1.51063
-19.1705
-40.3016
17.6456
0.298017
9.52485
-19.5732
-10.5063
5.19159
267.322
317.304
422.241
189.43
278.501
244.998
209.107
278.863
181.076
145.199
179.768
148.044
248.497
291.806
189.989
427.599
333.046
271.809
-77.1692
-148.608
-118.437
82.564
86.3633
139.807
-70.148
-35.9337
-48.1744
3.82907
12.572
-33.8099
-196.359
-176.793
-176.295
-203.443
-205.745
-199.216
84.6154
90.92
97.7469
43.6528
52.4357
47.9692
-4.57734
-12.223
-26.5953
16.8544
2.30005
3.35359
-8.03969
-3.14937
10.4028
-207.806
-186.231
-166.169
-206.182
-232.148
-214.025
-176.765
-160.402
-172.112
-58.7514
-80.9771
-95.2233
-60.5218
-71.322
-41.6045
-329.076
-340.092
-327.879
-292.905
-305.947
-318.117
-299.733
-297.974
-288.882
-294.005
-302.521
-300.948
-263.338
-260.263
-251.372
-261.987
-268.762
-265.873
-490.577
-487.653
-503.5
-424.681
-444.082
-451.798
-428.499
-435.368
-416.986
-448.151
-470.324
-475.276
-458.498
-464.753
-443.455
-511.456
-495.9
-492.997
-417.319
-409.117
-421.562
-346.985
-366.186
-378.556
-338.735
-353.046
-334.028
-391.079
-410.795
-419.996
-390.097
-400.9
-381.401
-440.582
-429.92
-421.858
-260.108
-264.416
-258.061
-246.542
-250.959
-255.326
-311.48
-311.748
-299.813
-298.141
-309.17
-310.278
-478.53
-482.162
-499.408
-436.66
-460.221
-452.592
-473.328
-467.264
-442.885
-407.348
-424.896
-414.047
-444.206
-434.971
-415.478
-486.746
-470.305
-474.592
-460.072
-485.206
-486.517
-479.46
-482.839
-458.523
-456.3
-482.494
-478.535
-486.531
-485.263
-459.042
-101.83
-116.603
-110.264
-64.1215
-63.8957
-58.3085
-98.1341
-92.4704
-94.0189
-80.1566
-81.4998
-92.3705
-162.065
-166.679
-183.298
-299.67
-293.397
-289.718
-309.171
-312.689
-306.134
-393.954
-399.361
-405.15
-371.754
-384.756
-374.34
-404.633
-394.907
-381.539
-331.145
-341.432
-330.199
-363.527
-352.565
-341.625
-386.824
-381.086
-386.54
35.6331
37.7416
33.4458
60.1876
57.1263
54.6059
-21.2922
-30.8046
-31.91
-19.5007
-20.6409
-15.3258
-53.0094
-47.2653
-46.8839
10.9923
9.24349
17.8912
-9.42003
0.0886092
6.17144
-5.11821
-2.91691
-12.014
-2.61872
-0.97042
-6.42443
28.7411
24.1041
22.4444
-84.5291
-71.1634
-72.0502
-80.7419
-80.3685
-87.693
-35.9526
-43.97
-42.9017
-94.7413
-102.248
-102.532
-111.52
-111.034
-98.5731
155.417
169.062
159.858
187.759
172.598
160.886
122.839
125.79
121.3
126.525
140.981
165.93
103.641
109.844
104.853
61.3363
48.5862
54.2927
27.9807
39.314
57.9296
89.4146
78.5747
86.5109
59.9808
69.5395
78.8802
108.725
117.108
126.851
93.806
108.536
100.063
126.281
112.237
98.2173
43.3413
37.9766
49.3127
12.9619
25.879
36.9626
15.3528
20.1476
8.14396
229.926
257.372
322.262
173.67
194.438
189.763
176.682
188.078
172.003
149.938
163.348
157.145
170.096
173.575
152.231
305.274
221.972
218.947
428.481
470.19
583.905
324.735
387.52
374.957
339.048
418.336
306.291
298.882
342.457
307.501
398.95
463.334
351.619
597.101
509.323
449.993
-234.403
-240.288
-253.992
-214.982
-226.822
-220.682
-236.902
-231.754
-218.223
-405.533
-418.351
-428.358
-270.391
-267.63
-285.543
-242.032
-255.684
-257.886
-248.28
-252.026
-237.019
-247.944
-261.343
-260.687
-260.001
-260.68
-245.381
-291.325
-273.591
-272.512
-381.906
-376.48
-367.404
23.5849
36.1047
28.1632
54.2729
44.4032
30.9598
68.6622
56.8349
67.0037
120.803
130.255
147.7
110.987
120.947
112.086
133.052
123.12
113.238
-7.10365
30.8569
31.7425
36.7137
33.8101
-13.1039
127.881
82.3528
70.7537
-367.903
-376.382
-367.117
-265.817
-243.186
-259.884
-211.793
-226.689
-248.774
-179.476
-204.097
-192.021
-289.005
-306.511
-322.976
-269.263
-288.853
-271.969
-325.963
-306.087
-286.703
-267.753
-270.06
-285.271
-244.484
-256.872
-254.213
-260.143
-258.4
-244.019
-233.352
-245.186
-240.903
-251.846
-248.368
-234.703
-276.078
-262.09
-265.256
-291.941
-289.587
-281.883
-305.264
-297.595
-299.416
-293.508
-295.61
-301.736
-325.343
-314.067
-314.901
-312.707
-313.579
-325.262
-298.384
-307.673
-306.471
-293.754
-289.081
-291.368
-284.796
-286.967
-291.626
-272.4
-278.177
-275.747
-475.887
-471.891
-480.261
-448.961
-461.01
-465.789
-486.865
-501.294
-504.096
-496.319
-499.111
-486.411
-226.015
-238.063
-243.166
-225.638
-231.78
-219.034
-255.306
-242.004
-235.374
-277.912
-282.094
-273.128
-296.026
-288.466
-284.457
-296.752
-292.868
-302.962
-312.182
-311.608
-300.287
-330.998
-318.112
-318.512
-315.905
-317.131
-329.25
-316.648
-303.258
-300.124
-309.495
-306.526
-320.464
-290.024
-300.889
-303.363
-478.105
-494.143
-490.715
-500.628
-497.768
-483.146
-448.529
-442.943
-434.667
-456.761
-449.374
-454.777
-494.519
-509.808
-511.697
-506.166
-508.475
-494.866
-490.015
-506.533
-504.018
-510.728
-509.18
-494.147
-273.028
-266.19
-262.854
-271.912
-268.297
-275.484
-255.025
-261.415
-264.535
-335.016
-339.594
-333.248
-292.595
-304.862
-311.592
-288.155
-295.892
-284.318
-318.798
-307.342
-299.131
-242.939
-249.43
-238.239
-272.615
-260.902
-254.314
-274.032
-267.77
-280.103
44.528
37.4199
33.7482