/*--------------------------------*- C++ -*----------------------------------*\
| =========                 |                                                 |
| \\      /  F ield         | OpenFOAM: The Open Source CFD Toolbox           |
|  \\    /   O peration     | Version:  5.x                                   |
|   \\  /    A nd           | Web:      www.OpenFOAM.org                      |
|    \\/     M anipulation  |                                                 |
\*---------------------------------------------------------------------------*/
FoamFile
{
    version     2.0;
    format      ascii;
    class       surfaceScalarField;
    location    "600";
    object      phi;
}
// * * * * * * * * * * * * * * * * * * * * * * * * * * * * * * * * * * * * * //

dimensions      [0 3 -1 0 0 0 0];

internalField   nonuniform List<scalar> 
13181
(
0.00041807
0.412034
0.000415044
0.412518
0.000377502
0.41253
0.000335097
0.412535
0.000260343
0.41259
-6.27059e-05
0.412816
-0.000259637
0.412696
-0.000282398
0.412524
-0.0002214
0.412438
-8.31872e-06
0.412286
0.000378179
0.412115
0.000866518
0.412011
0.00131497
0.412051
0.00158243
0.412234
0.00162119
0.41246
0.00147207
0.412648
0.00120637
0.412767
0.000884611
0.412821
0.000373977
0.413003
-6.33424e-05
0.412952
-0.000625668
0.413055
-0.000852028
0.412719
-0.000894039
0.412557
0.411533
0.000611553
0.41132
0.00166244
0.411467
0.00170363
0.412489
0.00170645
0.412532
0.00146409
0.412832
0.000629094
0.413651
-0.00047372
0.413799
-0.000812938
0.412863
-0.000754236
0.41238
-0.000339806
0.20593
0.205941
0.000441506
0.205664
0.20567
0.00146958
0.205482
0.205501
0.00241693
0.20553
0.205573
0.00297624
0.205811
0.205863
0.00304697
0.206169
0.20622
0.00239065
0.413305
0.00139829
0.41376
0.000415405
0.413804
-0.000615439
0.414034
-0.000973214
0.41331
-0.00099538
0.413077
-0.00103448
0.412758
-3.71132e-05
0.41156
0.411331
-9.01404e-05
0.411244
8.50198e-05
0.411292
0.00101988
0.411554
0.000976226
0.412576
0.00107259
0.412736
0.00118136
0.413542
-0.00024954
0.41523
-0.00118903
0.413803
-0.00065495
0.412677
-0.000831588
0.205798
-0.000523013
0.205439
-0.000123401
0.000348285
-0.000176412
0.205135
0.000523355
-0.000904735
0.205168
0.00126694
-0.00157837
0.205578
0.00181181
-0.00193213
0.206172
0.00192912
0.00185933
0.207482
-0.00147492
-0.00198864
0.207427
0.000138725
0.41548
-0.000433641
0.414376
-0.0003708
0.413971
-0.000428689
0.413368
-0.000489524
0.413138
0.000303824
0.411965
0.000352251
0.411511
0.411421
-0.000328367
0.411346
-0.000412365
0.411376
-0.00037793
0.41152
0.000300562
0.411897
0.000165515
0.412871
0.000256246
0.413451
0.000139056
0.415347
-0.000701053
0.414643
-0.00125702
0.207681
-0.0013517
0.206904
0.205584
-0.00110742
-0.205734
0.204839
-0.000579492
-0.205164
0.000904155
8.90735e-05
0.204021
0.000550748
-0.204661
-0.00127973
0.203957
0.00198388
-0.204661
-0.00250765
0.205395
0.00244129
-0.205328
-0.00166702
0.207554
0.000708333
-0.206595
-7.47944e-05
0.207618
-6.18523e-05
0.00135868
0.20758
-0.000563959
-6.03257e-05
0.207166
0.00106644
0.414669
0.000698482
0.414339
0.000225305
0.413841
0.000751461
0.412612
0.000730248
0.411986
0.000503184
0.411738
0.411578
-0.000387328
0.411457
-0.00053841
0.411527
-0.000716244
0.411697
-0.000725403
0.411906
-0.000342003
0.412487
-0.000384971
0.413494
0.0012392
0.413723
0.00129798
0.206436
0.000799021
0.207349
0.208911
6.8014e-05
0.20593
-0.00110698
-0.205628
0.000804964
0.204799
-0.00149962
-0.204572
0.00127278
0.000831865
0.00030297
-0.203169
0.101005
0.10103
-0.00171863
0.00312204
-0.202989
0.100794
0.100791
-0.00356605
0.00193474
-0.206208
0.103645
0.104194
-0.00240221
0.207574
0.00245631
-0.207628
-0.00207784
0.207969
0.00208297
-0.207974
-0.00199186
0.207629
0.00194303
0.00219447
0.415914
-0.00184545
-0.00159448
0.00131057
0.415223
0.00140992
0.413742
0.0011808
0.412841
0.000827759
0.412339
0.000578981
0.411987
0.411756
-0.000416006
0.411563
-0.000571677
0.411683
-0.000781947
0.411908
-0.00108955
0.412214
-0.00120936
0.412607
-0.00119578
0.41348
-0.0007713
0.414421
-0.00112305
0.206815
-0.00115038
0.207133
0.000610955
-0.208622
0.000878791
0.206201
0.0015259
-0.206344
-0.00138241
-0.102842
-0.000304021
0.103094
5.21955e-05
-0.100474
0.000440451
0.100589
-0.000554803
-0.0997874
-0.00104059
0.0992243
0.00160373
-0.103178
-0.00128992
0.101904
0.00256427
-0.00186954
0.00469267
-0.207888
-0.00204179
0.103362
0.103745
-0.00451593
0.208687
0.00387293
-0.208044
-0.00315807
-0.208094
0.208702
0.00255063
0.00279208
0.417534
-0.00230112
-0.00211124
0.00220461
0.41581
0.00171456
0.414232
0.00119153
0.413364
0.000844268
0.412686
0.000587194
0.412244
0.411925
-0.000431212
0.411671
-0.000592445
0.411844
-0.000782452
0.412098
-0.00105004
0.412482
-0.00145463
0.413012
-0.00178819
0.413814
-0.00119225
0.41499
-0.00116483
-0.20717
0.207551
-0.00157333
-0.207144
0.207744
-0.00265684
0.00205759
-0.206647
0.20768
0.00345279
-0.00210773
-0.00237853
-0.102558
0.0021492
0.102599
-0.00219055
-0.0501844
0.000729454
0.050021
-0.00056606
-0.000570705
-0.0476746
0.0474371
0.000808207
-0.00211104
-0.102738
0.00414154
-0.00148982
0.0505111
0.0516864
-0.00471166
-0.104008
0.104556
0.00416414
-0.00623448
-0.209763
0.21107
0.00492699
-0.00386598
-0.2094
0.21026
0.00300542
0.00317732
0.418925
-0.00226116
-0.0023065
0.00232604
0.416662
0.00153904
0.415019
0.0010276
0.413875
0.000696088
0.413018
0.000472339
0.412468
0.41201
-0.000387155
0.411747
-0.000532421
0.411989
-0.00069282
0.412258
-0.000956466
0.412745
-0.00130822
0.413364
-0.0018305
0.414336
-0.00108213
0.415534
-0.00129191
-0.20794
0.208343
-0.00148475
-0.208516
0.209244
-0.00275425
0.00202621
-0.209105
0.21063
0.00379302
-0.00260848
-0.00270988
-0.104141
0.00379684
0.105011
-0.00466625
-0.0509347
0.00432587
0.0515469
-0.00493805
-0.00648396
-0.0521907
0.052813
0.0058617
-0.00658268
-0.106626
0.107615
0.0055943
-0.00723287
-0.212784
0.214468
0.00554876
-0.00429632
-0.211287
0.212196
0.00338676
0.0029202
0.420977
-0.00233714
-0.00263538
0.00162986
0.417952
0.00103914
0.41561
0.000659016
0.414255
0.000449018
0.413228
0.000345874
0.412571
0.412051
-0.000334792
0.411805
-0.000402052
0.412056
-0.000506693
0.412363
-0.000628527
0.412867
-0.000799189
0.413534
-0.00103784
0.414575
-0.000851456
0.415955
-0.000607122
-0.208377
0.208666
-0.00114038
-0.210103
0.210604
-0.00219524
0.00169411
-0.212063
0.213005
0.00284632
-0.00203999
-0.0017485
-0.107412
0.00297684
0.107996
-0.00356108
-0.0553014
0.0033209
0.0556434
-0.00366296
-0.00551914
-0.0573905
0.05789
0.00501966
-0.00503513
-0.110394
0.111212
0.00421664
-0.00492379
-0.216049
0.217243
0.00372948
-0.0028191
-0.213004
0.213611
0.00221254
0.0019413
0.421831
-0.00113574
-0.00165977
0.000864983
0.419028
0.000297265
0.416177
0.000158277
0.414394
9.82262e-05
0.413288
8.23041e-05
0.412587
0.411963
-0.000241491
0.41182
-0.000291866
0.412107
-0.000308105
0.412379
-0.000336548
0.412896
-0.000291932
0.41349
-0.00021172
0.414495
-0.000147718
0.41578
0.000110229
-0.208915
0.209159
-0.000391677
-0.21085
0.210838
-0.000394717
0.000406961
-0.213424
0.213279
0.000311911
-0.000258444
9.19785e-05
-0.108886
0.000330331
0.10887
-0.000313918
-0.0567436
0.000216704
0.0567258
-0.000198871
-0.00112163
-0.0598648
0.0599232
0.00106318
-0.00107854
-0.112679
0.112826
0.000930815
-0.000765208
-0.217932
0.218044
0.00065324
-0.00056856
-0.213994
0.214113
0.000450469
0.000264501
0.421649
0.000208872
-0.000291281
0.000407496
0.418885
-0.000287545
0.416872
-0.000456688
0.414564
-0.000295254
0.413126
-0.000183688
0.412475
0.411785
-0.000168432
0.411821
-0.000162672
0.412101
-0.000123153
0.412339
-7.31164e-06
0.41278
0.000131616
0.413351
0.000506665
0.41412
0.000458924
0.415269
0.000558844
-0.209188
0.209129
0.000518211
-0.210588
0.210131
0.00128396
-0.000826749
-0.212631
0.211634
-0.00198051
0.00135775
0.00161969
-0.107994
-0.00203992
0.107493
0.00254064
-0.055435
-0.00241341
0.0551406
0.00270776
0.00311415
-0.0587994
0.0584821
-0.00279686
0.0029243
-0.112185
0.1117
-0.00243966
0.00329551
-0.217609
0.216741
-0.00242769
0.00172224
-0.213918
0.213489
-0.00129285
-0.00139032
0.420617
0.00139018
0.00103221
-0.000661907
0.418157
-0.000229233
0.41644
-0.00105445
0.415389
-0.000747222
0.412819
-0.000467532
0.412196
0.411523
-8.57767e-05
0.411799
-1.77271e-05
0.412033
7.36742e-05
0.412248
0.000242773
0.412611
0.000555604
0.413038
0.00109581
0.413579
0.000809969
0.414673
0.000881853
-0.208833
0.208521
0.00112234
-0.209561
0.208948
0.00218685
-0.00157427
-0.210431
0.209222
-0.00304961
0.00211682
0.00214228
-0.105726
-0.00303754
0.105126
0.00363794
-0.0528725
-0.00318981
0.0525545
0.00350784
0.00505594
-0.055736
0.0553241
-0.00464403
0.005162
-0.10965
0.108886
-0.00439797
0.00583865
-0.215461
0.213947
-0.00432393
0.00329791
-0.212853
0.21211
-0.0025548
-0.00249886
0.418966
0.00215753
0.00199266
-0.00146477
0.417123
-0.000762429
0.415737
-0.000401311
0.415028
-0.00113981
0.413558
-0.000761622
0.411818
0.411177
-2.66459e-05
0.411768
5.96101e-05
0.411947
0.000170009
0.412138
0.000383188
0.412397
0.000690076
0.412731
0.00121748
0.413052
0.00098279
0.413947
0.000961243
-0.208176
0.207843
0.00131525
-0.208348
0.207826
0.00220545
-0.00168321
-0.208109
0.207215
-0.00288205
0.00195272
0.00182337
-0.103556
-0.00265
0.10316
0.00304616
-0.0507101
-0.00242869
0.0505399
0.00259892
0.00473879
-0.0524213
0.0520447
-0.0043622
0.00517569
-0.10664
0.105987
-0.00452264
0.00610998
-0.2123
0.210935
-0.00474518
0.00373421
-0.211345
0.210609
-0.00299787
-0.0029255
0.417276
0.00229885
0.00231607
-0.0018158
0.416013
-0.00103335
0.414955
-0.000843585
0.414838
-0.00130171
0.414016
-0.00101953
0.411535
0.410772
2.74794e-05
0.411719
8.89584e-05
0.411885
0.000211699
0.412015
0.000378415
0.412231
0.000632101
0.412477
0.000991509
0.412693
0.00142608
0.413512
0.00127941
0.414543
0.000814454
-0.20758
-0.207632
-0.207427
0.207188
0.00151805
-0.206581
0.207086
0.000965984
-0.00147137
-0.102778
0.000197025
0.104007
-0.00142535
-0.0511963
0.00210518
0.0504305
-0.00133942
-0.0200268
0.000726955
0.0201264
-0.000826501
0.00177176
-0.0505402
0.101652
-0.00365095
0.00153086
-0.0507633
-0.104594
0.00363213
0.104385
-0.00342305
0.00467144
-0.209887
0.209093
-0.00387747
0.00320395
-0.210054
0.209845
-0.00299561
-0.00276
0.415989
0.00191885
0.00212865
-0.00180028
0.415053
-0.00109129
0.414246
-0.00154513
0.415292
-0.000268922
0.412739
-0.00111435
0.412381
0.410448
1.06102e-05
0.411706
5.46763e-05
0.411841
0.000125207
0.411944
0.000219519
0.412136
0.000387526
0.412309
0.000507066
0.412573
5.59768e-05
0.413963
-0.00071714
0.417037
-0.00172068
-0.207724
0.208624
-0.00161729
-0.207731
0.206994
-0.000926352
0.00166362
-0.102727
-0.000242656
0.10262
0.000349885
-0.101399
0.000254511
0.101757
-0.000612928
-0.046058
0.00202073
0.0946116
-0.00271191
-0.0478624
-0.102949
0.00311386
0.102705
-0.0028695
-0.207507
0.0033872
0.207974
-0.00617517
0.00232101
0.00575222
-0.208652
0.208096
-0.00519589
-0.0065224
0.415529
0.00332433
0.00476629
-0.210518
-0.206579
-0.00520627
0.414673
-0.00420672
0.414054
-0.00329728
0.413336
-0.000774059
0.412768
-0.000273392
0.412239
0.000127616
0.41198
0.411514
-4.51156e-06
0.411713
-9.12891e-06
0.411846
1.16137e-07
0.411935
3.60776e-05
0.4121
4.58957e-05
0.412299
-0.000154426
0.412773
-0.00140984
0.415219
-0.00173693
0.417389
-2.42811e-05
-0.208562
0.207345
-0.000519039
-0.206555
0.206636
-1.24663e-05
-6.83424e-05
-0.205881
0.206342
-0.000747322
0.000286448
-0.102549
0.000688129
0.102715
-0.000853852
-0.0959529
0.00140258
0.0963922
-0.00184188
-0.102674
0.00200917
0.20594
-0.00440949
-0.102792
0.00192637
-0.207562
0.00480824
0.207263
-0.00450958
-0.207748
0.0042771
0.207451
-0.00397987
-0.00497494
0.413797
0.00314824
0.0035588
-0.00359374
0.413291
-0.00305516
0.413515
-0.00272653
0.413008
-0.00238732
0.412429
-0.00200658
0.411858
-0.00150091
0.411474
0.411064
-5.67627e-05
0.411766
-6.80438e-05
0.411857
-9.86679e-05
0.411966
-0.000141067
0.412143
-0.000233671
0.412392
-0.000842011
0.413382
-0.0017184
0.416095
-0.000536675
0.416207
-0.000331035
0.414658
-0.207357
-0.207062
-0.000445155
-0.206834
0.206979
-0.000476205
-0.206727
0.207051
-0.00103392
0.000709903
-0.206164
0.00142589
0.206489
-0.00175077
-0.197953
0.00226777
0.198638
-0.00295287
-0.206375
0.00323293
0.206516
-0.00337368
-0.207023
0.00334699
0.206904
-0.00322843
-0.207247
0.00314947
0.20709
-0.00299244
-0.00483753
0.413216
0.00264612
0.00277213
-0.00404699
0.412501
-0.00323668
0.412705
-0.00239918
0.41217
-0.00165036
0.41168
-0.00130081
0.411508
-0.0011579
0.411331
0.411043
-9.51421e-05
0.41184
-0.000157145
0.411919
-0.000246173
0.412055
-0.000335408
0.412232
-0.000602162
0.412659
-0.00169483
0.414474
-0.00177242
0.416173
-0.00094224
0.415377
-0.00130707
0.415023
-0.000947102
0.415027
-0.207155
-0.207194
-0.00103853
-0.207326
0.207567
-0.00118848
-0.206743
0.00151992
0.206759
-0.00153621
-0.199153
0.0019723
0.199701
-0.00252031
-0.206646
0.00242857
0.206766
-0.00254828
-0.00486191
0.413741
-0.206892
-0.206895
0.00237383
0.00253441
-0.00460728
0.413616
-0.206962
-0.206908
-0.0042148
0.412824
-0.00384094
0.412127
-0.00313533
0.411999
-0.00251168
0.411547
-0.00198448
0.411153
-0.00154489
0.411069
-0.000951657
0.410738
0.411282
-0.000137392
0.411934
-0.000246565
0.412028
-0.000342302
0.412151
-0.000466962
0.412357
-0.000685135
0.412877
-0.00152847
0.415318
-0.00125388
0.415898
-0.00100825
0.415131
-0.00145879
0.415474
-0.00206336
0.415632
-0.00263772
0.41603
-0.207792
-0.207663
-0.00332662
0.409912
-0.206233
-0.20299
-0.00396441
0.406222
-0.200685
-0.204899
-0.00413235
0.414218
-0.206926
-0.207125
-0.00412347
0.413732
-0.00398172
0.413474
-0.00370532
0.412547
-0.00340632
0.411828
-0.00289507
0.411488
-0.00244382
0.411095
-0.00210844
0.410818
-0.00159927
0.41056
-0.00116682
0.410305
0.411335
-0.000180093
0.412043
-0.000286745
0.412135
-0.000427283
0.412291
-0.000576985
0.412506
-0.000799051
0.413099
-0.0013037
0.415822
-0.00117709
0.415771
-0.00115221
0.415106
-0.00149678
0.415818
-0.00194381
0.416079
-0.00235569
0.416441
-0.00283683
0.410393
-0.00329006
0.406676
-0.00348134
0.41441
-0.00355689
0.413808
-0.00347674
0.413394
-0.00328823
0.412359
-0.00304323
0.411583
-0.00267246
0.411117
-0.00230608
0.410729
-0.00197405
0.410486
-0.00158995
0.410176
-0.00122843
0.409944
0.411338
-0.000221091
0.412166
-0.000365602
0.412279
-0.000522038
0.412447
-0.000688223
0.412673
-0.000857671
0.413268
-0.00107795
0.416043
-0.00112738
0.415821
-0.00121848
0.415197
-0.00150761
0.416107
-0.00186502
0.416436
-0.0021699
0.416746
-0.00252411
0.410747
-0.00286615
0.407018
-0.00301814
0.414562
-0.00311437
0.413904
-0.00306383
0.413343
-0.00292866
0.412224
-0.00274994
0.411404
-0.00247425
0.410842
-0.0021755
0.41043
-0.00188137
0.410192
-0.00154865
0.409843
-0.00123247
0.409628
0.411334
-0.000259179
0.412297
-0.000414607
0.412435
-0.000558875
0.412592
-0.000734889
0.412849
-0.000911314
0.413445
-0.00101976
0.416151
-0.0011531
0.415954
-0.00138811
0.415432
-0.00149252
0.416212
-0.00178408
0.416728
-0.00202449
0.416987
-0.0022804
0.411003
-0.00253513
0.407272
-0.0026677
0.414694
-0.00275014
0.413986
-0.00272188
0.413315
-0.00262802
0.41213
-0.00250211
0.411278
-0.00225909
0.410599
-0.00205871
0.41023
-0.00176988
0.409903
-0.0015041
0.409577
-0.00125094
0.409375
0.411297
-0.000316422
0.412457
-0.000433834
0.412552
-0.000606716
0.412765
-0.000764934
0.413007
-0.000942747
0.413623
-0.00104739
0.416256
-0.00117911
0.416086
-0.00139019
0.415643
-0.00145562
0.416277
-0.00169581
0.416968
-0.00188861
0.41718
-0.00207838
0.411193
-0.00227237
0.407466
-0.00238237
0.414804
-0.00245406
0.414058
-0.00243691
0.413298
-0.00236791
0.412061
-0.00225077
0.411161
-0.00209419
0.410442
-0.00191398
0.41005
-0.00166584
0.409655
-0.00143796
0.409349
-0.0011982
0.409135
0.411291
-0.000325076
0.412599
-0.00049161
0.412719
-0.000644521
0.412918
-0.00080399
0.413166
-0.000979428
0.413798
-0.00105493
0.416331
-0.00118373
0.416215
-0.00137174
0.415831
-0.00152019
0.416426
-0.00161386
0.417062
-0.00176686
0.417333
-0.00190821
0.411334
-0.00205728
0.407615
-0.00214991
0.414897
-0.00221052
0.414119
-0.00220029
0.413288
-0.00214729
0.412008
-0.00205826
0.411072
-0.00191074
0.410295
-0.00176366
0.409903
-0.00159365
0.409485
-0.00139723
0.409153
-0.00121078
0.408948
0.411245
-0.000353086
0.412741
-0.000498597
0.412864
-0.000674166
0.413093
-0.000832365
0.413324
-0.000980577
0.413946
-0.00104803
0.416399
-0.00117632
0.416343
-0.00134297
0.415998
-0.00151699
0.4166
-0.00153143
0.417076
-0.00165857
0.41746
-0.00175386
0.41143
-0.0018801
0.407742
-0.00194432
0.414961
-0.0020049
0.414179
-0.00199954
0.413282
-0.00196298
0.411971
-0.00189692
0.411006
-0.00179545
0.410193
-0.00167456
0.409782
-0.00148701
0.409297
-0.00131682
0.408983
-0.0011564
0.408788
0.411222
-0.000378283
0.412884
-0.000523429
0.41301
-0.00067461
0.413244
-0.000829862
0.41348
-0.000994834
0.414111
-0.00105378
0.416458
-0.00115742
0.416447
-0.00130719
0.416148
-0.00146198
0.416754
-0.00171576
0.41733
-0.00175463
0.417499
-0.00179614
0.411471
-0.00185021
0.407796
-0.00190184
0.415013
-0.00193469
0.414212
-0.00193006
0.413278
-0.00191036
0.411952
-0.00187314
0.410969
-0.00183463
0.410155
-0.0016227
0.40957
-0.00145754
0.409132
-0.0012865
0.408812
-0.00112569
0.408627
0.411196
-0.00040113
0.413025
-0.000544484
0.413153
-0.000670072
0.41337
-0.000843938
0.413654
-0.000979791
0.414247
-0.00105288
0.416531
-0.00113548
0.416529
-0.00127029
0.416283
-0.00152054
0.417005
-0.00173676
0.417546
-0.00182932
0.417591
-0.00189001
0.411532
-0.00196781
0.407874
-0.00202642
0.415071
-0.00206013
0.414246
-0.00205537
0.413273
-0.00202941
0.411926
-0.00196188
0.410901
-0.00189253
0.410085
-0.00180702
0.409484
-0.00168109
0.409006
-0.0015716
0.408702
-0.00142876
0.408484
0.41083
-0.000421986
0.413164
-0.000562595
0.413293
-0.000706942
0.413514
-0.000831042
0.413778
-0.000960304
0.414376
-0.00102531
0.416596
-0.00111308
0.416617
-0.00134354
0.416513
-0.00155896
0.41722
-0.00167898
0.417666
-0.00175185
0.417664
-0.00179803
0.411578
-0.00186145
0.407937
-0.00190634
0.415116
-0.00193593
0.414275
-0.00193353
0.41327
-0.00191129
0.411903
-0.00187132
0.410861
-0.00179042
0.410004
-0.00171701
0.409411
-0.00162724
0.408916
-0.00150916
0.408584
-0.00140299
0.408378
0.410456
-0.000441261
0.413299
-0.000555825
0.413408
-0.000695828
0.413654
-0.0008152
0.413897
-0.000960556
0.414522
-0.00101821
0.416653
-0.00119596
0.416795
-0.00141786
0.416735
-0.00152218
0.417324
-0.0016237
0.417768
-0.00168929
0.41773
-0.00171997
0.411609
-0.00177038
0.407987
-0.00181044
0.415156
-0.00183504
0.4143
-0.00183248
0.413268
-0.00181265
0.411884
-0.00177609
0.410825
-0.00172546
0.409954
-0.00163901
0.409324
-0.00153799
0.408815
-0.00147504
0.408521
-0.00135817
0.408261
0.410091
-0.000436583
0.413408
-0.000592521
0.413564
-0.00070529
0.413767
-0.000842595
0.414034
-0.000936695
0.414616
-0.00112344
0.41684
-0.00131324
0.416985
-0.00139508
0.416817
-0.00148966
0.417419
-0.00158022
0.417858
-0.00163187
0.417781
-0.00165443
0.411631
-0.00169233
0.408025
-0.00172663
0.415191
-0.0017519
0.414325
-0.00174669
0.413263
-0.00173081
0.411868
-0.00169606
0.41079
-0.00165166
0.409909
-0.0015722
0.409245
-0.00150197
0.408745
-0.00140248
0.408422
-0.00131677
0.408176
0.409735
-0.000475876
0.413535
-0.000582558
0.413671
-0.000690705
0.413875
-0.00082362
0.414167
-0.0010707
0.414863
-0.0013647
0.417134
-0.00129853
0.416918
-0.00137283
0.416891
-0.00145725
0.417503
-0.00154155
0.417943
-0.00158805
0.417828
-0.0016002
0.411643
-0.00163225
0.408057
-0.00166216
0.415221
-0.00167974
0.414343
-0.00167868
0.413262
-0.00166407
0.411853
-0.00162988
0.410756
-0.00156775
0.409847
-0.00153795
0.409215
-0.00145189
0.408659
-0.0013806
0.40835
-0.0013015
0.408096
0.409361
-0.000468663
0.413634
-0.000594041
0.413796
-0.000720115
0.414001
-0.000803944
0.414251
-0.00149897
0.415558
-0.00133527
0.41697
-0.00128802
0.416871
-0.00135649
0.41696
-0.00143439
0.417581
-0.00150979
0.418018
-0.00155046
0.417868
-0.00155633
0.411649
-0.00157985
0.408081
-0.00160856
0.415249
-0.00162612
0.41436
-0.00162211
0.413258
-0.00160837
0.411839
-0.00157612
0.410724
-0.00153975
0.409811
-0.00146886
0.409144
-0.00143224
0.408622
-0.00134252
0.408261
-0.00126811
0.408022
0.408991
-0.000505075
0.413751
-0.000581664
0.413873
-0.000703154
0.414123
-0.00119174
0.41474
-0.00151965
0.415886
-0.00135261
0.416803
-0.00127726
0.416796
-0.00134164
0.417024
-0.00141396
0.417654
-0.00148488
0.418089
-0.0015186
0.417902
-0.00152218
0.411653
-0.00154318
0.408102
-0.00156702
0.415273
-0.0015828
0.414376
-0.00158041
0.413255
-0.00156743
0.411826
-0.00153384
0.41069
-0.00150025
0.409777
-0.00145367
0.409098
-0.00137607
0.408545
-0.0013108
0.408195
-0.0012173
0.407929
0.408644
-0.000494176
0.41384
-0.000613217
0.413992
-0.000707529
0.414217
-0.00130777
0.41534
-0.00147246
0.416051
-0.00132632
0.416657
-0.00127084
0.41674
-0.00133079
0.417084
-0.00139809
0.417721
-0.00146613
0.418157
-0.0014985
0.417934
-0.00149738
0.411652
-0.00151491
0.408119
-0.0015364
0.415295
-0.00155127
0.414391
-0.00154772
0.413252
-0.00153579
0.411814
-0.00150202
0.410656
-0.00147096
0.409746
-0.00142492
0.409052
-0.00137259
0.408492
-0.00128553
0.408108
-0.00121628
0.407859
0.408275
-0.000502192
0.413922
-0.000597919
0.414087
-0.00068693
0.414306
-0.00115246
0.415805
-0.00140203
0.4163
-0.0013482
0.416603
-0.00126394
0.416656
-0.00132743
0.417147
-0.00138901
0.417783
-0.00145501
0.418223
-0.00148364
0.417963
-0.00148232
0.41165
-0.00149712
0.408134
-0.00151874
0.415316
-0.00153413
0.414406
-0.00152584
0.413243
-0.00151858
0.411807
-0.00150304
0.410641
-0.00145276
0.409696
-0.00140528
0.409004
-0.00133388
0.408421
-0.0012897
0.408064
-0.00120033
0.40777
0.407902
-0.000530049
-0.000625953
-0.000687436
-0.00092863
-0.00108215
-0.00134904
-0.00126117
-0.00132464
-0.00137742
-0.00144477
-0.0014711
-0.00147508
-0.0014883
-0.00150574
-0.00152082
-0.00151229
-0.00150736
-0.00146693
-0.00144209
-0.00139236
-0.00134615
-0.00125508
-0.00121198
0.0036688
-0.00405745
-0.0549127
0.0576748
0.00592992
-0.0570489
-0.00322663
-0.00332913
-0.0517402
-0.00717455
0.0524307
0.000626882
-0.000649385
-0.0567211
0.0603902
0.00172729
-0.060261
-0.000866549
-0.000989919
0.0582267
-0.00298986
-0.00308123
-0.00217564
0.00245519
-0.0557145
0.0591318
-0.00269764
-0.0594782
0.00156638
0.00147758
0.060457
-0.000532227
-0.000656254
-0.00319037
0.00351124
-0.0531934
0.0557364
-0.00496711
-0.0561909
0.00542164
0.0587605
0.00178203
0.00170346
-0.00257529
0.00278848
-0.0509233
0.052132
-0.00489578
-0.0525589
0.00532273
0.00553834
0.055254
0.0022123
-0.00294089
-0.0504677
-0.000814179
0.0216334
0.000514598
-0.0108169
-0.0105169
-0.00102801
-0.00942597
-0.010387
0.0501769
-0.00260549
-0.0501262
0.00255473
0.00509354
0.0517772
0.00409597
-0.00456758
-0.0504631
-0.0474075
-3.17941e-05
0.0468686
0.00600083
-0.0511536
-0.00658741
-0.0500958
-0.00237056
0.0503553
0.00346887
-0.004204
-0.106677
0.05506
-0.0547138
0.00332252
-0.05142
0.00385161
0.0518942
0.0138961
0.0055764
-0.0274355
0.0139524
-0.0029611
-0.0030283
0.00501564
-0.0241839
-0.00544353
0.0246118
0.00537235
-0.0568329
0.111061
0.00575966
-0.109952
-0.00686819
-0.10637
-0.00775568
0.107543
0.00103991
-0.00117651
-0.108749
0.0564141
-0.0563897
0.000602481
0.00300456
0.0553764
0.056377
0.00222436
-0.00242139
-0.05618
0.0288799
-0.000773896
-0.0288207
0.00143751
-0.000722844
-0.0283885
-0.00246975
0.0023735
0.0284848
0.0148461
0.000481259
-0.0152278
-9.95629e-05
-0.0148758
0.00233079
-0.00255885
0.0151039
0.00160981
-0.0597473
0.113755
0.00217797
-0.113405
-0.00252772
-0.00601927
0.112045
-0.00154993
0.00197041
-0.108414
0.0552943
-0.0555444
-0.0019256
0.000219396
0.0564114
0.0563993
-0.000945999
0.00109317
-0.0565465
0.0294105
0.000620116
-0.0294939
-0.000899143
0.000362483
-0.0294672
-0.000119777
0.000140043
0.029453
-6.06782e-06
0.013923
2.1372e-05
-0.0138986
-4.57922e-05
-0.0139293
5.39816e-05
0.0139481
-7.27516e-05
-0.00240561
-0.0590914
0.113014
-0.00201491
-0.113493
0.00249387
-0.00121137
0.113887
-0.00294213
0.00354978
-0.106334
0.0529463
-0.0532448
-0.00289193
-0.00214911
0.05503
0.0541802
-0.00292932
0.00325969
-0.0545105
0.0022804
0.0272703
-0.0273879
-0.00216288
-0.0282457
0.00098706
-0.00183002
0.0280786
0.00100999
0.0154111
-0.00196262
-0.015788
0.00233952
-0.0146066
-0.000411788
6.86795e-05
0.0149497
-0.00452147
-0.0561817
0.109902
-0.00474465
-0.110808
0.00565104
0.00353999
0.112399
0.0266244
-0.00367319
-0.0267642
0.00192198
0.00189093
-0.0139612
-0.00180274
0.00184298
0.013921
-0.00450605
-0.052811
0.106334
-0.00534834
-0.107171
0.00618628
0.00607267
0.108991
0.0242519
-0.00266664
-0.0243595
0.00277418
-0.025359
-0.00336134
0.00351609
0.0252043
3.92948e-06
-0.000419317
-0.100984
-0.00107625
0.0475048
-0.0471173
0.000688754
0.000537989
0.0218223
-0.0016329
-0.0455013
-0.0033879
0.10256
-0.102962
0.00378942
0.00157774
0.0503709
-0.00253756
-0.0283419
0.00249094
-0.00366373
-0.0271172
0.0034284
0.0273526
-0.0534236
0.00443368
0.0539621
-0.00497221
-0.0271884
0.0274615
-0.0019871
-0.00194978
0.0284554
-0.0285336
-0.00124355
-0.00121575
0.00368101
-0.0244351
0.0247652
-0.00401109
0.0037746
-0.00401868
-0.0269443
0.00207197
-0.0149699
-0.00197791
0.00277968
-0.00286109
0.0139775
-0.05489
0.00681471
-0.00757587
0.0556511
-0.027687
-0.00274597
0.0280326
0.00518
0.0149345
0.0020726
-0.0149352
-6.59119e-05
-0.0294858
0.000278298
-0.000193784
-0.000786394
0.00138195
0.0291142
-0.000829877
0.00182768
0.0565368
-0.00198747
-0.0143794
0.0144994
-0.000906435
0.0150346
-8.87346e-05
-0.0150117
0.0143072
0.0143163
-0.00126262
-0.00137532
-0.000791976
-0.0143613
-2.07329e-05
-0.014006
9.73522e-05
0.000770198
-0.00030228
0.0143782
-0.0594993
0.00347936
0.0598143
-0.00184067
-0.00195373
-0.0149832
0.0146962
0.00105719
0.0152922
0.000102808
-0.0154157
0.0151062
0.00215915
0.000818533
-0.0153204
0.00403492
-0.0591376
-0.00214226
-0.00225438
0.000997142
-0.0284046
-0.00174735
0.000909187
0.000585353
-0.00111212
0.029121
0.000816232
-0.00128881
0.0561969
0.00149125
-0.0152201
0.0150338
0.000771648
0.0142698
0.00107623
-0.0143489
0.0149837
-6.89532e-05
0.000595109
-0.0151951
-0.000703394
-0.0141954
0.000292255
-1.13344e-05
0.013936
-1.71723e-06
-0.0602466
-0.00122276
0.0600432
0.000766875
0.00065927
-0.0152975
0.0153773
-9.12207e-05
0.0147768
-0.000957875
-0.0145223
0.0152298
0.000116423
-6.81063e-05
-0.015208
-0.000667053
-0.0603848
0.000458953
0.000346315
-0.0272708
-0.00229491
0.0271972
0.00114953
0.00121897
0.0262958
-0.00235644
0.00245578
-0.0263951
0.0141487
0.00110821
-0.0273587
0.00118882
0.00117942
-0.00186511
-0.0140499
0.00195379
-0.00214089
0.00270245
0.0148496
-0.0575262
-0.00438378
0.0570851
0.00242826
0.00239658
-0.0151855
0.0148566
-0.00181198
0.0278844
0.00184117
-0.00346229
-0.0281284
0.0150777
-0.00071272
-0.00173071
-0.0154174
-0.00413041
-0.0579544
0.00230632
0.00225229
-0.0254313
-0.00210157
0.0253402
0.00219262
0.0247963
-0.0017634
0.00183505
-0.0248679
-0.0023515
0.0262294
0.00241793
-0.0021445
0.00224931
-0.0255361
-0.00339934
-0.0255311
0.00357146
-0.00366978
0.0264496
0.00193875
0.00190589
0.00178674
0.0277547
-0.00345982
0.0267005
-0.00351864
-0.026855
0.0538935
-0.00525043
-0.054334
0.0056909
-0.0242787
-0.00107676
0.0242278
0.00112769
0.0243918
1.76858e-05
7.88294e-06
-0.0244174
-0.00169069
0.0247163
0.00177065
-0.00119617
0.00123303
-0.0243156
0.0242527
-0.000855114
-0.0245807
0.00118316
-0.00254294
0.00265823
0.0241366
0.00452667
-0.00512637
-0.0528239
-0.0268722
0.00352958
-0.0247856
0.00343431
0.0250323
0.012933
0.00385444
-0.0169718
0.000184425
0.00352169
-0.0112134
-0.00374837
0.0114401
-0.00282715
0.00329455
-0.104023
0.0509354
-0.0511316
-0.00237916
-0.00289404
0.0526506
0.0516725
-0.00304643
0.00332242
-0.0519485
0.0255096
-0.0256036
-0.0020505
-0.0263424
-0.00225552
0.0262464
0.0123309
-0.00197038
-0.012513
0.00215257
-0.0127486
-0.00212806
0.00229273
0.012584
-0.00258493
-0.0505607
-0.00411974
0.103949
-0.10437
0.00454098
0.00594161
0.105568
-0.0113405
0.00270898
0.0116595
-0.00302797
0.0133165
0.00300549
-0.00300448
-0.0133175
-0.0246266
0.0249731
0.0046691
0.00525478
-0.0273654
0.00687559
-0.0540565
-0.00770904
-0.0264559
-0.0022429
-0.00218939
0.0271648
-0.00304187
0.0538507
0.00337134
-0.0118235
-0.00020482
0.0120754
-4.70983e-05
0.012744
-0.000678166
0.000218898
-0.0122848
-0.0123483
-0.00118301
0.0122583
0.00127309
0.0124405
-0.00118315
0.00126377
-0.0125212
-0.000493776
0.0131307
0.0001071
-0.00142687
0.0125893
0.00122677
-0.0123892
-0.00197184
-0.0125845
0.00180769
-0.00259099
-0.0118564
0.00227554
0.0121718
-0.00519812
0.00565936
0.0534323
0.0265426
-0.00351194
0.0254953
-0.00324302
-0.0256517
-0.00110689
0.0122538
0.00129363
0.0120833
-0.000920211
0.000936774
-0.0120999
0.0253464
-0.0032124
0.024452
-0.00258029
-0.0245383
0.0507618
-0.00396898
-0.0510779
0.00428509
0.00018381
-0.0238527
0.000261599
0.0234073
0.00195052
-0.04877
0.0243058
0.0236897
-0.000722809
-0.000453198
0.00337952
-0.00366266
-0.024152
0.00462445
-0.0238377
-0.00497058
0.00360141
-0.0476948
-0.00161454
-0.00220802
0.0235276
0.0243884
-0.0245881
0.0242291
0.000542815
0.00353215
0.00936864
3.21698e-05
-0.0260633
0.00573988
0.0265472
-0.00309628
-0.00312752
-0.0134536
0.0130123
0.00397347
-0.0113849
0.0115542
0.00335241
0.00404653
-0.0136457
0.00567446
-0.0256018
-0.0061359
-0.0151687
0.00287061
-0.00388648
0.0161845
0.00249877
-0.0148005
-0.00286694
-0.0138437
-3.72032e-05
0.0137847
9.61317e-05
-2.32432e-05
-0.0138585
3.80626e-05
-0.014642
-0.00223969
0.00267149
0.0142102
-0.00261107
-0.0156704
0.0036395
-0.0136524
-0.00361319
0.0272034
-0.0137179
0.0019394
0.0018407
0.0139323
-0.00141375
-0.0124747
-4.37914e-05
-0.00183292
-0.0137014
0.00188189
0.0117551
-0.00158511
-0.0117513
0.00158133
-0.00192264
0.0020608
0.0121927
-0.0126603
0.0125583
-0.00202608
0.0122365
-0.00186248
-0.0123444
0.0247465
-0.00308278
-0.0248963
0.00323263
0.001246
-0.0127429
0.0115036
-6.76731e-06
0.0280493
0.00324786
-0.0278653
-0.00172065
-0.00171126
0.0114981
-0.0123543
0.000914833
-5.86445e-05
-0.0139532
0.00202159
0.0131776
0.00253039
0.00896548
2.2286e-06
0.00314869
0.0283514
-0.00175795
-0.00169283
-0.00165778
-0.014387
0.00209158