/*--------------------------------*- C++ -*----------------------------------*\
| =========                 |                                                 |
| \\      /  F ield         | OpenFOAM: The Open Source CFD Toolbox           |
|  \\    /   O peration     | Version:  5.x                                   |
|   \\  /    A nd           | Web:      www.OpenFOAM.org                      |
|    \\/     M anipulation  |                                                 |
\*---------------------------------------------------------------------------*/
FoamFile
{
    version     2.0;
    format      ascii;
    class       volVectorField;
    location    "600";
    object      U;
}
// * * * * * * * * * * * * * * * * * * * * * * * * * * * * * * * * * * * * * //

dimensions      [0 1 -1 0 0 0 0];

internalField   nonuniform List<vector> 
6584
(
(45.0025 -0.00672786 1.59964e-25)
(45.0019 -0.0148535 7.77705e-24)
(45.0024 -0.0203275 7.22175e-29)
(45.0025 -0.02789 -1.41558e-23)
(45.0029 -0.0359924 0)
(45.0029 -0.0449437 0)
(45.0026 -0.0538218 0)
(45.0008 -0.0593857 1.49745e-23)
(44.9979 -0.0589894 1.49708e-23)
(44.9932 -0.0460258 0)
(44.9882 -0.0121532 4.57581e-24)
(44.9847 0.0403658 -1.02763e-23)
(44.9858 0.0986892 -4.49237e-25)
(44.9913 0.143373 1.10501e-24)
(44.9976 0.162572 3.02698e-25)
(45.0043 0.156917 3.91798e-23)
(45.0073 0.137286 3.47512e-23)
(45.0082 0.113029 2.82795e-24)
(45.0076 0.0887015 2.38843e-23)
(45.0066 0.0672955 1.70779e-23)
(45.0053 0.0499035 0)
(45.0046 0.0350203 0)
(45.0034 0.0247133 2.50847e-23)
(45.0042 0.0109312 1.53253e-23)
(45.0105 -0.0140993 -7.5816e-24)
(45.0091 -0.0298435 -2.94515e-23)
(45.0112 -0.040044 -3.98709e-23)
(45.0123 -0.0552993 0)
(45.0141 -0.0716638 -5.64229e-24)
(45.0144 -0.0902725 -4.5881e-23)
(45.0127 -0.109743 -2.82851e-23)
(45.0041 -0.12317 4.80435e-23)
(44.9918 -0.125152 -3.13372e-24)
(44.9594 -0.101248 -9.70804e-24)
(44.9209 -0.0323148 -2.71093e-27)
(44.8963 0.0783913 0)
(44.9036 0.203184 2.3996e-23)
(44.9415 0.297371 1.2545e-23)
(44.9908 0.337057 -8.81641e-23)
(45.0234 0.322889 -2.33637e-23)
(45.0364 0.278389 -5.33689e-23)
(45.0402 0.226505 -6.9461e-23)
(45.0371 0.17582 -1.76424e-22)
(45.0316 0.132344 -1.4447e-22)
(45.0255 0.0978521 -1.01896e-23)
(45.0213 0.0682305 -4.23283e-24)
(45.0165 0.0491184 0)
(45.0174 0.0226514 1.34222e-23)
(45.0231 -0.0215364 -1.91102e-23)
(45.0223 -0.0439511 0)
(45.027 -0.0580545 -8.01153e-24)
(45.0306 -0.0809747 -5.19274e-23)
(45.0355 -0.10608 -8.04347e-23)
(45.0377 -0.136218 0)
(45.0347 -0.171258 0)
(45.0159 -0.197963 -1.1874e-23)
(44.98 -0.22709 -5.90191e-24)
(44.9253 -0.151557 4.32613e-24)
(44.8608 -0.0673761 -7.64506e-24)
(44.8113 0.0777014 -1.07953e-23)
(44.8191 0.253767 0)
(44.8873 0.390943 0)
(44.9738 0.451827 1.28535e-24)
(45.0603 0.517944 -9.68383e-23)
(45.0955 0.427882 0)
(45.1032 0.339563 -3.18981e-23)
(45.0933 0.257774 0)
(45.0779 0.190849 -2.34998e-23)
(45.0624 0.139914 -6.13517e-23)
(45.0508 0.0965292 -3.61505e-23)
(45.0399 0.07059 0)
(45.0379 0.0337848 1.04106e-23)
(45.0384 -0.0283085 -1.16429e-23)
(45.0399 -0.0559178 0)
(45.0482 -0.0730335 -1.07509e-23)
(45.0564 -0.103096 0)
(45.0671 -0.136993 0)
(45.0752 -0.180961 0)
(45.0746 -0.237623 -2.59394e-23)
(45.0502 -0.293125 1.57394e-22)
(44.9829 -0.365561 -1.1654e-23)
(44.8774 -0.288076 1.27155e-23)
(44.7362 -0.190371 -8.03239e-24)
(44.5952 0.0426423 1.52366e-24)
(44.5859 0.380309 2.04325e-24)
(44.7474 0.642178 0)
(44.9485 0.716269 -1.44626e-22)
(45.0902 0.649453 0)
(45.2081 0.584133 0)
(45.2031 0.450142 2.22076e-22)
(45.1776 0.329264 1.43362e-22)
(45.1432 0.237822 -4.72501e-23)
(45.1129 0.172025 -3.23758e-23)
(45.0896 0.117038 0)
(45.0702 0.0864659 1.53273e-23)
(45.0621 0.0427812 1.22474e-23)
(45.0553 -0.0336865 -4.45308e-24)
(45.0605 -0.0644635 -2.69231e-25)
(45.0738 -0.0832629 -1.28313e-24)
(45.0892 -0.119107 -2.01259e-24)
(45.1092 -0.160369 2.11306e-24)
(45.1314 -0.218874 1.14224e-22)
(45.1425 -0.301749 -2.13088e-22)
(45.1362 -0.39513 1.88306e-22)
(45.004 -0.4358 1.00172e-23)
(44.865 -0.490233 5.77324e-23)
(44.5891 -0.432097 -9.46937e-24)
(44.2053 -0.0884994 1.04459e-23)
(44.1298 0.566637 -2.23635e-24)
(44.5377 1.05173 2.07847e-22)
(44.9753 1.10091 0)
(45.2204 0.922329 1.40025e-22)
(45.2957 0.68986 -3.01406e-23)
(45.3441 0.520806 -1.73183e-22)
(45.29 0.378737 -9.75527e-23)
(45.2251 0.264541 4.13933e-23)
(45.1742 0.189259 -2.14375e-24)
(45.1344 0.126384 -1.15617e-24)
(45.1044 0.0942263 1.73322e-23)
(45.0873 0.0482014 -6.39313e-24)
(45.0725 -0.0369714 2.17654e-24)
(45.0827 -0.0683306 -5.86167e-24)
(45.1018 -0.0867766 -2.15057e-25)
(45.1272 -0.125598 0)
(45.1602 -0.169411 -2.57138e-23)
(45.2048 -0.239467 -1.68364e-23)
(45.2399 -0.327381 -8.57337e-23)
(45.2023 -0.430654 -1.78764e-23)
(45.1278 -0.585527 7.33685e-23)
(44.9778 -0.795183 3.28147e-22)
(44.4612 -0.81746 7.20994e-23)
(43.7223 -0.484437 1.138e-26)
(43.3743 0.714662 -3.34193e-24)
(44.2555 1.63307 2.95431e-23)
(45.1717 1.67618 -3.15791e-22)
(45.4997 1.23473 0)
(45.5331 0.862696 1.88354e-26)
(45.5272 0.554327 3.08571e-23)
(45.4248 0.394575 7.09767e-24)
(45.3189 0.263641 4.80972e-23)
(45.2417 0.186589 -1.70067e-23)
(45.1814 0.121472 0)
(45.1393 0.0916613 -8.77741e-24)
(45.1108 0.0487334 -1.18845e-23)
(45.0883 -0.037634 9.69759e-27)
(45.1044 -0.0666771 -2.86972e-24)
(45.1295 -0.0822122 3.49253e-24)
(45.1661 -0.120072 1.08317e-24)
(45.2143 -0.159443 1.30725e-24)
(45.2861 -0.233655 -3.76869e-23)
(45.3581 -0.316276 -5.34194e-23)
(45.3513 -0.459753 -8.75007e-25)
(45.3774 -0.699844 -1.04911e-23)
(45.3265 -1.10006 5.26081e-23)
(44.7299 -1.54543 0)
(43.1059 -1.70049 4.92918e-23)
(41.1213 0.987554 1.91347e-24)
(44.1455 3.3122 1.41579e-22)
(45.5982 2.33195 -5.64223e-25)
(46.0117 1.47884 0)
(45.8798 0.933748 9.66328e-23)
(45.7429 0.512885 2.23102e-23)
(45.5706 0.35949 1.84244e-23)
(45.4157 0.227251 -4.70293e-24)
(45.308 0.159773 -3.68379e-23)
(45.225 0.100151 0)
(45.1705 0.0772985 -7.88501e-24)
(45.1292 0.0434029 -6.97335e-24)
(45.1013 -0.0354846 -2.48098e-24)
(45.1229 -0.0594482 2.23083e-24)
(45.1532 -0.0694628 1.08948e-24)
(45.2004 -0.101759 4.03166e-25)
(45.263 -0.128619 -1.96942e-24)
(45.3608 -0.193539 1.8739e-23)
(45.4757 -0.248521 6.53354e-27)
(45.5332 -0.405855 -1.09161e-23)
(45.7093 -0.661317 8.2629e-27)
(45.9415 -1.1402 -1.27699e-22)
(45.823 -2.08585 -7.02508e-24)
(44.9463 -4.44413 2.59142e-24)
(46.0353 5.83552 2.53373e-23)
(46.9155 2.82197 -2.50577e-23)
(46.7494 1.44368 5.35312e-23)
(46.3046 0.82651 -1.11101e-23)
(45.954 0.371924 3.6063e-23)
(45.7037 0.262363 3.70829e-23)
(45.5002 0.151537 2.50845e-23)
(45.3631 0.107315 -1.0564e-23)
(45.2588 0.0621938 0)
(45.1932 0.0509847 0)
(45.1393 0.0318555 -1.21826e-28)
(45.11 -0.0308055 -4.1192e-25)
(45.1362 -0.0476281 -2.11339e-26)
(45.1696 -0.0501893 -1.59512e-25)
(45.2239 -0.0728343 1.93685e-24)
(45.2961 -0.0805936 3.05375e-24)
(45.41 -0.122474 1.19444e-23)
(45.5565 -0.130183 3.30544e-23)
(45.689 -0.256313 0)
(46.0018 -0.413404 0)
(46.5349 -0.701213 0)
(47.2125 -1.47017 -4.19949e-24)
(48.7433 -3.27407 6.61285e-25)
(50.6836 4.9157 0)
(48.6165 2.07302 0)
(47.4495 0.934159 0)
(46.6825 0.491806 1.06144e-23)
(46.1044 0.138671 0)
(45.7923 0.107571 -3.92123e-23)
(45.5548 0.0419188 -2.61823e-23)
(45.3962 0.0327582 -2.37041e-24)
(45.2761 0.0103309 0)
(45.203 0.0143686 3.11212e-25)
(45.1384 0.0145668 -1.46259e-25)
(45.1139 -0.0243569 6.16549e-26)
(45.1428 -0.0332107 -1.02618e-25)
(45.1764 -0.0278285 1.05851e-25)
(45.2325 -0.0388267 5.34078e-25)
(45.3061 -0.0255798 -1.24164e-24)
(45.4197 -0.0373285 -7.44808e-26)
(45.5721 0.00536433 -4.30623e-24)
(45.7532 -0.050581 -1.34111e-25)
(46.1056 -0.0382408 0)
(46.7196 0.0152216 -1.17093e-23)
(47.745 -0.0679775 1.89407e-29)
(49.8934 -0.172027 -1.60917e-24)
(52.7569 0.966474 -4.20985e-24)
(49.5139 0.32508 -1.51555e-23)
(47.7546 0.0737978 -1.16388e-22)
(46.8614 -0.00433172 0)
(46.1462 -0.138833 -7.5785e-23)
(45.8109 -0.08007 0)
(45.5657 -0.0857941 -3.4339e-25)
(45.3992 -0.0548126 0)
(45.2723 -0.0496146 4.76427e-25)
(45.1969 -0.0290623 -1.94354e-25)
(45.1251 -0.00710841 -2.11997e-24)
(45.1134 -0.0172188 0)
(45.1425 -0.0187341 -4.16214e-25)
(45.1735 -0.00664232 -2.92391e-25)
(45.2258 -0.00687276 -1.29417e-24)
(45.2925 0.023519 1.75321e-24)
(45.3899 0.0390573 7.61383e-24)
(45.5211 0.11746 2.01097e-23)
(45.7032 0.139209 6.80456e-24)
(45.9828 0.299532 0)
(46.4263 0.628094 5.55846e-23)
(47.2349 1.16766 1.59408e-23)
(48.6501 2.48458 -9.30405e-25)
(51.73 -2.94096 -1.84358e-24)
(49.1706 -1.45192 2.56322e-23)
(47.5455 -0.791443 4.98744e-24)
(46.776 -0.507693 6.74166e-23)
(46.0672 -0.395661 3.36414e-22)
(45.7547 -0.26415 1.87362e-22)
(45.5293 -0.210075 -1.26628e-22)
(45.3698 -0.143186 -8.99587e-23)
(45.2463 -0.110087 6.58796e-24)
(45.1741 -0.0746407 2.90536e-24)
(45.0995 -0.031192 -6.52946e-24)
(45.1095 -0.0105085 1.06638e-25)
(45.1368 -0.00655744 7.42846e-25)
(45.1631 0.00967086 1.07697e-24)
(45.2076 0.0169657 -8.08414e-25)
(45.2618 0.0566548 -2.3748e-32)
(45.3342 0.0888517 1.09963e-23)
(45.4281 0.179438 3.14469e-23)
(45.5705 0.254875 5.63893e-24)
(45.718 0.478661 0)
(45.8799 0.892159 -1.78604e-23)
(46.1852 1.65108 -4.26724e-24)
(46.3804 3.23974 -1.88404e-24)
(49.0609 -4.78415 -5.48881e-25)
(47.9835 -2.49791 0)
(46.9774 -1.36779 -1.0448e-22)
(46.481 -0.877286 8.46909e-23)
(45.8956 -0.582947 4.78554e-22)
(45.6398 -0.412122 3.16609e-22)
(45.453 -0.312269 0)
(45.3128 -0.220837 -7.9303e-23)
(45.2007 -0.164065 -4.36105e-23)
(45.1361 -0.117674 4.13205e-24)
(45.0632 -0.0555107 -5.0135e-24)
(45.1037 -0.00509899 0)
(45.1277 0.00178496 1.32435e-25)
(45.1487 0.0191207 -1.49951e-25)
(45.184 0.0297037 -4.0428e-25)
(45.2241 0.0702489 0)
(45.2715 0.106312 -1.11046e-24)
(45.3271 0.188201 5.833e-24)
(45.4128 0.280406 -1.26927e-26)
(45.4419 0.479816 2.30569e-24)
(45.3738 0.80316 8.27298e-24)
(45.2386 1.39638 1.58195e-24)
(44.5082 2.46195 0)
(46.2402 -4.62702 -8.57222e-25)
(46.6298 -2.63887 8.35273e-24)
(46.3178 -1.55826 4.89124e-23)
(46.0973 -1.05253 6.04835e-24)
(45.6817 -0.683284 2.08308e-22)
(45.4946 -0.506929 2.22787e-22)
(45.3518 -0.382205 0)
(45.2371 -0.280087 -1.19892e-24)
(45.1411 -0.206607 1.84189e-23)
(45.0865 -0.154624 1.0051e-23)
(45.0188 -0.0781452 3.59933e-25)
(45.0977 -0.00147075 0)
(45.1178 0.0057921 0)
(45.1339 0.0216059 0)
(45.1608 0.031611 0)
(45.1892 0.0664713 2.40058e-25)
(45.2179 0.096266 6.36766e-25)
(45.2461 0.15524 -1.34722e-23)
(45.252 0.235759 9.82034e-23)
(45.2484 0.363988 0)
(45.0772 0.52741 0)
(44.7852 0.766792 1.65292e-23)
(43.8142 0.863562 9.47973e-23)
(34.6122 -1.35886 -1.91889e-24)
(44.6219 -2.789 -1.82933e-22)
(45.664 -2.16681 -3.42892e-23)
(45.7833 -1.45273 -2.41155e-25)
(45.7364 -1.05899 -1.35136e-24)
(45.471 -0.708182 -5.61774e-23)
(45.3468 -0.549006 9.09026e-24)
(45.2423 -0.419126 1.54789e-25)
(45.1528 -0.318361 -8.08794e-23)
(45.0741 -0.235926 0)
(45.0299 -0.183464 3.70741e-24)
(44.9696 -0.0977619 -1.0025e-23)
(45.0928 0.00028923 0)
(45.1092 0.00584977 -1.10344e-24)
(45.1216 0.0184378 -1.01538e-25)
(45.1421 0.0252838 0)
(45.1629 0.0513124 0)
(45.1812 0.0701504 -3.07195e-23)
(45.1963 0.107143 1.22105e-23)
(45.1939 0.144 1.50843e-22)
(45.1542 0.216541 1.45734e-22)
(45.0133 0.249834 1.27558e-22)
(44.7719 0.252804 0)
(44.3044 -0.0852926 -7.65588e-24)
(40.9899 -1.09681 1.55708e-23)
(44.5637 -1.63855 -1.75299e-23)
(45.2043 -1.4608 1.69607e-23)
(45.4503 -1.21472 -1.78392e-23)
(45.3682 -0.868164 3.25605e-23)
(45.2937 -0.680503 -6.39666e-24)
(45.2135 -0.547743 -5.05989e-27)
(45.1367 -0.428429 -1.6282e-25)
(45.0694 -0.337558 0)
(45.0055 -0.252591 -3.49264e-23)
(44.971 -0.203764 -4.21442e-23)
(44.9185 -0.113674 -1.29823e-23)
(45.0899 0.000373524 1.12661e-27)
(45.1031 0.00284241 -6.32936e-25)
(45.1133 0.011467 2.39535e-24)
(45.1299 0.0139203 1.81945e-28)
(45.1469 0.0304707 -6.73027e-24)
(45.1614 0.0379915 -2.02119e-23)
(45.1748 0.0540584 -1.07638e-22)
(45.1729 0.0651258 -1.98089e-22)
(45.137 0.0869471 -3.03755e-23)
(45.0582 0.049555 -5.59046e-24)
(44.9504 -0.0759625 0)
(44.7397 -0.314709 -5.2015e-24)
(41.8839 -0.844608 -2.46055e-23)
(44.8182 -1.02463 -5.91364e-24)
(45.1028 -1.08852 -5.30128e-24)
(45.2716 -0.982617 -9.29737e-24)
(45.2194 -0.760873 -1.49157e-22)
(45.1609 -0.631504 0)
(45.1033 -0.522714 -2.38279e-23)
(45.0429 -0.419466 -7.97826e-24)
(44.9912 -0.341387 -1.16649e-24)
(44.9393 -0.25863 6.74492e-24)
(44.9126 -0.215802 0)
(44.8682 -0.125684 0)
(45.0894 -0.000882045 4.04277e-26)
(45.1002 -0.00220684 1.61488e-25)
(45.1096 0.00244672 4.84943e-25)
(45.1242 0.000321131 0)
(45.1407 0.00810733 -1.60522e-24)
(45.1558 0.00637715 0)
(45.174 0.00464696 -2.14918e-24)
(45.1831 0.000347566 -2.09617e-23)
(45.189 -0.0431182 7.6514e-25)
(45.136 -0.0676253 -4.01419e-24)
(45.1213 -0.192497 1.82037e-23)
(44.9851 -0.418605 -2.09933e-23)
(43.2093 -0.688133 -3.12077e-23)
(44.9338 -0.797 3.3973e-24)
(45.0935 -0.839129 1.41044e-23)
(45.1788 -0.796805 4.94362e-24)
(45.1101 -0.659956 -7.23787e-23)
(45.0628 -0.567595 8.08168e-23)
(45.0145 -0.484712 0)
(44.9636 -0.398672 3.00237e-23)
(44.9219 -0.334589 -3.08055e-24)
(44.8787 -0.25685 7.71645e-24)
(44.8574 -0.221232 0)
(44.8202 -0.134153 0)
(45.0914 -0.00310442 -1.85092e-25)
(45.1006 -0.00835837 1.96613e-25)
(45.1101 -0.00721864 -1.23337e-24)
(45.1242 -0.0134233 -1.7528e-24)
(45.1423 -0.0128447 0)
(45.1607 -0.021081 0)
(45.1862 -0.0337718 9.94515e-23)
(45.2107 -0.0496122 -1.38781e-23)
(45.2369 -0.0948485 9.0256e-24)
(45.2394 -0.157829 -3.75573e-23)
(45.2417 -0.239714 0)
(45.0714 -0.38647 6.62763e-24)
(43.4733 -0.604663 -6.47652e-23)
(45.0381 -0.615113 1.80466e-23)
(45.1104 -0.620544 4.86376e-23)
(45.1087 -0.59817 1.07821e-22)
(45.0454 -0.566519 6.55634e-23)
(44.9946 -0.499417 6.84564e-23)
(44.9455 -0.442065 -1.05157e-23)
(44.8986 -0.371279 -6.75424e-24)
(44.8622 -0.320955 -1.5138e-23)
(44.8247 -0.24964 -5.49119e-23)
(44.807 -0.221418 3.31353e-25)
(44.7758 -0.139479 -2.85952e-24)
(45.0958 -0.0059512 -1.0066e-24)
(45.1039 -0.0148704 2.08094e-25)
(45.1142 -0.0165644 -1.19249e-24)
(45.1288 -0.0260367 -2.76363e-24)
(45.1496 -0.0308534 0)
(45.172 -0.0430613 0)
(45.205 -0.0618966 9.03611e-23)
(45.2411 -0.0810623 7.42401e-25)
(45.2888 -0.129723 -1.09541e-23)
(45.3011 -0.162725 -4.6972e-23)
(45.3469 -0.286873 0)
(44.656 -0.251385 -8.17961e-23)
(44.2586 -0.50541 1.11544e-23)
(45.1581 -0.445806 9.25915e-24)
(45.1122 -0.534716 1.07065e-23)
(45.0961 -0.502219 -2.70456e-23)
(45.0102 -0.491756 -2.08107e-23)
(44.9477 -0.439872 1.1804e-23)
(44.8934 -0.401092 -3.03032e-24)
(44.8466 -0.341848 -5.27299e-23)
(44.8118 -0.303806 -1.69574e-23)
(44.7778 -0.239155 -7.15773e-23)
(44.7619 -0.217801 0)
(44.7356 -0.142243 -1.02501e-23)
(45.102 -0.00914659 -9.00924e-25)
(45.1097 -0.0212353 -9.35727e-25)
(45.1211 -0.0250575 0)
(45.1367 -0.0369451 -1.98669e-24)
(45.1604 -0.0456249 0)
(45.1867 -0.0597346 -5.95007e-23)
(45.2265 -0.082457 -5.23253e-24)
(45.2702 -0.0999786 9.78535e-24)
(45.3321 -0.152062 -1.08806e-23)
(45.354 -0.167 -1.32912e-23)
(45.3922 -0.284942 -1.22965e-23)
(44.7255 -0.239114 -7.55985e-23)
(44.3221 -0.430607 3.08129e-23)
(45.1797 -0.372299 -9.27641e-24)
(45.1248 -0.462228 -5.87376e-24)
(45.0883 -0.425 -1.87297e-24)
(44.9853 -0.431203 -1.19677e-23)
(44.9137 -0.388067 -1.29258e-23)
(44.8533 -0.363542 -2.95659e-23)
(44.8049 -0.312871 -7.20277e-24)
(44.7697 -0.285352 -4.52423e-24)
(44.7377 -0.226976 -2.34858e-23)
(44.7223 -0.21167 -1.01189e-23)
(44.6998 -0.142995 -4.57432e-24)
(45.1099 -0.0124888 0)
(45.1174 -0.027148 -1.95738e-24)
(45.1302 -0.0324723 -9.46031e-25)
(45.1468 -0.0459812 -1.39518e-24)
(45.1734 -0.0573638 5.98491e-24)
(45.203 -0.0718034 -6.2716e-23)
(45.2485 -0.0971615 0)
(45.2977 -0.110973 -1.38337e-23)
(45.3684 -0.16448 0)
(45.3994 -0.166381 0)
(45.4338 -0.274016 -1.68514e-25)
(44.7785 -0.222771 -2.64145e-25)
(44.3728 -0.377029 1.2454e-23)
(45.203 -0.318824 -6.74766e-24)
(45.1386 -0.404135 -3.78336e-24)
(45.0837 -0.364396 -2.14154e-24)
(44.968 -0.38162 2.16005e-24)
(44.8885 -0.3431 -5.61863e-24)
(44.8222 -0.32992 -7.88158e-24)
(44.7715 -0.285527 1.36051e-23)
(44.7346 -0.266875 -4.54449e-24)
(44.7036 -0.214166 0)
(44.6878 -0.204004 2.01801e-28)
(44.6682 -0.142206 0)
(45.1189 -0.0158417 0)
(45.1265 -0.0324504 -2.32042e-24)
(45.1406 -0.0387681 -1.32188e-24)
(45.1583 -0.0532033 2.90248e-24)
(45.1876 -0.0664412 0)
(45.2198 -0.0801238 2.12617e-24)
(45.2698 -0.107206 -4.03096e-23)
(45.3234 -0.116597 -2.63754e-23)
(45.3993 -0.170099 -8.16744e-25)
(45.4366 -0.162223 6.70863e-26)
(45.4668 -0.2605 1.7916e-23)
(44.8143 -0.206806 -1.05624e-23)
(44.4082 -0.335163 1.75774e-23)
(45.2227 -0.277852 -5.0061e-24)
(45.1504 -0.357989 5.75728e-24)
(45.0814 -0.31632 -4.89514e-25)
(44.9565 -0.340815 -5.08482e-24)
(44.8699 -0.304595 3.63515e-24)
(44.798 -0.300387 1.0416e-23)
(44.7447 -0.260443 -1.98938e-28)
(44.7055 -0.249161 -2.18245e-24)
(44.6748 -0.201419 -1.47961e-23)
(44.6581 -0.195517 7.62782e-24)
(44.6406 -0.140274 7.08606e-24)
(45.1288 -0.0191233 -1.25834e-24)
(45.1366 -0.0370908 -2.56832e-24)
(45.1519 -0.0440198 -3.00314e-32)
(45.1705 -0.0588025 6.19052e-24)
(45.2021 -0.0732887 1.4693e-23)
(45.2364 -0.0855418 1.38901e-24)
(45.2899 -0.113713 -3.8574e-23)
(45.3467 -0.118667 -2.32444e-23)
(45.4255 -0.17149 1.31298e-23)
(45.4671 -0.156545 0)
(45.4922 -0.246633 3.56149e-24)
(44.8401 -0.192001 -3.40745e-24)
(44.4341 -0.301484 5.53258e-24)
(45.238 -0.245349 -3.91019e-24)
(45.1601 -0.320523 -1.78858e-29)
(45.0804 -0.277594 -7.19244e-24)
(44.9486 -0.307027 -4.20811e-24)
(44.8558 -0.271848 -8.9563e-25)
(44.779 -0.274718 5.61716e-24)
(44.723 -0.237869 -8.29134e-24)
(44.6812 -0.232649 -1.24406e-23)
(44.6504 -0.189171 -6.26575e-24)
(44.6326 -0.186734 -6.57524e-24)
(44.6166 -0.137515 6.18866e-24)
(45.1392 -0.0222888 -1.20324e-32)
(45.1473 -0.0410892 -1.35981e-24)
(45.1636 -0.0483563 1.4901e-24)
(45.1831 -0.0630304 3.17071e-24)
(45.2166 -0.0783397 8.39534e-28)
(45.2524 -0.0887938 0)
(45.3084 -0.117628 -5.04307e-25)
(45.3676 -0.118484 -2.08232e-23)
(45.448 -0.170236 1.11833e-23)
(45.4924 -0.150209 0)
(45.5125 -0.233155 -9.14196e-29)
(44.8594 -0.178487 2.62185e-24)
(44.454 -0.27404 -6.02794e-24)
(45.2504 -0.219163 0)
(45.1684 -0.289756 8.78049e-25)
(45.0801 -0.246118 2.01019e-24)
(44.943 -0.278886 0)
(44.8449 -0.244058 1.73786e-24)
(44.7638 -0.252528 1.86181e-24)
(44.7053 -0.217806 -2.06528e-23)
(44.661 -0.217537 -5.20801e-24)
(44.6299 -0.177673 5.31612e-24)
(44.6107 -0.178001 -6.7245e-24)
(44.5957 -0.134182 0)
(45.1498 -0.0253239 1.36124e-24)
(45.1582 -0.0445049 -1.39692e-24)
(45.1755 -0.0519289 0)
(45.1955 -0.0661469 8.02272e-25)
(45.2306 -0.081986 1.86621e-24)
(45.2676 -0.0904828 4.42626e-25)
(45.3254 -0.119683 0)
(45.3863 -0.116919 -1.93171e-25)
(45.4673 -0.167379 9.25601e-24)
(45.5136 -0.143743 0)
(45.529 -0.220554 2.38838e-24)
(44.8739 -0.166312 1.21802e-24)
(44.4693 -0.251348 -4.13527e-24)
(45.2605 -0.1978 6.47245e-25)
(45.1753 -0.264305 -1.30225e-24)
(45.0802 -0.220352 -2.07569e-26)
(44.939 -0.255332 1.46352e-24)
(44.8364 -0.220506 -5.49389e-25)
(44.7517 -0.233403 -7.65602e-27)
(44.6909 -0.200137 -7.48443e-24)
(44.6441 -0.203887 2.70499e-24)
(44.6124 -0.16705 3.21093e-24)
(44.5919 -0.16956 -1.02867e-24)
(44.5776 -0.13047 -4.46705e-25)
(45.1606 -0.0282307 -9.19678e-26)
(45.1692 -0.0474182 -1.68374e-24)
(45.1872 -0.0548846 -1.87839e-25)
(45.2078 -0.0683939 0)
(45.244 -0.0845663 2.71509e-23)
(45.2819 -0.0910863 0)
(45.3408 -0.12044 -1.54677e-23)
(45.403 -0.114572 0)
(45.484 -0.163641 7.84864e-24)
(45.5315 -0.137509 3.69958e-24)
(45.5421 -0.209035 0)
(44.8846 -0.155539 9.87911e-25)
(44.4813 -0.23245 0)
(45.2688 -0.180249 5.30128e-25)
(45.181 -0.243094 -3.62184e-25)
(45.0804 -0.199149 0)
(44.9361 -0.235541 0)
(44.8295 -0.200587 -4.41881e-25)
(44.7418 -0.216964 6.41792e-25)
(44.6789 -0.184698 0)
(44.6298 -0.191673 0)
(44.5976 -0.157349 2.54171e-24)
(44.5757 -0.161554 4.87737e-25)
(44.5617 -0.12653 -2.06775e-24)
(45.1712 -0.0310205 8.79895e-26)
(45.1801 -0.0499136 7.97883e-26)
(45.1987 -0.0573585 0)
(45.2196 -0.0699855 -2.06539e-25)
(45.2568 -0.0863593 1.31118e-23)
(45.2953 -0.0909723 -1.63442e-26)
(45.3549 -0.120331 -1.40868e-23)
(45.418 -0.111858 -3.37826e-25)
(45.4986 -0.159522 0)
(45.5468 -0.131659 4.3035e-24)
(45.5526 -0.19867 0)
(44.8923 -0.146206 0)
(44.491 -0.216608 0)
(45.2757 -0.165693 3.63336e-24)
(45.1858 -0.225297 4.54409e-24)
(45.0806 -0.181654 0)
(44.9337 -0.21888 -1.47117e-25)
(44.8239 -0.183795 0)
(44.7336 -0.202868 0)
(44.6688 -0.171301 0)
(44.6176 -0.180825 0)
(44.5848 -0.148594 -2.16684e-24)
(44.5616 -0.154069 -1.81654e-24)
(44.5479 -0.122496 2.63058e-29)
(45.1816 -0.0337075 0)
(45.1907 -0.0520704 6.78332e-25)
(45.2097 -0.0594661 -9.71629e-25)
(45.231 -0.0710969 1.44322e-24)
(45.2688 -0.0875899 1.23115e-23)
(45.3077 -0.0904179 2.50883e-23)
(45.3678 -0.119685 0)
(45.4314 -0.10907 0)
(45.5115 -0.155364 7.97301e-25)
(45.5599 -0.126332 -9.31373e-25)
(45.5613 -0.18951 -1.43984e-31)
(44.8979 -0.138163 4.03601e-24)
(44.4987 -0.203197 6.57644e-24)
(45.2816 -0.153544 3.02161e-24)
(45.1899 -0.210406 1.25887e-25)
(45.0809 -0.167169 0)
(44.9319 -0.204846 -3.5754e-24)
(44.8192 -0.169643 -4.13746e-24)
(44.7267 -0.190807 0)
(44.6602 -0.159724 -4.00592e-24)
(44.6072 -0.171263 -3.55957e-39)
(44.5737 -0.140737 5.34622e-24)
(44.5493 -0.147166 3.34264e-24)
(44.5356 -0.118449 2.60358e-24)
(45.1916 -0.0363034 -1.36947e-24)
(45.201 -0.0539562 5.9681e-25)
(45.2203 -0.0612971 -6.77098e-25)
(45.2418 -0.071871 2.75796e-24)
(45.2801 -0.0884343 1.14318e-23)
(45.3193 -0.089631 4.67929e-23)
(45.3795 -0.118745 0)
(45.4436 -0.106386 0)
(45.523 -0.15138 7.08022e-25)
(45.5714 -0.121606 0)
(45.5685 -0.181511 0)
(44.9018 -0.131312 0)
(44.5048 -0.191867 0)
(45.2865 -0.143443 -2.50086e-24)
(45.1933 -0.197954 -3.05294e-24)
(45.0811 -0.155192 -2.98037e-24)
(44.9303 -0.193055 -5.78316e-24)
(44.8152 -0.157771 -3.47613e-24)
(44.7208 -0.180534 0)
(44.6528 -0.149791 -9.8849e-25)
(44.598 -0.162904 0)
(44.5639 -0.133745 0)
(44.5385 -0.140874 1.51839e-24)
(44.5245 -0.114463 9.59037e-25)
(45.2013 -0.0388139 -1.19925e-24)
(45.2108 -0.0556248 -7.11183e-25)
(45.2305 -0.0629199 -1.01169e-25)
(45.2521 -0.0724165 7.19255e-26)
(45.2907 -0.089025 -3.16946e-32)
(45.3302 -0.0887686 2.19465e-23)
(45.3903 -0.11769 0)
(45.4547 -0.103917 -7.59057e-25)
(45.5333 -0.147707 9.10505e-25)
(45.5816 -0.117517 8.67758e-25)
(45.5746 -0.174614 3.42373e-24)
(44.9046 -0.125563 2.8646e-24)
(44.5097 -0.182352 2.31287e-24)
(45.2908 -0.135116 0)
(45.1962 -0.187586 0)
(45.0813 -0.145346 -6.18859e-27)
(44.929 -0.183211 2.40221e-24)
(44.8117 -0.147891 1.09255e-29)
(44.7156 -0.171861 -2.10967e-24)
(44.6462 -0.141353 0)
(44.59 -0.155671 0)
(44.5551 -0.127589 5.88516e-25)
(44.5287 -0.13521 0)
(44.5145 -0.110602 0)
(45.2105 -0.0412368 0)
(45.2202 -0.0571087 -1.20939e-24)
(45.2401 -0.0643787 -7.0475e-25)
(45.262 -0.0728087 -1.2773e-24)
(45.3007 -0.0894655 0)
(45.3404 -0.0879375 0)
(45.4003 -0.116636 0)
(45.4649 -0.101749 -1.26421e-24)
(45.5426 -0.144445 0)
(45.5907 -0.114078 -1.43146e-25)
(45.5798 -0.168765 1.45134e-24)
(44.9063 -0.120844 1.16991e-24)
(44.5135 -0.174444 1.90996e-24)
(45.2945 -0.128352 3.30623e-24)
(45.1988 -0.179041 2.03347e-24)
(45.0814 -0.137352 0)
(44.9278 -0.175086 -1.96997e-24)
(44.8086 -0.139777 -1.99453e-24)
(44.7111 -0.164634 0)
(44.6403 -0.134286 0)
(44.5827 -0.149508 0)
(44.547 -0.122248 5.41333e-25)
(44.5197 -0.130193 0)
(44.5051 -0.106929 0)
(45.2191 -0.043551 3.56263e-26)
(45.2292 -0.0584226 -1.0537e-24)
(45.2492 -0.0656926 8.04186e-26)
(45.2713 -0.073102 0)
(45.3101 -0.089823 1.80337e-25)
(45.35 -0.087177 -3.72636e-25)
(45.4096 -0.115665 0)
(45.4744 -0.0999265 -5.87958e-25)
(45.5512 -0.141645 6.94882e-25)
(45.599 -0.111284 6.97715e-25)
(45.5843 -0.163908 -1.10179e-25)
(44.9073 -0.117089 9.24945e-25)
(44.5166 -0.167987 3.09256e-24)
(45.2978 -0.122992 5.28698e-26)
(45.201 -0.17212 -3.38901e-26)
(45.0815 -0.130997 1.54772e-24)
(44.9268 -0.168508 1.88642e-26)
(44.8057 -0.133248 -9.84911e-26)
(44.7069 -0.158733 0)
(44.6349 -0.128493 -1.2227e-24)
(44.576 -0.144369 -1.22137e-24)
(44.5395 -0.11771 0)
(44.5114 -0.125849 1.30687e-24)
(44.4962 -0.103507 2.05544e-25)
(45.2272 -0.0457123 0)
(45.2377 -0.0595566 -5.84521e-25)
(45.2577 -0.0668599 -1.05932e-25)
(45.2803 -0.0733382 -1.43734e-26)
(45.3189 -0.0901256 0)
(45.3592 -0.086534 9.20207e-24)
(45.4182 -0.114847 -1.94564e-24)
(45.4833 -0.0984754 -4.67252e-25)
(45.5591 -0.139344 -5.70749e-25)
(45.6066 -0.109124 -5.36938e-25)
(45.5882 -0.160004 8.65445e-25)
(44.9076 -0.114242 1.38856e-24)
(44.5191 -0.162876 1.20842e-24)
(45.3008 -0.118919 4.74127e-26)
(45.2031 -0.166688 -1.25931e-24)
(45.0815 -0.126124 -1.17186e-24)
(44.9258 -0.163351 3.5284e-26)
(44.803 -0.128174 -9.34837e-26)
(44.7031 -0.15408 0)
(44.6297 -0.123908 -8.38295e-25)
(44.5699 -0.140238 -9.6703e-25)
(44.5323 -0.113987 0)
(44.5035 -0.122221 3.99913e-25)
(44.4875 -0.100418 -5.8532e-25)
(45.2349 -0.0476496 -4.97013e-25)
(45.2461 -0.0604856 5.41169e-25)
(45.2659 -0.0678607 -1.12115e-24)
(45.2892 -0.073513 -9.9121e-27)
(45.3274 -0.0903886 1.25593e-25)
(45.3683 -0.0860338 8.94374e-24)
(45.4265 -0.114219 -1.03102e-24)
(45.4921 -0.0973959 -2.723e-25)
(45.5666 -0.137548 -4.44933e-25)
(45.6141 -0.107538 -8.99519e-25)
(45.5917 -0.15697 -7.48339e-25)
(44.9076 -0.112237 -4.80953e-25)
(44.5212 -0.159058 -8.83905e-25)
(45.3035 -0.116041 0)
(45.205 -0.162635 -9.14076e-25)
(45.0814 -0.122596 -8.30921e-25)
(44.9249 -0.15951 1.65473e-26)
(44.8003 -0.124435 0)
(44.6995 -0.150598 6.2119e-26)
(44.6246 -0.120465 8.78728e-26)
(44.5639 -0.137088 -7.18793e-25)
(44.5251 -0.111087 -6.7382e-25)
(44.4957 -0.119342 2.64606e-25)
(44.4786 -0.0977526 0)
(45.2412 -0.049169 -3.91574e-25)
(45.2533 -0.0611214 4.79622e-25)
(45.2729 -0.0686038 -4.49099e-25)
(45.297 -0.0736104 0)
(45.3346 -0.0906015 0)
(45.3763 -0.0857056 -2.02113e-24)
(45.4334 -0.113822 7.62246e-25)
(45.4998 -0.0967225 -3.25366e-25)
(45.5729 -0.136353 -5.89123e-25)
(45.6205 -0.106572 -1.02654e-25)
(45.5945 -0.154934 4.97907e-25)
(44.9073 -0.111057 0)
(44.5228 -0.156543 0)
(45.3058 -0.114293 0)
(45.2067 -0.159978 0)
(45.0813 -0.120385 -4.30504e-27)
(44.9242 -0.15701 0)
(44.7978 -0.122044 0)
(44.6966 -0.148329 5.25992e-26)
(44.6201 -0.118221 0)
(44.5588 -0.134998 0)
(44.5187 -0.109127 0)
(44.489 -0.117359 2.3171e-25)
(44.4706 -0.0957284 0)
(45.2497 -0.0502875 0)
(45.2644 -0.0615335 -2.35138e-26)
(45.2824 -0.0691394 -5.86677e-26)
(45.3094 -0.073669 -3.10039e-27)
(45.3444 -0.0907919 3.88933e-26)
(45.3891 -0.0855242 -3.28263e-24)
(45.4428 -0.113609 -5.48632e-26)
(45.512 -0.0963148 1.42273e-28)
(45.5812 -0.13552 1.02326e-31)
(45.6304 -0.10569 -1.46247e-29)
(45.5982 -0.153075 4.51794e-25)
(44.9076 -0.110422 0)
(44.525 -0.155542 1.77925e-25)
(45.3087 -0.113624 1.09456e-25)
(45.2093 -0.158401 -3.18847e-25)
(45.0804 -0.119104 -2.75655e-25)
(44.9237 -0.155475 0)
(44.7935 -0.120609 0)
(44.6927 -0.146926 0)
(44.6127 -0.11684 0)
(44.5517 -0.133677 0)
(44.5084 -0.107864 0)
(44.479 -0.116059 1.66318e-25)
(44.4576 -0.094277 0)
(48.4172 -3.6107 9.14427e-25)
(50.4628 5.79981 3.25546e-24)
(45.6313 6.52287 1.40615e-23)
(49.8857 -0.578799 -1.57731e-24)
(53.1475 1.63179 -6.18776e-25)
(50.9868 5.37379 -2.70497e-24)
(48.9 2.25074 -8.61127e-25)
(52.3403 -2.71292 -6.96432e-24)
(53.2491 1.03394 -2.04232e-24)
(46.6628 3.24076 -2.79259e-24)
(49.4883 -5.01678 1.092e-23)
(52.0349 -3.13119 0)
(44.6919 2.61948 2.93526e-28)
(46.3915 -5.09928 -7.56098e-24)
(49.0907 -5.15355 6.41716e-24)
(43.8167 1.05638 0)
(37.5391 -0.507556 -1.66763e-24)
(34.0128 -1.46684 3.81155e-24)
(44.4477 -3.30529 3.82955e-23)
(46.0433 -4.95887 -1.14387e-23)
(44.4378 -4.21158 7.54206e-24)
(41.1093 0.102813 1.90681e-24)
(44.9705 6.17158 2.01155e-23)
(43.2984 2.95596 4.50093e-23)
(46.9161 -1.73635 -5.23016e-24)
(48.2001 -3.20814 2.61011e-25)
(45.2983 -3.96102 -1.0081e-23)
(48.4231 10.7801 0)
(42.6971 10.0484 -1.13447e-23)
(50.2113 5.28571 0)
(48.4996 2.93138 5.3733e-25)
(46.8654 3.35083 -6.22291e-23)
(47.7177 -0.439851 5.77435e-24)
(49.5712 -0.512681 -1.4462e-24)
(48.4986 -2.90947 3.00517e-25)
(49.4656 -2.16834 -2.75438e-25)
(50.9 -2.66115 2.53917e-25)
(49.9821 -4.52688 -2.86257e-25)
(54.0021 5.14738 2.71196e-24)
(52.3856 7.85846 1.15984e-24)
(52.6677 1.5154 2.48258e-25)
(49.9033 1.04602 -1.80904e-23)
(48.9738 2.5646 6.78634e-24)
(47.4399 0.916907 1.17926e-23)
(48.731 1.99986 7.60858e-25)
(49.584 -0.139766 -2.69954e-27)
(49.6714 1.00082 9.7494e-29)
(51.0584 1.64259 -1.52208e-24)
(51.4239 -0.307685 -2.26439e-26)
(54.7755 -2.09417 1.0762e-25)
(55.0349 1.51861 -2.27951e-24)
(51.9885 -2.55586 -8.29919e-24)
(49.7884 -1.18001 2.45786e-24)
(50.019 0.466607 -1.864e-23)
(46.4604 1.60792 -1.05455e-23)
(46.6827 2.95357 1.36105e-24)
(48.505 2.2213 0)
(47.8241 2.98766 0)
(48.1866 4.22213 -5.28299e-25)
(49.5678 3.51612 -7.31131e-26)
(51.3399 -6.04829 -2.21988e-25)
(53.1668 -4.47155 2.31229e-24)
(49.4273 -4.66052 4.78087e-28)
(48.5189 -2.65283 3.44467e-23)
(49.5485 -1.64654 2.92894e-23)
(47.3289 -7.17339 -8.81091e-25)
(49.2226 -6.90667 -1.0734e-25)
(46.566 -4.75695 4.99351e-24)
(46.9117 -3.03317 0)
(48.116 -2.84822 0)
(43.4476 -5.43349 8.96351e-25)
(45.0374 -6.66898 0)
(44.1512 0.0361154 0)
(41.0147 -0.403354 1.5922e-23)
(37.905 -0.605747 1.02508e-27)
(39.6299 -1.25606 6.54121e-24)
(44.2331 -1.79783 0)
(44.3546 -3.04231 0)
(49.8089 -4.79971 2.01024e-25)
(47.8587 -6.62495 1.41074e-24)
(47.1556 -4.40467 8.56289e-24)
(47.9698 -7.05003 4.04554e-25)
(49.968 -5.00143 9.43189e-25)
(43.0437 -7.45173 1.6787e-23)
(47.5365 -7.3448 1.76836e-24)
(52.2415 8.04143 -1.35991e-25)
(48.7988 10.5955 -1.72647e-25)
(48.566 6.77076 -3.11586e-24)
(48.9415 9.94308 -3.0528e-25)
(52.0716 7.80323 8.11003e-26)
(51.4024 -0.579614 2.30478e-25)
(50.9901 -2.39838 0)
(49.6272 -1.77715 3.78859e-25)
(51.0819 -2.57196 9.32926e-27)
(51.5116 -0.482327 8.30798e-28)
(50.1604 -4.70913 -4.57006e-25)
(51.0384 -2.70667 1.01316e-26)
(54.98 1.79802 -3.28823e-24)
(54.089 4.95352 6.05917e-24)
(52.5234 3.35913 -5.16041e-25)
(54.035 4.66378 -8.13573e-25)
(55.0014 2.07582 1.55013e-24)
(52.2263 7.63207 1.04883e-24)
(53.9449 4.86318 2.96191e-24)
(52.2165 3.89952 -4.99313e-25)
(49.7456 3.37078 0)
(50.9241 1.89924 -1.28537e-24)
(49.5213 1.35888 2.82499e-25)
(51.0901 2.10872 -1.07566e-25)
(49.7631 3.55432 1.15131e-26)
(51.5258 -0.332675 -7.88996e-28)
(51.1568 1.97368 -5.28941e-25)
(53.2729 -4.3414 -5.50067e-25)