/*--------------------------------*- C++ -*----------------------------------*\
| =========                 |                                                 |
| \\      /  F ield         | OpenFOAM: The Open Source CFD Toolbox           |
|  \\    /   O peration     | Version:  5.x                                   |
|   \\  /    A nd           | Web:      www.OpenFOAM.org                      |
|    \\/     M anipulation  |                                                 |
\*---------------------------------------------------------------------------*/
FoamFile
{
    version     2.0;
    format      ascii;
    class       volScalarField;
    location    "400";
    object      massFlux;
}
// * * * * * * * * * * * * * * * * * * * * * * * * * * * * * * * * * * * * * //

dimensions      [0 0 0 0 0 0 0];

internalField   nonuniform List<scalar> 
6584
(
0.0241652
0.0241651
0.0241651
0.0241652
0.0241652
0.0241652
0.0241652
0.0241652
0.0241652
0.0241652
0.0241652
0.0241652
0.0241652
0.0241652
0.0241652
0.0241652
0.0241652
0.0241652
0.0241652
0.0241652
0.0241651
0.0241651
0.0241651
0.0241651
0.0241388
0.0241388
0.0241388
0.0241388
0.0241388
0.0241389
0.0241389
0.024139
0.024139
0.024139
0.024139
0.024139
0.024139
0.024139
0.024139
0.024139
0.024139
0.0241389
0.0241389
0.0241389
0.0241388
0.0241388
0.0241388
0.0241387
0.0241124
0.0241124
0.0241124
0.0241124
0.0241124
0.0241125
0.0241126
0.0241127
0.0241128
0.0241259
0.0241259
0.0241259
0.0241259
0.0241259
0.0241259
0.0241128
0.0241127
0.0241126
0.0241126
0.0241125
0.0241125
0.0241125
0.0241124
0.0241124
0.024086
0.0240861
0.0240861
0.0240861
0.0240861
0.0240862
0.0240863
0.0240864
0.0240865
0.0240996
0.0240996
0.0240995
0.0240995
0.0240996
0.0240996
0.0240997
0.0240864
0.0240863
0.0240863
0.0240862
0.0240862
0.0240861
0.0240861
0.024086
0.0240597
0.0240597
0.0240598
0.0240598
0.0240598
0.0240599
0.0240599
0.0240599
0.0240732
0.0240733
0.0240731
0.024073
0.024073
0.0240731
0.0240733
0.0240733
0.0240733
0.0240601
0.02406
0.0240599
0.0240599
0.0240598
0.0240597
0.0240597
0.0240334
0.0240334
0.0240334
0.0240335
0.0240335
0.0240336
0.0240337
0.0240467
0.0240467
0.0240466
0.0240531
0.0240528
0.0240527
0.0240531
0.0240468
0.0240471
0.0240471
0.0240341
0.0240338
0.0240337
0.0240336
0.0240335
0.0240334
0.0240334
0.0240071
0.0240071
0.0240071
0.0240072
0.0240073
0.0240074
0.0240075
0.0240205
0.0240204
0.0240202
0.024026
0.0240288
0.0240284
0.0240259
0.0240271
0.024021
0.0240211
0.0240081
0.0240077
0.0240075
0.0240074
0.0240073
0.0240072
0.0240071
0.0239808
0.0239808
0.0239809
0.0239809
0.023981
0.0239812
0.0239815
0.0239944
0.0239943
0.0239943
0.0239995
0.0240007
0.0240019
0.0240011
0.0239953
0.0239952
0.0239823
0.0239817
0.0239814
0.0239812
0.023981
0.0239809
0.0239808
0.0239545
0.0239545
0.0239546
0.0239547
0.0239549
0.0239551
0.0239554
0.0239684
0.0239684
0.0239687
0.0239739
0.0239751
0.0239768
0.0239761
0.0239701
0.0239697
0.0239565
0.0239557
0.0239553
0.023955
0.0239548
0.0239546
0.0239545
0.0239282
0.0239282
0.0239284
0.0239285
0.0239287
0.023929
0.0239294
0.0239424
0.0239427
0.0239434
0.023949
0.0239511
0.0239538
0.0239518
0.0239451
0.0239442
0.0239307
0.0239298
0.0239292
0.0239288
0.0239286
0.0239284
0.0239282
0.0239019
0.023902
0.0239021
0.0239023
0.0239025
0.0239029
0.0239034
0.0239165
0.023917
0.0239181
0.0239242
0.0239273
0.0239311
0.0239277
0.0239202
0.0239188
0.023905
0.0239038
0.0239031
0.0239027
0.0239023
0.0239021
0.0239019
0.0238756
0.0238757
0.0238759
0.0238761
0.0238764
0.0238768
0.0238774
0.0238906
0.0238913
0.0238926
0.0238991
0.0239028
0.0239074
0.0239031
0.023895
0.0238934
0.0238792
0.0238779
0.0238771
0.0238765
0.0238761
0.0238758
0.0238756
0.0238493
0.0238494
0.0238496
0.0238499
0.0238502
0.0238507
0.0238514
0.0238646
0.0238654
0.0238668
0.0238735
0.0238771
0.0238822
0.0238778
0.0238695
0.0238677
0.0238532
0.0238518
0.0238509
0.0238503
0.0238498
0.0238495
0.0238493
0.023823
0.0238232
0.0238234
0.0238236
0.023824
0.0238245
0.0238253
0.0238258
0.0238393
0.0238405
0.0238469
0.0238495
0.0181357
0.023852
0.0238519
0.0238437
0.0238418
0.0238272
0.0238257
0.0238248
0.023824
0.0238235
0.0238232
0.0238229
0.0237967
0.0237969
0.0237971
0.0237974
0.0237978
0.0237983
0.023799
0.0237993
0.0238127
0.0238139
0.0238204
0.0238195
0.0225368
0.0238254
0.0238184
0.0238176
0.023802
0.0238009
0.0237994
0.0237985
0.0237978
0.0237972
0.0237968
0.0237965
0.0237704
0.0237706
0.0237708
0.0237712
0.0237716
0.023772
0.0237726
0.023773
0.0237864
0.0237877
0.0237877
0.023793
0.0226259
0.0237924
0.0237922
0.0237913
0.0237758
0.0237746
0.023773
0.023772
0.0237713
0.0237707
0.0237704
0.0237701
0.0237441
0.0237443
0.0237445
0.0237449
0.0237453
0.0237457
0.0237463
0.0237468
0.0237476
0.0237615
0.0237614
0.0237423
0.0232304
0.023766
0.0237658
0.023765
0.0237495
0.0237483
0.0237466
0.0237456
0.0237449
0.0237442
0.0237439
0.0237435
0.0237178
0.023718
0.0237183
0.0237186
0.023719
0.0237194
0.02372
0.0237206
0.0237214
0.023722
0.0237353
0.0237065
0.0232187
0.0237396
0.0237264
0.0237246
0.0237231
0.0237219
0.0237202
0.0237192
0.0237184
0.0237178
0.0237174
0.023717
0.0236915
0.0236917
0.023692
0.0236923
0.0236927
0.0236931
0.0236938
0.0236944
0.0236953
0.0236959
0.0236929
0.0229317
0.023455
0.0237004
0.0237001
0.0236983
0.0236967
0.0236955
0.0236938
0.0236927
0.0236919
0.0236913
0.0236909
0.0236904
0.0236652
0.0236654
0.0236657
0.0236661
0.0236665
0.0236668
0.0236676
0.0236683
0.0236691
0.0236697
0.0236642
0.0229077
0.0234302
0.0236741
0.0236738
0.023672
0.0236703
0.0236691
0.0236674
0.0236662
0.0236654
0.0236647
0.0236643
0.0236639
0.0236389
0.0236391
0.0236394
0.0236398
0.0236402
0.0236406
0.0236414
0.0236421
0.023643
0.0236436
0.0236356
0.0228835
0.0234052
0.0236479
0.0236475
0.0236457
0.0236439
0.0236426
0.0236409
0.0236397
0.0236389
0.0236382
0.0236378
0.0236373
0.0236126
0.0236128
0.0236131
0.0236135
0.023614
0.0236144
0.0236153
0.023616
0.023617
0.0236175
0.0236071
0.0228592
0.0233801
0.0236216
0.0236212
0.0236194
0.0236175
0.0236162
0.0236144
0.0236132
0.0236123
0.0236116
0.0236112
0.0236107
0.0235863
0.0235865
0.0235868
0.0235872
0.0235877
0.0235882
0.0235891
0.0235899
0.0235909
0.0235914
0.0235786
0.0228348
0.0233547
0.0235954
0.0235949
0.0235931
0.0235912
0.0235898
0.0235879
0.0235867
0.0235858
0.0235851
0.0235846
0.0235841
0.02356
0.0235603
0.0235606
0.023561
0.0235615
0.023562
0.0235629
0.0235638
0.0235648
0.0235653
0.0235503
0.0228102
0.0233293
0.0235692
0.0235687
0.0235668
0.0235648
0.0235633
0.0235615
0.0235602
0.0235593
0.0235585
0.0235581
0.0235575
0.0235337
0.023534
0.0235343
0.0235347
0.0235353
0.0235358
0.0235368
0.0235377
0.0235388
0.0235392
0.0235221
0.0227856
0.0233038
0.023543
0.0235424
0.0235405
0.0235384
0.0235369
0.023535
0.0235337
0.0235327
0.0235319
0.0235315
0.0235309
0.0235074
0.0235077
0.023508
0.0235085
0.023509
0.0235096
0.0235107
0.0235116
0.0235127
0.0235131
0.0234937
0.0227611
0.0232784
0.0235168
0.0235162
0.0235142
0.023512
0.0235105
0.0235085
0.0235072
0.0235062
0.0235054
0.0235049
0.0235043
0.0234811
0.0234814
0.0234817
0.0234822
0.0234828
0.0234834
0.0234845
0.0234855
0.0234867
0.023487
0.0234651
0.0227368
0.023253
0.0234907
0.0234901
0.023488
0.0234857
0.0234841
0.0234821
0.0234807
0.0234797
0.0234788
0.0234783
0.0234778
0.0234549
0.0234551
0.0234555
0.023456
0.0234566
0.0234572
0.0234584
0.0234594
0.0234607
0.023461
0.0234367
0.0227125
0.0232276
0.0234646
0.0234639
0.0234618
0.0234594
0.0234577
0.0234556
0.0234542
0.0234531
0.0234523
0.0234518
0.0234512
0.0234286
0.0234289
0.0234292
0.0234297
0.0234304
0.0234311
0.0234323
0.0234333
0.0234347
0.0234349
0.0234082
0.0226882
0.0232022
0.0234384
0.0234377
0.0234356
0.0234331
0.0234314
0.0234292
0.0234278
0.0234266
0.0234258
0.0234252
0.0234247
0.0234023
0.0234026
0.023403
0.0234035
0.0234042
0.0234049
0.0234062
0.0234073
0.0234087
0.0234089
0.0233799
0.0226638
0.0231767
0.0234123
0.0234116
0.0234094
0.0234068
0.023405
0.0234027
0.0234013
0.0234001
0.0233992
0.0233987
0.0233981
0.0233761
0.0233763
0.0233767
0.0233773
0.023378
0.0233787
0.0233801
0.0233812
0.0233827
0.0233828
0.0233516
0.0226395
0.0231512
0.0233862
0.0233854
0.0233831
0.0233805
0.0233786
0.0233763
0.0233748
0.0233736
0.0233727
0.0233721
0.0233716
0.0233498
0.0233501
0.0233505
0.023351
0.0233518
0.0233526
0.023354
0.0233552
0.0233568
0.0233568
0.0233233
0.0226151
0.0231257
0.0233601
0.0233593
0.0233569
0.0233542
0.0233522
0.0233499
0.0233483
0.0233471
0.0233462
0.0233456
0.023345
0.0233235
0.0233238
0.0233242
0.0233248
0.0233256
0.0233265
0.0233279
0.0233292
0.0233308
0.0233307
0.023295
0.0225907
0.0231002
0.023334
0.0233331
0.0233307
0.0233278
0.0233258
0.0233234
0.0233218
0.0233205
0.0233196
0.023319
0.0233184
0.0232973
0.0232976
0.023298
0.0232986
0.0232994
0.0233003
0.0233019
0.0233031
0.0233048
0.0233046
0.0232667
0.0225664
0.0230746
0.0233079
0.023307
0.0233045
0.0233015
0.0232994
0.023297
0.0232953
0.023294
0.0232931
0.0232924
0.0232919
0.023271
0.0232713
0.0232718
0.0232723
0.0232732
0.0232742
0.0232758
0.0232771
0.0232788
0.0232785
0.0232383
0.0225421
0.0230491
0.0232818
0.0232809
0.0232783
0.0232752
0.023273
0.0232705
0.0232688
0.0232675
0.0232665
0.0232658
0.0232653
0.0232448
0.0232451
0.0232456
0.0232461
0.0232471
0.0232481
0.0232498
0.0232511
0.0232529
0.0232524
0.0232099
0.0225178
0.0230236
0.0232557
0.0232547
0.023252
0.0232489
0.0232467
0.023244
0.0232423
0.0232409
0.0232399
0.0232392
0.0232387
0.0239781
0.0239795
0.0240013
0.0239541
0.0239567
0.0239766
0.0239303
0.0239341
0.0239539
0.0239059
0.0239105
0.0239312
0.0238804
0.0238856
0.0239075
0.0238529
0.0170373
0.0178549
0.0238592
0.0238823
0.0240041
0.0240283
0.0240046
0.024029
0.0239803
0.0239786
0.0240014
0.0239883
0.0240004
0.0239798
0.0239818
0.0240006
0.0239552
0.0239542
0.0239755
0.023966
0.023957
0.0239731
0.0239489
0.0239727
0.0239567
0.0239577
0.0239757
0.0239304
0.0239303
0.0239512
0.0239422
0.0239098
0.0239246
0.0237663
0.0238619
0.0239339
0.0239338
0.0239517
0.0239055
0.0239058
0.0239273
0.0239182
0.023897
0.0239016
0.0238733
0.0238042
0.0239104
0.0239096
0.0239278
0.0238881
0.023897
0.0238854
0.0238846
0.0239034
0.0238689
0.0238789
0.0238261
0.0188738
0.0170699
0.0213906
0.023832
0.0238556
0.0239751
0.023987
0.0239875
0.0239865
0.0239719
0.0240003
0.0239881
0.0239738
0.0239875
0.0239885
0.0239872
0.0239757
0.0239278
0.0239538
0.023963
0.0239333
0.0238528
0.0239686
0.0239373
0.023868
0.0239477
0.0239651
0.0239557
0.0239286
0.0239746
0.0239568
0.023968
0.0239023
0.0239086
0.0239392
0.0238194
0.0238415
0.0238488
0.0238188
0.0238016
0.0237608
0.0239426
0.0239119
0.0239089
0.0239277
0.0239129
0.0239454
0.0238162
0.0238387
0.0238433
0.0238124
0.0238968
0.0238771
0.0239195
0.0239096
0.0239055
0.0239087
0.0239096
0.0239225
0.0238533
0.0238542
0.0238411
0.0238525
0.0238801
0.0238874
0.0239043
0.0238953
0.0238983
0.0238476
0.0238225
0.0238538
0.0238487
0.023855
0.0238672
0.0239908
0.0239886
0.024001
0.0239914
0.0239991
0.02388
0.0238802
0.0239027
0.0238933
0.0238837
0.0238906
0.0236476
0.0235264
0.023859
0.0238589
0.0238783
0.0239995
0.0239917
0.0240011
0.0239888
0.0239916
0.0238914
0.0238963
0.0239152
0.0166427
0.0179943
0.0218517
0.022374
0.0180788
0.0196518
0.0235023
0.0232707
0.0238951
0.0238939
0.0238835
0.0224335
0.0227288
0.0238819
0.0238705
0.0238726
0.0240151
0.0240137
0.0240022
0.0240023
0.0240138
0.0240152
0.0239905
0.0239933
0.0239909
0.0239997
0.0239919
0.023995
0.0239585
0.0239626
0.0238203
0.0238253
0.0238509
0.0238426
0.0238898
0.0232787
0.0238963
0.0237356
0.0236609
0.0236807
0.0237486
0.0238748
0.023892
0.0239814
0.0237043
0.0239532
0.0236502
0.0239794
0.0239609
0.0239912
0.0239932
0.0239893
0.0239181
0.0239805
0.0239814
0.0238897
0.0238846
0.0239587
0.0239565
0.0239015
0.0239061
0.023935
0.0239603
0.0239646
0.0239547
0.0239589
0.0239343
0.0239668
0.0239719
0.0239764
0.0239661
0.0239704
0.0239649
0.0238298
0.023831
0.0238267
0.0238243
0.0236956
0.0237047
0.0239043
0.0239383
0.0239424
0.0239328
0.0239369
0.0239036
0.0239212
0.0239492
0.0239533
0.0239437
0.0239478
0.0239203
0.016749
0.023827
0.0181263
0.01664
0.0197855
0.0182238
0.0238302
0.0237958
0.0167785
0.0237998
0.0238926
0.0238913
0.0239092
0.0239272
0.0239314
0.0239215
0.0239258
0.0239097
0.0210225
0.0217354
0.0238473
0.0210982
0.0199011
0.0219993
0.0212275
0.0238489
0.019807
0.0209075
0.0238836
0.02354
0.0236672
0.0233078
0.0235137
0.0238847
0.0232123
0.0226901
0.0227869
0.0180793
0.0227616
0.0226512
0.0195465
0.0237287
0.0237423
0.0239974
0.0238538
0.0238531
0.0238769
0.0238672
0.0238632
0.0238727
0.0209921
0.0238337
0.0238494
0.0239974
0.0238736
0.0238826
0.0238901
0.0180776
0.0182951
0.0162196
0.0226354
0.0226086
0.0184909
0.0188311
0.0236812
0.0237241
0.0140917
0.0240066
0.0240071
0.0240006
0.0240003
0.0240071
0.0240066
0.0239647
0.0239695
0.0239649
0.0239514
0.023954
0.0239683
0.0239145
0.0239454
0.023941
0.0239513
0.0239469
0.0239166
0.0237917
0.0238471
0.023864
0.0238103
0.0226804
0.0224486
0.0238733
0.0237555
0.0237997
0.0237853
0.0237759
0.0186146
0.0239949
0.0239925
0.0240001
0.0239766
0.0239652
0.0239571
0.0239825
0.023984
0.0239888
0.0239779
0.0239825
0.0239809
0.0239385
0.0239573
0.0239528
0.0239634
0.0239588
0.0239422
0.0239143
0.0231691
0.0236364
0.0227946
0.0228861
0.0238657
0.023683
0.0237343
0.0239465
0.0238821
0.023921
0.0239444
0.0239611
0.0239627
0.0239518
0.023954
0.0239311
0.0239396
0.0239352
0.0239056
0.0238249
0.0225261
0.0222302
0.0238381
0.0226599
0.0227677
0.0221772
0.0222483
0.0238186
0.0237603
0.0237277
0.0239082
0.0239382
0.0239401
0.0239296
0.0239325
0.0239071
0.023925
0.0239489
0.0239511
0.0239408
0.0239428
0.0239162
0.0238956
0.023688
0.0237348
0.0236266
0.0235957
0.0238844
0.0239099
0.0239158
0.0239201
0.0239097
0.0239143
0.0239089
0.0238546
0.0225481
0.022081
0.0230186
0.0228833
0.0238547
0.0198396
0.0200103
0.0238521
0.0231585
0.0230587
0.0196442
0.0197925
0.0229568
0.0227399
0.0239945
0.0239974
0.0239956
0.0224419
0.0236035
0.0225982
0.0227091
0.0226796
0.023588
0.0239961
0.0239947
0.0239981
0.0239933
0.023995
0.0168315
0.0172653
0.0181612
0.0180957
0.0221086
0.0188104
0.0186278
0.0192363
0.0188639
0.0221756
0.0185173
0.0188193
0.0234175
0.0233784
0.0225824
0.0198016
0.0194327
0.0188619
0.019033
0.0239876
0.0239898
0.0239927
0.0239859
0.0239889
0.0239864
0.0239523
0.0239671
0.023797
0.0238419
0.0238618
0.0238147
0.0233326
0.023751
0.0237181
0.0237844
0.0237611
0.0233224
0.0236401
0.0236073
0.0237077
0.0236586
0.0237098
0.0230486
0.0231788
0.0228052
0.0229828
0.0236988
0.0223196
0.0223891
0.0238267
0.0239743
0.023964
0.0239847
0.0239774
0.0238586
0.0239074
0.0238874
0.0239568
0.0239158
0.0239836
0.0239895
0.0239861
0.0239811
0.0239743
0.0239758
0.0239673
0.0239776
0.023971
0.023981
0.0239849
0.023973
0.0239796
0.0239841
0.0239814
0.023977
0.0230084
0.023097
0.0239072
0.0223133
0.021937
0.023246
0.0223938
0.0213754
0.0210126
0.0218192
0.0215281
0.0238703
0.022918
0.0229852
0.0236474
0.0235608
0.0238773
0.0237181
0.0234515
0.0233482
0.0235445
0.0234781
0.0239491
0.0237461
0.0237784
0.023887
0.0239183
0.0239579
0.0239603
0.0239399
0.0239319
0.0239548
0.0239571
0.0225954
0.022576
0.0238265
0.0204974
0.0204874
0.0189522
0.0203164
0.0203314
0.0207934
0.0204534
0.0203503
0.0225006
0.0226238
0.0238349
0.020419
0.0200321
0.0209225
0.0205373
0.019293
0.0188834
0.0198819
0.0194759
0.0238198
0.0223081
0.0224522
0.023731
0.0237205
0.0239357
0.0239376
0.0239072
0.0239054
0.0239332
0.023935
0.0239461
0.0239482
0.0239241
0.0239172
0.0239434
0.0239455
0.0168764
0.0173161
0.0226623
0.0228559
0.022405
0.0225932
0.0168082
0.0191771
0.0231087
0.0228208
0.0229085
0.0230615
0.0188544
0.0215181
0.0216376
0.0210597
0.0214734
0.0171766
0.0221468
0.0223519
0.0217035
0.0220379
0.0171599
0.0236467
0.0236765
0.0238951
0.0235122
0.0235773
0.0235917
0.0235088
0.0235764
0.023886
0.0235764
0.023621
0.0213185
0.0177252
0.017745
0.0184928
0.0178164
0.0214215
0.0181657
0.0202348
0.0177737
0.0204152
0.0234165
0.0238099
0.0237914
0.0238309
0.0238158
0.0234341
0.0231201
0.0231561
0.0200946
0.0202867
0.0191726
0.0195763
0.0231012
0.0230059
0.0240053
0.024007
0.0240267
0.0238693
0.0238674
0.0238569
0.0240027
0.0240031
0.023999
0.0239984
0.0240029
0.0240027
0.024015
0.0240144
0.024003
0.0239757
0.023971
0.023967
0.0239498
0.0239251
0.0239211
0.0237725
0.0238568
0.0239278
0.0239234
0.0238995
0.0237023
0.0236864
0.023806
0.0237449
0.0237678
0.023897
0.0239804
0.023982
0.0239773
0.0239363
0.02395
0.0239746
0.0239857
0.0239825
0.023985
0.0239663
0.023874
0.0239303
0.0238727
0.0239169
0.0239125
0.0239449
0.023942
0.0239428
0.0239295
0.0239643
0.0239659
0.0239594
0.0239047
0.0239337
0.0239293
0.0227098
0.0225867
0.0238362
0.0237965
0.023724
0.0237174
0.0237553
0.0239109
0.0239298
0.0239304
0.0239269
0.0239405
0.0239413
0.023931
0.0239317
0.0239139
0.0237884
0.0228987
0.0227724
0.0239078
0.0239271
0.0239283
0.0239006
0.0239035
0.0239081
0.0179833
0.017979
0.0232598
0.0231873
0.0238513
0.0180067
0.0179928
0.0238028
0.0238084
0.0238623
0.0239922
0.0239922
0.0165678
0.0168425
0.0169121
0.0178797
0.0181704
0.0167132
0.0167712
0.0180923
0.0178684
0.0194418
0.0230767
0.0230358
0.023307
0.0200875
0.0198638
0.0226223
0.024008
0.0240075
0.0240009
0.0239891
0.0239896
0.0239904
0.0239914
0.0239833
0.0239846
0.0239937
0.0239967
0.0239951
0.0239451
0.0239429
0.0239554
0.0239648
0.0239589
0.0239552
0.0238092
0.0238303
0.0237375
0.0237486
0.0238562
0.0238321
0.023689
0.0237147
0.0233762
0.0233815
0.0235229
0.0235037
0.0232786
0.0233944
0.0234093
0.0238969
0.0237768
0.0238013
0.023868
0.0237631
0.0239039
0.0238869
0.023973
0.0239657
0.0239375
0.0234616
0.0233935
0.0238442
0.0237235
0.0235512
0.0239923
0.0239905
0.0239865
0.0239869
0.0239801
0.0239841
0.0239387
0.0239787
0.0239816
0.0237888
0.0238417
0.0239647
0.0233047
0.0232219
0.023897
0.0239105
0.0239707
0.0239723
0.0239703
0.0239604
0.0239675
0.0239691
0.0238348
0.022574
0.0225841
0.023696
0.0237099
0.0239363
0.023937
0.0239222
0.0239192
0.0239349
0.0239356
0.0168513
0.0180048
0.0200253
0.0201553
0.01862
0.0187331
0.016512
0.0229869
0.0229219
0.0237921
0.0171134
0.0169366
0.0180062
0.0180292
0.0169227
0.0185001
0.0185557
0.0167945
0.0168356
0.0239246
0.0239258
0.0239077
0.0239098
0.023922
0.0239233
0.020533
0.0230258
0.0230895
0.0228901
0.0229581
0.0203297
0.0235995
0.023817
0.0238347
0.0238262
0.0238219
0.0236191
0.0233528
0.0235733
0.0235475
0.0231482
0.0230921
0.0232217
0.018303
0.0184364
0.018487
0.0180674
0.0228492
0.0205301
0.020202
0.0207916
0.0206058
0.0226095
0.0221976
0.0222199
0.0232133
0.02332
0.0237583
0.0239965
0.0239975
0.0239956
0.0180802
0.0181447
0.0200343
0.0199789
0.0160015
0.0186845
0.0183613
0.0183572
0.0182603
0.0183211
0.0187823
0.0142011
0.0230369
0.0230958
0.0240039
0.0240033
0.0239989
0.0239328
0.023929
0.0239506
0.0239473
0.0239574
0.0239652
0.023953
0.0239555
0.0237833
0.0238519
0.0236188
0.0236378
0.0236376
0.0236176
0.0238078
0.0236748
0.0236679
0.0226294
0.0222387
0.022234
0.0223084
0.0222931
0.0225641
0.0239628
0.0239704
0.0239714
0.023968
0.0239695
0.0239602
0.0238773
0.0239381
0.0239077
0.0238967
0.0239303
0.0239435
0.0239443
0.0237236
0.0237279
0.0237852
0.0237389
0.0239286
0.0239292
0.0239094
0.0239391
0.0239398
0.023926
0.0239151
0.0239323
0.023933
0.023628
0.0236906
0.0236655
0.023711
0.0237035
0.0236216
0.017984
0.0180143
0.0180567
0.0180263
0.0196974
0.0187366
0.0187001
0.0223107
0.0223104
0.0228913
0.0224373
0.022532
0.0222619
0.0223373
0.0228143
0.023994
0.0239932
0.0239934
0.023994
0.0239966
0.0239969
0.023998
0.0239949
0.0239957
0.0239957
0.0225633
0.0231432
0.0231109
0.023233
0.0231865
0.0226014
0.0228244
0.0229892
0.022921
0.0230849
0.0230509
0.0227653
0.0239956
0.0239962
0.0239951
0.0239897
0.0239867
0.0239936
0.0239925
0.0165848
0.0176714
0.0169524
0.0169058
0.0181415
0.0181184
0.0196897
0.0197975
0.0187068
0.0167612
0.0166897
0.0183033
0.0173626
0.0173775
0.0172893
0.019153
0.0174692
0.017063
0.0231086
0.0231691
0.0234515
0.0229401
0.0229585
0.0228914
0.0229049
0.0233401
0.0230185
0.0230442
0.0188931
0.0181183
0.0181904
0.018054
0.0180593
0.0189427
0.0239885
0.0239894
0.0239887
0.0239843
0.0239856
0.0239875
0.0239312
0.0239535
0.0239399
0.0239365
0.0239468
0.02395
0.0239397
0.0239434
0.0238024
0.0238356
0.0236611
0.023667
0.0236455
0.0236536
0.0238594
0.0237543
0.0237581
0.0236654
0.0236728
0.023822
0.0236668
0.02343
0.0233901
0.0232991
0.0234876
0.0234667
0.0236266
0.0234296
0.023424
0.0234931
0.0234567
0.0236169
0.0236952
0.0235233
0.0235437
0.0234471
0.0234871
0.0236784
0.0234135
0.0228643
0.0233057
0.0232737
0.0222748
0.0223108
0.023813
0.0239191
0.0239116
0.0237951
0.0238856
0.0239473
0.0239306
0.0235721
0.023514
0.0237775
0.0237907
0.0238946
0.0236937
0.023634
0.0239603
0.0239697
0.0239841
0.0239767
0.0239478
0.0239122
0.0239465
0.0239741
0.0239768
0.0239781
0.0239727
0.0239745
0.0239689
0.0239625
0.0239686
0.0239822
0.0239799
0.0239784
0.0239837
0.0239811
0.0239834
0.0239748
0.0239765
0.0239728
0.0239763
0.0222142
0.0220686
0.0230108
0.0219235
0.0220551
0.021646
0.0224649
0.0212391
0.0211183
0.021715
0.0216249
0.0236041
0.0232068
0.0233023
0.0230116
0.0231067
0.023579
0.0238586
0.0237129
0.0237559
0.0233582
0.0236116
0.0238144
0.0231439
0.0229908
0.0234242
0.0223753
0.0224772
0.0221976
0.0222855
0.0233937
0.0235275
0.0228475
0.0229252
0.0225901
0.022714
0.0235039
0.0238926
0.0239147
0.0205441
0.0190941
0.0192986
0.0186732
0.0188748
0.0205198
0.0193195
0.0194053
0.0193936
0.0198577
0.0203961
0.0175594
0.0177668
0.0179317
0.0175789
0.0205499
0.02042
0.018317
0.0184876
0.0179838
0.0181622
0.0203869
0.0203188
0.0202027
0.0208285
0.0206737
0.0191289
0.0189795
0.0197513
0.0196401
0.0237084
0.023715
0.0239231
0.0239377
0.0239384
0.0239336
0.0239343
0.0239182
0.0169166
0.0195644
0.0198386
0.0177778
0.0165175
0.0189354
0.0192354
0.0174868
0.0172951
0.0215538
0.0192372
0.019255
0.0212728
0.0189766
0.018487
0.0192544
0.0191857
0.021402
0.0179111
0.0176909
0.0181738
0.0183972
0.0170706
0.0171432
0.0176883
0.0236601
0.0237799
0.023771
0.0237926
0.0237865
0.0236683
0.0235343
0.0235649
0.0235621
0.0235059
0.023505
0.0235294
0.0235739
0.0237289
0.0237184
0.0237584
0.0237432
0.0235928
0.0177091
0.0186091
0.0187154
0.0184497
0.0185271
0.0177215
0.01825
0.0193292
0.0195384
0.0188736
0.0190903
0.018013
0.0181306
0.0173745
0.0174466
0.0173696
0.0173603
0.0177881
0.0181967
0.0183529
0.0176371
0.0179156
0.017749
0.0236117
0.0235953
0.0233936
0.0231135
0.023197
0.0181069
0.0182698
0.0193337
0.0183551
0.0181547
0.0186474
0.0185485
0.0194763
0.0180948
0.0180861
0.0222279
0.0222462
0.0240598
0.0240597
0.0240731
0.0240596
0.0240595
0.0240729
0.0240595
0.0240596
0.024073
0.0240597
0.02406
0.0240732
0.0240333
0.0240331
0.0240465
0.0240328
0.0240325
0.024053
0.0240323
0.0240319
0.0240527
0.024032
0.0240324
0.0240528
0.0240328
0.0240333
0.0240533
0.0240337
0.0240339
0.0240469
0.0240072
0.0240066
0.0240264
0.0240061
0.0240048
0.0240256
0.0240181
0.0240178
0.0240287
0.0240171
0.0240175
0.0240284
0.024019
0.0240195
0.0240261
0.0240075
0.0240082
0.024021
0.0239815
0.0239807
0.0240001
0.023993
0.0239929
0.0239994
0.0239973
0.0239971
0.0240004
0.0239922
0.0239936
0.0240032
0.0239823
0.023983
0.0239955
0.0239561
0.0239555
0.0239744
0.0239677
0.0239677
0.0239739
0.023972
0.023972
0.0239751
0.0239681
0.0239691
0.0239781
0.0239578
0.0239583
0.0239706
0.0239308
0.0239306
0.0239493
0.0239428
0.0239431
0.0239492
0.0239481
0.0239482
0.0239511
0.0239453
0.0239457
0.0239544
0.0239337
0.0239336
0.0239459
0.0239054
0.0239055
0.0239243
0.023918
0.0239184
0.0239246
0.0239243
0.0239244
0.0239274
0.0239223
0.023922
0.023931
0.0239093
0.0239088
0.0239212
0.0238797
0.0238799
0.0238991
0.0238996
0.0238998
0.023903
0.0238981
0.0238973
0.0239066
0.0238842
0.0238835
0.0238962
0.0238538
0.0238539
0.0238735
0.0238723
0.0238722
0.0238787
0.0238584
0.0238579
0.0238708
0.0238271
0.0238267
0.0238399
0.023827
0.0238264
0.0238463
0.0238394
0.0238334
0.0238435
0.0189532
0.0235992
0.023625
0.0238322
0.0238326
0.0238524
0.0238317
0.023832
0.023845
0.0238008
0.0238005
0.0238136
0.0238008
0.0237999
0.0238197
0.0237996
0.0205994
0.0205375
0.0226055
0.0238052
0.0238253
0.0238054
0.0238061
0.0238257
0.0238053
0.0238056
0.0238187
0.0237745
0.023774
0.0237872
0.0237616
0.0221603
0.0206164
0.0232358
0.0237776
0.0237985
0.0237792
0.0237797
0.0237929
0.0239781
0.0239812
0.0239812
0.0239825
0.0239835
0.0239788
0.0240011
0.0239978
0.023998
0.0239541
0.023957
0.023957
0.0239595
0.0239596
0.0239554
0.0239772
0.0239726
0.0239737
0.0239304
0.0239334
0.0239333
0.0239369
0.0239374
0.0239332
0.023954
0.0239498
0.023951
0.0239061
0.0239092
0.023909
0.0239136
0.0239145
0.02391
0.0239318
0.0239276
0.0239283
0.0238888
0.0238885
0.0238853
0.023907
0.023904
0.0239044
0.0238469
0.02386
0.0238637
0.015989
0.0195548
0.0195752
0.022019
0.022025
0.0142685
0.0238821
0.0238789
0.0238791
0.0240028
0.0240141
0.0240146
0.0239995
0.0239994
0.0239984
0.0240284
0.0240174
0.0240171
0.0239993
0.0239995
0.0240081
0.0240078
0.0240044
0.0240288
0.0240181
0.0240184
0.0239802
0.0239865
0.0239866
0.0239881
0.0239863
0.02398
0.0239991
0.0239926
0.0239914
0.02399
0.0239896
0.0239867
0.0240001
0.0239982
0.0239986
0.0239811
0.0239904
0.023989
0.023988
0.023988
0.023982
0.0240004
0.0239942
0.0239942
0.0239553
0.0239615
0.0239614
0.0239632
0.0239615
0.0239554
0.0239738
0.0239676
0.0239663
0.023966
0.023969
0.023969
0.0239598
0.0239642
0.0239624
0.0239745
0.0239728
0.0239712
0.0239701
0.0239669
0.0239711
0.0239574
0.0239662
0.0239652
0.0239637
0.0239641
0.0239582
0.0239759
0.02397
0.0239697
0.0239308
0.0239369
0.0239366
0.0239393
0.0239372
0.0239311
0.0239494
0.0239433
0.0239423
0.0239423
0.0239452
0.0239452
0.0239112
0.0239348
0.0239333
0.0239445
0.0239426
0.0239216
0.023934
0.0239428
0.0239425
0.0239398
0.0239405
0.0239346
0.0239523
0.0239464
0.0239458
0.0239059
0.0239122
0.0239117
0.0239151
0.0239126
0.0239064
0.023925
0.0239188
0.0239182
0.0239184
0.0239214
0.0239213
0.0238989
0.0239219
0.0239175
0.0239214
0.0239201
0.0239009
0.0238696
0.0237756
0.0237877
0.0239098
0.0239189
0.0239194
0.0239157
0.0239165
0.0239104
0.0239286
0.0239226
0.0239218
0.0238888
0.0238295
0.0238415
0.0238747
0.0238765
0.0238971
0.023885
0.0238913
0.023895
0.0238909
0.0238917
0.0238854
0.0239043
0.023898
0.0238972
0.0238704
0.0238636
0.0238626
0.0238676
0.0238672
0.0238775
0.0238225
0.02383
0.0238328
0.018673
0.0237724
0.0237594
0.0226157
0.0226202
0.0172412
0.0238211
0.0238305
0.0210983
0.0238387
0.0238395
0.0238303
0.0238535
0.0238428
0.0238455
0.0239769
0.0239778
0.0239761
0.0239885
0.0239836
0.0239821
0.0239844
0.0239843
0.0239874
0.0239849
0.0239823
0.0239865
0.0239985
0.0239982
0.0240001
0.0239876
0.0239894
0.0239898
0.0239748
0.0239729
0.0239717
0.0239873
0.0239864
0.0239867
0.0239883
0.0239852
0.0239854
0.0239857
0.0239861
0.0239877
0.0239768
0.0239783
0.0239776
0.0239312
0.0239483
0.0239464
0.0239604
0.0239585
0.02395
0.02396
0.02396
0.023963
0.0239281
0.0238801
0.0238939
0.023717
0.0237242
0.0238569
0.023903
0.0239095
0.0239407
0.0239653
0.023961
0.0239623
0.0239541
0.0239588
0.02396
0.0239713
0.0239738
0.0239753
0.023961
0.0239619
0.0239577
0.0239708
0.0239711
0.0239667
0.023903
0.0239239
0.0239226
0.0239319
0.0239306
0.0239076
0.0239363
0.0239364
0.0239393
0.0238214
0.0236557
0.02365
0.0237122
0.0237065
0.0238395
0.0238451
0.0237035
0.0237102
0.0236463
0.0236444
0.0238179
0.0239429
0.0239388
0.0239398
0.023924
0.0239244
0.0239089
0.0239482
0.0239484
0.0239443
0.02382
0.0233431
0.0232676
0.0236331
0.0236174
0.023836
0.0238451
0.0237235
0.023718
0.0232436
0.0231596
0.0238084
0.0238965
0.0238701
0.0238726
0.0238006
0.0238112
0.0238803
0.0239204
0.0239159
0.0239166
0.0239092
0.0239168
0.0239181
0.0239086
0.02391
0.0239067
0.0239083
0.0239231
0.0239236
0.0239194
0.0239207
0.0239097
0.0239254
0.0239261
0.0239218
0.0238539
0.0237473
0.0237396
0.0237791
0.0237752
0.0238545
0.0238434
0.0236622
0.0236479
0.0237312
0.0237219
0.0238515
0.0238814
0.0238678
0.0238678
0.0238449
0.0238533
0.0238866
0.0239031
0.0239058
0.0239072
0.0238973
0.0239019
0.0238993
0.0239014
0.023901
0.0238979
0.0238438
0.0233285
0.0232802
0.0231981
0.0232942
0.0238409
0.0238534
0.0237855
0.0237825
0.0238605
0.0238082
0.0238051
0.0239906
0.0239938
0.023994
0.0239938
0.0239951
0.0239901
0.0240001
0.0239968
0.0239955
0.0239987
0.0239974
0.0239979
0.02389
0.0238873
0.0238808
0.0239001
0.0238937
0.0238932
0.0238934
0.0238966
0.0238965
0.0238869
0.0238958
0.0238926
0.0239019
0.0238988
0.0238879
0.0236332
0.0234598
0.0234855
0.0232849
0.023327
0.0235497
0.0238592
0.0238658
0.023869
0.0239984
0.023998
0.0239992
0.0239904
0.0239921
0.0239929
0.0239956
0.0239971
0.0240023
0.0239904
0.0239954
0.0239938
0.0239948
0.0239946
0.0239914
0.0238937
0.0239098
0.023905
0.0239159
0.0239114
0.0238944
0.0239121
0.0239123
0.0239153
0.0219495
0.0209285
0.020822
0.0214693
0.0213687
0.0223081
0.0234782
0.0232078
0.0232435
0.0238948
0.0238917
0.023892
0.0238896
0.0238909
0.0238956
0.0238846
0.0238893
0.0238881
0.0224896
0.0216607
0.0215682
0.0220485
0.0219903
0.0226945
0.0238771
0.0238782
0.0238814
0.0238717
0.023875
0.0238755
0.0238758
0.0238757
0.0238724
0.0240153
0.0240092
0.0240088
0.0240098
0.0240096
0.0240155
0.0240012
0.0240075
0.0240079
0.0240042
0.024004
0.024002
0.0240156
0.0240096
0.02401
0.0240089
0.0240093
0.0240153
0.0239935
0.0239905
0.0239917
0.0239962
0.0239977
0.0239997
0.0239924
0.0239934
0.0239928
0.0239968
0.0239964
0.0239946
0.0238074
0.0238245
0.0238893
0.0238965
0.0238831
0.0238839
0.0237281
0.0236157
0.023629
0.0235091
0.0235294
0.0236728
0.0237152
0.0238329
0.0238299
0.0238376
0.0238355
0.0237244
0.0238762
0.0238667
0.0238661
0.0239745
0.0239806
0.0239832
0.0239771
0.0239549
0.0239713
0.0239674
0.0239805
0.023977
0.0239921
0.023991
0.0239897
0.0239915
0.0239911
0.0239928
0.0239796
0.0239785
0.0239796
0.0239823
0.0239815
0.0239806
0.0237817
0.0237916
0.023895
0.0238798
0.0237641
0.0237726
0.0239425
0.023947
0.0239608
0.0239541
0.0239337
0.0239381
0.0239483
0.0239493
0.023936
0.0239618
0.023961
0.0239596
0.0239639
0.0239625
0.0239632
0.0239561
0.0239553
0.0239539
0.0239581
0.0239567
0.0239575
0.0239335
0.0239466
0.0239475
0.023969
0.02397
0.0239682
0.0239734
0.0239729
0.0239714
0.0239758
0.0239743