/*--------------------------------*- C++ -*----------------------------------*\
| =========                 |                                                 |
| \\      /  F ield         | OpenFOAM: The Open Source CFD Toolbox           |
|  \\    /   O peration     | Version:  5.x                                   |
|   \\  /    A nd           | Web:      www.OpenFOAM.org                      |
|    \\/     M anipulation  |                                                 |
\*---------------------------------------------------------------------------*/
FoamFile
{
    version     2.0;
    format      ascii;
    class       volScalarField;
    location    "400";
    object      p;
}
// * * * * * * * * * * * * * * * * * * * * * * * * * * * * * * * * * * * * * //

dimensions      [0 2 -2 0 0 0 0];

internalField   nonuniform List<scalar> 
6584
(
20.9982
19.1737
17.3488
15.5242
13.6996
11.8751
10.0507
8.22673
6.40304
4.57927
2.75492
0.929398
-0.89769
-2.72621
-4.55556
-6.3851
-8.21429
-10.043
-11.8714
-13.6994
-15.5272
-17.3542
-19.1804
-21.0056
20.9997
19.1781
17.3544
15.5301
13.7058
11.8803
10.0535
8.22808
6.40419
4.5807
2.75664
0.931295
-0.89585
-2.72467
-4.55442
-6.38476
-8.21531
-10.0456
-11.8758
-13.7051
-15.5332
-17.3603
-19.1852
-21.0068
21.0001
19.1813
17.361
15.5383
13.7143
11.8889
10.06
8.23103
6.40586
5.03809
3.21538
1.39114
-0.435562
-2.26485
-4.09571
-6.38849
-8.22357
-10.0559
-11.8861
-13.7146
-15.5415
-17.3666
-19.1881
-21.0078
21.0001
19.1819
17.3633
15.5434
13.7211
11.8968
10.0682
8.23781
6.40998
5.04038
3.2194
1.39692
-0.429555
-2.26139
-4.10085
-5.93955
-8.23956
-10.07
-11.8977
-13.7241
-15.5485
-17.3701
-19.1895
-21.0086
20.9997
19.1817
17.3635
15.5452
13.7253
11.9027
10.0773
8.25263
6.87509
5.04518
3.22502
1.40521
-0.420528
-2.26518
-4.12005
-5.96347
-7.79639
-10.0828
-11.9079
-13.7316
-15.5527
-17.3721
-19.1907
-21.0093
20.9993
19.1814
17.3632
15.5451
13.7267
11.9068
10.0858
8.71979
6.89655
5.0728
3.47039
1.64791
-0.1735
-2.04898
-4.14405
-5.98242
-7.81049
-10.0936
-11.9164
-13.7367
-15.5554
-17.3737
-19.1918
-21.01
20.9989
19.1809
17.3628
15.5446
13.7263
11.9075
10.088
8.722
6.90294
5.08748
3.50422
1.80226
-0.0130356
-2.07172
-3.9378
-6.00189
-7.82499
-10.1033
-11.9226
-13.7402
-15.5577
-17.3752
-19.1928
-21.0106
20.9985
19.1804
17.3622
15.5439
13.7254
11.9064
10.0874
8.72222
6.90007
5.07921
3.49192
1.80829
-2.02582
-3.975
-6.02189
-7.83798
-10.1097
-11.9267
-13.7429
-15.5596
-17.3764
-19.1937
-21.0111
20.9982
19.18
17.3617
15.5432
13.7243
11.9047
10.0848
8.71951
6.89351
5.06318
3.45799
1.71923
-2.14264
-4.01524
-6.03756
-7.84507
-10.1117
-11.9283
-13.7447
-15.5609
-17.3773
-19.1942
-21.0112
20.9979
19.1796
17.3613
15.5425
13.7235
11.9037
10.083
8.71621
6.88676
5.05157
3.43693
1.68145
-2.19377
-4.03656
-6.04398
-7.84695
-10.1097
-11.9261
-13.7438
-15.5611
-17.3775
-19.1943
-21.0111
20.9978
19.1793
17.3609
15.5421
13.7231
11.9032
10.0824
8.71464
6.88466
5.05049
3.43816
1.69506
-2.16832
-4.02627
-6.03635
-7.84093
-10.1035
-11.9201
-13.7392
-15.5592
-17.3772
-19.194
-21.0108
20.9978
19.1793
17.3608
15.5421
13.7231
11.9036
10.0829
8.71497
6.88706
5.0581
3.45571
1.73807
-2.09713
-3.992
-6.01709
-7.82775
-10.0933
-11.9114
-13.7316
-15.5538
-17.3749
-19.1933
-21.0101
20.9979
19.1794
17.361
15.5424
13.7236
11.9047
10.0845
8.71702
6.8919
5.06866
3.4766
1.78446
-2.02164
-3.94934
-5.99201
-7.80993
-10.0796
-11.9
-13.722
-15.5459
-17.3708
-19.192
-21.0092
20.998
19.1796
17.3613
15.5428
13.7243
11.9059
10.0861
8.26396
6.89603
5.07396
3.48205
1.77699
0.0608184
-2.06834
-3.91037
-5.96414
-7.78974
-10.0632
-11.8866
-13.7106
-15.5377
-17.365
-19.1889
-21.008
20.9982
19.1797
17.3615
15.5431
13.7248
11.9064
10.0855
8.2595
6.89175
5.0577
3.4598
1.64724
-0.172972
-2.0337
-4.10676
-5.94092
-8.22564
-10.0518
-11.8777
-13.7024
-15.5302
-17.3573
-19.1823
-21.0053
20.9983
19.1798
17.3616
15.5432
13.7248
11.9059
10.0829
8.2513
6.8758
5.04934
3.22868
1.63523
-0.194905
-2.25878
-4.09814
-5.93257
-8.21891
-10.046
-11.872
-13.7
-15.5259
-17.3517
-19.1768
-21.0024
20.9984
19.1799
17.3614
15.5429
13.7243
11.9042
10.0785
8.24609
6.41548
5.04748
3.22417
1.39907
-0.425887
-2.26055
-4.09614
-5.92768
-8.21259
-10.0394
-11.8665
-13.6945
-15.5216
-17.348
-19.1753
-21.0009
20.9984
19.1798
17.3612
15.5424
13.7232
11.9011
10.0731
8.24153
6.41381
4.59014
3.22104
1.39682
-0.433961
-2.26284
-4.55101
-6.38077
-8.20873
-10.0359
-11.863
-13.6905
-15.5173
-17.3441
-19.1715
-20.9988
20.9984
19.1795
17.3607
15.5417
13.722
11.8978
10.0678
8.23829
6.41198
4.58793
2.75986
0.937407
-0.890626
-2.72353
-4.54966
-6.37908
-8.2064
-10.0336
-11.8605
-13.6876
-15.5144
-17.3415
-19.1684
-20.9968
20.9983
19.1792
17.3602
15.5409
13.7208
11.8951
10.0644
8.2366
6.41067
4.58649
2.75895
0.934972
-0.892461
-2.72289
-4.54889
-6.37784
-8.20462
-10.0318
-11.8584
-13.6854
-15.5123
-17.3393
-19.166
-20.9953
20.9981
19.1789
17.3595
15.54
13.7195
11.8931
10.0622
8.23538
6.40971
4.58532
2.75812
0.93299
-0.894077
-2.7227
-4.54855
-6.37691
-8.20331
-10.0304
-11.8568
-13.6836
-15.5105
-17.3374
-19.164
-20.994
20.9979
19.1785
17.3588
15.539
13.7182
11.8917
10.0608
8.23441
6.40867
4.58435
2.75736
0.931885
-0.894904
-2.72272
-4.54842
-6.37629
-8.20238
-10.0294
-11.8556
-13.6823
-15.5091
-17.3359
-19.1623
-20.9928
20.9977
19.178
17.3581
15.5381
13.717
11.8905
10.0596
8.23324
6.40776
4.58358
2.75685
0.931174
-0.895429
-2.72272
-4.54835
-6.37582
-8.20169
-10.0286
-11.8546
-13.6812
-15.5079
-17.3345
-19.1608
-20.9919
20.9974
19.1776
17.3574
15.5371
13.7158
11.8892
10.0585
8.23217
6.40695
4.58277
2.75645
0.930672
-0.895805
-2.72273
-4.54831
-6.37544
-8.20119
-10.0279
-11.8538
-13.6804
-15.5069
-17.3334
-19.1597
-20.9911
20.9972
19.1771
17.3566
15.5361
13.7146
11.8881
10.0575
8.23117
6.40603
4.58196
2.75612
0.930292
-0.896067
-2.72273
-4.54827
-6.37516
-8.20078
-10.0274
-11.8531
-13.6797
-15.5061
-17.3325
-19.1586
-20.9904
20.9969
19.1766
17.3559
15.5352
13.7134
11.887
10.0566
8.23023
6.4051
4.5812
2.75532
0.929608
-0.896622
-2.72298
-4.54846
-6.37512
-8.20069
-10.0272
-11.853
-13.6795
-15.5056
-17.3318
-19.1578
-20.9898
20.9966
19.1762
17.3552
15.5344
13.7124
11.886
10.0557
8.22941
6.40421
4.57978
2.7539
0.928249
-0.897818
-2.72401
-4.54947
-6.37596
-8.20147
-10.0279
-11.8536
-13.6799
-15.5058
-17.3319
-19.1578
-20.9896
20.9963
19.1757
17.3546
15.5335
13.7113
11.885
10.0549
8.2286
6.40296
4.57801
2.7522
0.926518
-0.899519
-2.72562
-4.55105
-6.37739
-8.20285
-10.0292
-11.8548
-13.681
-15.5068
-17.3329
-19.1587
-20.9899
20.9961
19.1752
17.354
15.5327
13.7104
11.8841
10.0542
8.22741
6.40131
4.57631
2.75052
0.92483
-0.901181
-2.7272
-4.5526
-6.37882
-8.20423
-10.0305
-11.856
-13.6822
-15.5079
-17.3339
-19.1597
-20.9903
20.9958
19.1748
17.3534
15.532
13.7095
11.8831
10.053
8.22573
6.39969
4.57463
2.74888
0.923178
-0.902806
-2.72875
-4.55414
-6.38023
-8.20562
-10.0318
-11.8573
-13.6834
-15.509
-17.3349
-19.1606
-20.9906
20.9956
19.1744
17.3528
15.5313
13.7086
11.8817
10.0511
8.22406
6.39806
4.57295
2.74725
0.921555
-0.904404
-2.73028
-4.55565
-6.38166
-8.20702
-10.0331
-11.8585
-13.6845
-15.5101
-17.336
-19.1616
-20.991
20.9954
19.1741
17.3523
15.5306
13.7071
11.8793
10.0491
8.22238
6.39644
4.57131
2.74564
0.919951
-0.90598
-2.73179
-4.55715
-6.38305
-8.2084
-10.0344
-11.8598
-13.6857
-15.5112
-17.3371
-19.1627
-20.9914
20.9952
19.1737
17.3518
15.5296
13.7046
11.8765
10.0471
8.2207
6.39484
4.56966
2.74404
0.918369
-0.907538
-2.73329
-4.55862
-6.38447
-8.20978
-10.0357
-11.8611
-13.6869
-15.5124
-17.3382
-19.1638
-20.9918
20.995
19.1734
17.3513
15.528
13.7016
11.8736
10.0451
8.21902
6.39324
4.56803
2.74243
0.916802
-0.909085
-2.73476
-4.56009
-6.38586
-8.21116
-10.037
-11.8623
-13.6882
-15.5136
-17.3393
-19.1648
-20.9922
20.9949
19.1731
17.3509
15.5265
13.6989
11.8709
10.0431
8.21733
6.3916
4.56637
2.74081
0.915258
-0.910615
-2.7362
-4.56155
-6.38721
-8.21255
-10.0383
-11.8636
-13.6894
-15.5148
-17.3405
-19.1659
-20.9925
20.9948
19.1729
17.3506
15.5255
13.697
11.8686
10.0412
8.21565
6.39004
4.56472
2.73918
0.913711
-0.912152
-2.73762
-4.56299
-6.3886
-8.21394
-10.0396
-11.865
-13.6906
-15.516
-17.3416
-19.1671
-20.993
1.72788
-1.91407
-1.79398
1.68314
-1.97998
-1.92746
1.69115
-1.95914
-1.98216
1.73182
-1.88617
-1.95176
1.77994
-1.80382
-1.87575
1.79028
0.187188
0.0659058
-1.73528
-1.79424
1.81768
0.217067
-1.77683
-1.70909
3.46617
1.9621
2.03101
-1.03511
-0.890622
-2.13082
-3.55974
-3.52043
3.44005
1.91965
1.95419
1.69857
0.921928
0.949132
-1.2067
-1.16392
-2.19141
-3.59383
-3.57114
3.43589
1.92502
1.91805
1.68115
0.905756
0.903333
-1.24313
-1.24863
-2.17531
-3.5901
-3.59661
3.45045
1.96104
1.9285
1.70904
0.955348
0.931679
-1.12968
-1.1829
-2.10677
-3.55471
-3.58345
-1.00272
-1.07843
-2.0306
-3.50682
-3.54316
-0.903853
-0.944941
1.65122
0.162899
0.177683
-0.0646307
-1.56624
-1.72722
0.953943
1.00415
1.75953
0.8854
0.833002
0.993316
0.89525
-1.1605
-1.07608
-1.86736
-1.15629
-1.2137
0.904065
0.918532
1.69351
0.829611
0.811874
0.82856
0.8309
-1.24423
-1.21208
-1.96528
-1.26654
-1.28463
-1.21652
-1.2627
-1.95789
0.928376
0.90839
1.68276
0.815676
0.840371
0.812235
0.813418
-1.1884
-1.23905
-1.97628
-1.27864
-1.24471
-1.28767
-1.28229
-1.97987
0.842741
0.87252
0.842764
0.838901
-1.08172
-1.12828
-1.91598
-1.18346
-1.16561
-1.24023
-1.18544
-1.92563
0.919835
0.947269
0.876997
0.91495
-0.9512
-0.996312
-1.15936
-1.11474
-1.84416
0.967718
0.939713
0.949591
0.966202
-0.852481
-0.899619
1.77162
1.01434
1.10083
-0.541095
-0.388543
3.47178
2.00413
1.96664
1.75739
1.02671
0.991462
-0.493053
-0.517661
-1.96556
-3.46181
-3.49476
0.615789
0.491799
-1.01296
-1.142
-1.84927
0.987092
0.959119
1.71437
0.421979
0.440299
0.522535
0.535135
0.437904
0.466816
-0.521526
-0.54476
-1.83395
-1.10838
-1.06469
0.53665
0.544506
-1.05874
-1.01897
-1.76666
0.222963
0.953882
1.00554
-0.872068
-0.745857
0.0956375
-0.56871
-0.977627
-0.619276
-0.458923
-0.60044
-0.956515
-1.18558
-1.18736
-1.25731
-1.25713
-1.15847
-1.15616
-1.02156
-0.629562
-1.0538
-0.468643
-0.490622
-0.575928
-0.552281
-0.926282
0.425127
0.858053
0.461761
0.481913
0.463652
0.850487
0.485031
0.5443
0.934575
0.477375
0.424104
-1.12584
-1.12137
0.81548
0.815564
0.842586
0.841598
-1.21799
-1.2149
-1.25789
-1.60799
-1.59787
-1.61881
-1.6109
-1.26098
-1.23717
-1.57384
-1.55441
-1.59383
-1.57921
-1.23776
0.827801
0.829654
0.810189
0.810849
-1.20094
-1.20565
-1.24774
-1.6057
-1.61635
-1.58714
-1.60138
-1.24347
-1.29597
-1.62365
-1.62066
-1.61908
-1.62339
-1.29597
0.42589
0.854541
0.477934
0.457057
0.49603
0.476229
0.85875
0.82324
0.460724
0.826899
-1.10453
-1.10687
-1.21257
-1.56549
-1.58151
-1.54315
-1.56006
-1.21137
0.498484
0.520146
0.893024
0.522333
0.495982
0.553032
0.527184
0.89872
0.471549
0.496277
-0.97027
-0.60123
-0.579395
-0.622287
-0.600734
-0.976911
-0.538192
0.52733
0.537749
0.195279
0.54553
0.525151
-0.0163283
-0.41642
-0.46613
-0.0495553
3.48607
2.13081
2.00831
1.79541
1.1303
1.11753
-0.0297299
-0.741338
-0.788231
0.427573
1.05777
1.03131
1.76358
0.302847
0.297346
0.171795
0.523137
0.505006
0.306458
0.319424
-0.365866
-0.402128
0.0330128
0.310794
0.621726
0.628427
-0.366832
-0.273086
0.17655
0.931391
1.29172
1.28086
-1.1899
-1.02774
-1.17225
0.902659
1.26474
1.26596
1.2656
1.26352
0.902405
-1.25186
-1.25337
-1.14258
-1.16237
-0.22828
-0.231644
-0.920345
-0.549552
-0.557516
0.882308
0.872434
0.200835
0.949397
0.556497
0.66658
-1.14362
-0.986969
-1.02083
-1.19597
-1.5113
-1.47725
-1.54691
-1.52037
-1.20659
0.907412
1.27038
1.26536
1.27911
1.27109
0.908991
0.821005
0.626679
0.654026
0.622287
0.621611
0.813722
0.656759
0.656399
0.835856
-1.23528
-1.2058
-1.26247
-1.42016
-1.39249
-1.44157
-1.43562
-1.27603
1.26814
1.27212
0.917103
0.82141
0.644529
0.621685
0.810702
0.621555
0.622498
0.617005
0.61618
0.811587
-1.18647
-1.22669
-1.26686
-1.43091
-1.43681
-1.37071
-1.40639
-1.24392
-1.29285
-1.44608
-1.44188
-1.4397
-1.44335
-1.29062
-1.09097
-0.917937
-0.916328
-0.982712
-0.963947
-1.1206
-1.19188
-1.52002
-1.53738
-1.49686
-1.51407
-1.18577
0.933438
0.573949
0.555517
0.617319
0.607731
0.937283
0.327608
0.328875
0.957457
0.626852
0.620461
0.329381
0.32814
-0.22292
-0.222102
-0.486284
-0.156979
-0.46226
-0.273553
-0.504688
-0.333217
-0.309584
-0.344745
-0.509362
0.555834
0.380415
0.482239
0.357923
0.536175
0.414072
0.424772
0.314239
0.306235
0.528868
0.35875
0.361641
0.359895
0.35666
0.529686
0.434774
0.44076
-0.529228
-0.529997
0.540807
0.373998
0.366783
0.316409
0.310765
-0.66433
-0.817789
-0.777664
-0.860494
-0.829543
-0.684925
-1.18516
-1.17702
-1.25404
-1.25606
-1.14836
-1.15658
-0.663431
-0.815509
-0.825819
-0.8027
-0.81373
-0.658487
-0.83527
-0.857953
-0.830609
-0.831865
-0.47789
-0.296681
-0.28954
-0.316643
-0.298226
-0.480521
-0.23707
-0.268358
0.452828
0.649567
0.640108
0.672632
0.654146
0.453662
0.618112
0.619819
0.635514
0.619577
0.510716
0.698362
0.678143
0.452106
0.447085
-0.969454
-0.979987
-1.13998
-0.927381
-0.891415
-0.870185
-0.916511
-0.898251
-1.10315
-0.949148
-0.962211
0.619026
0.621294
0.819532
0.560745
0.559146
0.598836
0.563231
0.562164
0.563439
0.560109
0.563052
0.813505
0.621743
0.619744
0.594832
0.588725
0.619872
0.603299
0.596272
0.60037
0.590199
0.594615
0.83654
0.655768
0.654161
-1.23246
-1.20761
-1.42625
-1.42038
-1.25776
-1.27298
-1.43477
-1.42736
0.651254
0.647172
0.823839
0.593027
0.593591
0.549978
0.588061
0.585488
0.597158
0.592392
0.587658
0.619758
0.621382
0.811188
0.562415
0.560094
0.56387
0.562503
0.555529
0.551868
0.559543
0.557207
0.81064
0.61728
0.619156
-1.18759
-1.22057
-1.42001
-1.4275
-1.26167
-1.23935
-1.40923
-1.41648
-1.44764
-1.44569
-1.29461
-1.29267
-1.44553
-1.44638
0.425732
0.461532
0.645257
0.651485
0.634089
0.64197
0.44906
0.489693
0.665122
0.641216
0.653712
0.661843
0.482093
0.613411
0.612295
0.606166
0.612976
0.469308
0.62699
0.632612
0.613087
0.624275
0.463961
-0.942682
-0.924453
-1.09493
-0.875163
-0.90195
-0.861935
-0.865575
-0.906251
-1.11604
-0.954406
-0.936797
0.505169
0.330147
0.334907
0.357966
0.330363
0.50855
0.314929
0.480813
0.337941
0.485113
-0.621033
-0.79122
-0.799314
-0.776737
-0.787697
-0.6129
-0.560281
-0.571257
0.331843
0.344985
0.314771
0.328598
-0.199157
-0.221437
-2.01156
-3.50766
-3.47695
-1.75838
-1.06887
-1.03677
0.361448
0.492768
0.479822
-0.0205383
0.0221485
0.292986
-1.74145
-1.00054
-0.996415
1.30856
1.29452
0.935051
-1.20079
-1.15895
-1.16578
-1.24755
-1.2502
1.28438
1.29182
0.941067
-1.14187
-1.134
-1.17633
-0.913651
-0.89658
-1.06767
0.971432
1.33035
1.31264
0.680004
0.682873
0.837737
-0.920378
-0.942846
-1.09763
0.851346
0.665682
0.678884
-1.24071
-1.17305
-1.17912
-1.21562
-1.34126
-1.33882
-1.2816
-1.38791
-1.38167
-1.2482
0.919674
1.27497
1.28112
0.65824
0.649586
0.835177
-1.19229
-1.15419
-1.1481
-1.23519
-1.27503
-1.33384
-1.33678
-1.2896
-1.3453
-1.34348
-1.3397
-1.34233
-1.28589
0.817364
0.670371
0.662965
-1.22394
-1.36188
-1.36792
-1.14005
-1.47326
-1.49095
0.215018
0.213103
0.63536
0.629002
0.959272
0.219947
0.217228
-0.551966
-0.534343
-0.884078
-0.528417
-0.478766
0.418089
0.388264
0.392009
0.441258
0.43517
0.379421
0.38393
0.411945
0.403424
0.460596
-0.498013
-0.488849
-0.540656
0.370905
0.372775
0.54135
-0.829738
-0.418615
-0.43914
-0.587961
-0.631641
-0.684603
-0.669767
-0.763094
-0.7467
-0.764728
-0.72519
-0.542574
-1.12951
-1.13282
-1.18321
-1.18601
-1.13231
-1.13454
-1.25875
-1.25725
-1.10454
-1.10235
-1.15759
-1.15305
-1.10012
-1.09909
-0.706242
-0.715331
-0.684374
-0.691034
-0.639184
-0.725061
-0.733821
-1.06421
-0.892837
-0.886314
0.426806
0.459615
0.517185
0.517389
0.546076
0.539625
0.477608
0.498896
0.502254
0.514301
0.497602
0.45802
0.698356
0.704192
0.518168
0.46543
0.40029
0.403483
0.426463
-0.79239
-0.781045
0.653822
0.659986
0.849547
0.50487
0.50741
-1.2222
-1.21201
-1.36596
-1.36021
-1.22847
-1.24382
-1.37555
-1.37056
0.833258
0.649619
0.651048
-1.19521
-1.21013
-1.35055
-1.35042
-1.2959
-1.29612
-1.35026
-1.35041
0.429233
0.478439
0.533224
0.534351
0.512703
0.511397
0.45279
0.674152
0.671854
0.820003
0.49614
0.492594
0.504198
0.510695
0.464397
0.51657
0.514915
0.488618
0.485735
-1.34988
-1.3553
-1.21892
-1.20111
-1.33851
-1.34475
0.504064
0.656286
0.664056
0.644253
0.64914
0.499018
-0.5903
-0.736475
-0.773733
-0.724091
-0.730502
-0.587946
-0.62019
-0.681001
-0.680885
-0.54143
-0.503027
-0.586486
0.187715
0.223851
0.236368
0.224644
0.552064
0.3824
0.373543
0.384992
0.383645
0.523468
-0.0627784
-0.0900289
-0.284916
-0.281428
-0.455427
0.398324
0.427171
0.364525
0.299277
0.296789
0.327575
0.328064
0.166506
0.319351
0.274934
0.271154
0.268448
0.272605
0.321114
0.101919
-0.153004
-0.188247
-0.329452
-0.0692124
-0.111364
-1.14735
-1.15279
-1.19516
-1.03147
-1.05974
-1.06305
-1.07098
-1.06436
-1.25059
-1.25144
-1.02808
-1.03576
-1.01385
-1.01992
-1.16917
-1.12542
-1.11727
-0.235739
-0.18149
-0.170984
-0.194012
-0.190003
-0.239628
-0.997215
-1.04167
-1.03446
-1.05911
-1.0508
-1.00922
-1.23756
-1.21435
-1.1809
-1.18047
-1.27869
-1.33645
-1.33395
-1.16499
-1.1598
-1.19217
-1.23233
-1.32711
-1.33068
-1.27153
-1.34806
-1.34666
-1.29113
-1.28869
-1.34458
-1.34626
-0.978749
-1.01835
-1.01213
-1.00974
-1.01572
-0.971475
0.211209
0.209617
0.224956
0.221664
0.329185
0.273514
0.275341
-0.119443
-0.121009
-0.220916
-0.157532
-0.166867
-0.162401
-0.15687
-0.219587
-0.433644
-0.450891
-0.508955
-0.376817
-0.194348
-0.273744
-0.23361
-0.339856
-0.315346
-0.246385
-0.322234
-0.379144
-0.387394
-0.373099
-0.374161
-0.313771
-0.359526
-0.394943
-0.398526
-0.396222
-0.40156
-0.354918
0.394128
0.461841
0.431867
0.377885
0.372593
0.394647
0.38726
0.414477
0.439176
0.393916
0.389187
0.311981
0.309259
0.414367
0.415941
0.361878
0.370942
0.374826
0.433389
0.359033
0.36454
0.344668
0.450792
0.379666
0.370048
-0.466966
-0.473475
-0.529254
-0.4266
-0.431833
-0.406728
-0.416884
-0.534277
-0.478862
-0.470584
0.313175
0.258972
0.263777
0.251042
0.254394
0.310749
-0.714317
-0.698704
-0.642868
-0.702677
-0.737587
-0.729037
-1.10324
-1.18209
-1.13557
-1.14152
-1.08565
-1.07857
-1.09892
-1.09297
-1.25676
-1.25764
-1.06003
-1.06704
-1.04406
-1.05235
-1.15364
-1.09654
-1.08947
-1.10989
-1.10359
-1.15306
-1.07199
-0.696676
-0.699367
-0.649339
-0.698406
-0.702713
-0.842212
-0.791592
-0.781554
-0.811493
-0.802317
-0.850587
-0.833114
-0.77751
-0.773608
-0.77411
-0.771386
-0.832305
-0.738676
-0.311606
-0.369938
-0.373282
-0.24661
-0.258021
0.421142
0.516267
0.51576
0.455537
0.461412
0.530011
0.521209
0.490924
0.494768
0.558504
0.556059
0.619102
0.490801
0.488814
0.39686
0.39594
0.456338
0.364372
0.431252
0.391272
0.397343
-0.975474
-1.02781
-1.02283
-1.03154
-1.03035
-0.974756
-0.946899
-0.937786
-0.883944
-0.833091
-0.847361
-0.820991
-0.825178
-0.877846
-0.906539
-0.859057
-0.866534
-0.899156
0.559461
0.558443
0.59345
0.543094
0.544697
0.531655
0.568251
0.562552
0.563049
0.561044
0.562077
0.589391
0.527696
0.530615
0.529956
0.52797
0.587953
0.618113
0.560676
0.56034
0.537496
0.556864
0.613119
0.507954
0.500057
0.597874
0.54212
0.540058
0.545917
0.544025
0.599317
0.591999
0.535075
0.532166
0.53779
0.535759
0.593142
-1.22677
-1.2083
0.594786
0.543188
0.545353
0.538859
0.540714
0.594628
0.553225
0.544447
0.536656
0.5705
0.58514
0.523755
0.527328
0.523427
0.521356
0.588967
0.59104
0.534994
0.536988
0.530617
0.533167
0.589573
0.562409
0.562036
0.564307
0.562716
0.554618
0.553331
0.559031
0.558993
-1.1901
-1.21515
-1.29575
-1.35017
-1.34924
-1.34793
-1.3493
-1.29472
0.430861
0.528024
0.531976
0.476148
0.449105
0.51329
0.519905
0.502845
0.499534
0.613037
0.554645
0.557017
0.610231
0.554886
0.5391
0.558295
0.558089
0.611701
0.509918
0.506181
0.514428
0.516726
0.467679
0.485618
0.500057
-0.939298
-0.994367
-0.996528
-0.983573
-0.989446
-0.9324
-0.885455
-0.89418
-0.856114
-0.824651
-0.820046
-0.858569
-0.945324
-0.996593
-1.00251
-0.995359
-0.994113
-0.938831
0.33042
0.38459
0.385527
0.38619
0.384938
0.331677
0.342522
0.403746
0.410825
0.38862
0.395019
0.332683
0.308862
0.366624
0.363765
0.367643
0.368446
0.340358
0.384637
0.386947
0.362612
0.368994
0.337169
-0.67782
-0.681162
-0.626015
-0.549686
-0.58115
0.20985
0.213158
0.321396
0.261582
0.250904
0.275971
0.273572
0.326178
0.22921
0.228158
-0.10222
-0.112849
3.23126
2.09568
2.31497
1.64269
0.278396
0.493674
-0.178984
-1.57117
-1.33858
-2.0425
-3.20537
-3.19428
5.08541
3.95399
4.16204
3.49994
2.13531
2.10137
1.68065
0.207685
0.284227
-0.0215354
-1.58673
-1.57864
-2.06082
-3.47
-3.44604
-3.9313
-5.07644
-5.06496
5.08467
3.94995
3.95603
3.49815
2.03898
2.1468
1.82757
1.16297
1.12819
0.0170793
-0.743865
-0.750434
-1.97234
-2.55767
-2.54463
-3.96521
-5.10107
-5.08773
5.07165
3.92454
3.94507
3.48405
3.0288
3.0392
1.79717
1.57316
1.58677
-2.07261
-2.74789
-2.71936
-4.00615
-5.12582
-5.11343
5.05622
3.90245
3.91786
3.45072
2.98735
2.99603
1.71142
1.4753
1.48369
-2.17043
-2.81634
-2.79386
-4.03429
-5.14403
-5.13646
5.04965
3.89784
3.89969
3.43517
2.97022
2.97177
1.68047
1.44292
1.44375
-2.19334
-2.83503
-2.83336
-4.03181
-5.14502
-5.14709
5.05356
3.90894
3.8995
3.44145
2.98006
2.97558
1.6993
1.46597
1.4611
-2.1439
-2.80082
-2.81695
-4.00205
-5.12727
-5.13816
5.06337
3.92626
3.91317
1.7445
1.51655
1.50907
-2.06792
-2.74091
-2.76438
-3.96007
-5.09853
-5.11364
5.07305
3.93918
3.93031
-1.9957
-2.57099
-2.5858
-3.91954
-5.06707
-5.08279
5.0681
4.1514
4.16162
3.46109
2.10271
2.11799
1.76872
1.096
1.10356
0.0308251
-0.307914
-0.35239
-2.03439
-3.42407
-3.45178
-4.11797
-5.03445
-5.05132
5.05138
4.14067
4.14372
3.23053
2.09324
2.10019
1.63777
0.267455
0.286112
-0.190668
-1.56969
-1.56772
-2.02952
-3.18027
-3.41857
-4.10056
-5.02032
-5.02463
3.22621
2.316
2.3184
1.39976
0.491969
0.262579
-0.422853
-1.34518
-1.57051
-2.2591
-3.17923
-3.17803
1.4932
1.50397
1.73758
-1.89883
-1.62879
-1.65275
-1.55905
-1.57983
-1.81205
1.44547
1.44813
1.68579
-1.97638
-1.71414
-1.72052
-1.65969
-1.67858
-1.93907
1.45658
1.45251
1.68781
-1.96574
-1.70326
-1.69197
-1.72154
-1.72309
-1.98289
1.50203
1.49559
1.72578
-1.89587
-1.6237
-1.66403
-1.6874
-1.67285
-1.94368
-1.81369
-1.5876
-1.57727
-1.65401
-1.6425
-1.8651
1.10818
1.13398
1.79768
0.160892
0.295311
0.288803
-0.0657331
-0.0950012
0.100167
-1.56708
-1.55672
-1.78466
1.11136
1.17284
1.82837
0.420964
0.452845
0.478068
0.900012
0.940432
0.263835
0.260377
0.353613
-1.76273
-1.52304
-1.53895
-0.993277
-0.993297
-1.73288
3.00615
3.01733
3.47509
1.99066
2.56053
2.54644
2.58854
2.57514
2.00099
-1.01794
-0.881658
-0.911398
-0.765239
-0.789951
-0.911385
-2.78648
-2.75737
-2.08824
-3.5471
-3.09712
-3.11328
-3.06375
-3.08013
-3.53379
2.97513
2.98035
3.44474
1.92991
2.51493
2.50893
2.53382
2.52325
1.93461
1.46161
1.46798
1.70463
0.92502
1.04498
1.0418
1.06923
1.06435
0.944782
-1.11518
-1.11531
-1.16634
-2.83308
-2.82026
-2.17732
-3.58843
-3.14958
-3.15627
-3.12781
-3.14009
-3.5809
2.97231
2.97043
3.43488
1.91825
2.5046
2.50735
2.50526
2.50386
1.91694
1.44414
1.44306
1.68046
0.90416
1.02575
1.02706
1.02486
1.02425
0.902788
-2.82291
-2.83173
-2.19054
-3.59465
-3.15765
-3.15214
-3.15985
-3.1603
-3.59697
2.99169
2.98554
3.44567
1.94553
2.52468
2.53248
2.51178
2.51766
1.94069
1.47693
1.47129
1.70404
0.944592
1.29533
1.30396
1.04931
1.05217
0.93438
-1.13253
-1.07065
-1.06887
-2.77244
-2.79338
-2.13495
-3.56551
-3.12246
-3.10959
-3.14414
-3.13417
-3.57523
-1.0091
-0.870401
-0.860661
-1.02312
-1.01956
-1.075
-2.60175
-2.61658
-2.05855
-3.51897
-3.06804
-3.05415
-3.09594
-3.08193
-3.53118
-0.909146
-0.794018
-0.788594
-0.831444
-0.824961
-0.938634
1.19872
1.09301
1.6538
0.190974
0.868436
0.860358
0.501804
0.497092
0.14653
-0.746643
-0.740314
-0.0389982
-1.57112
-0.977644
-1.09858
-1.02488
-0.985533
-1.70136
0.95911
1.0797
1.07423
1.3579
1.33603
0.97856
1.74804
1.51593
1.5293
0.874989
0.717802
0.73366
0.979424
0.869936
0.887296
0.774877
0.787403
0.906822
-1.15545
-1.10544
-1.1119
-1.02417
-1.03278
-1.08479
-1.64656
-1.66581
-1.88415
-1.17114
-1.27692
-1.26316
-1.33772
-1.32978
-1.22543
0.904995
1.02667
1.0256
1.03881
1.03576
0.914618
1.68915
1.45168
1.4562
0.826523
0.766225
0.769725
0.749215
0.749514
0.812889
0.771977
0.77361
0.833135
-1.70151
-1.71167
-1.97146
-1.26889
-1.31572
-1.3126
-1.22505
-1.35353
-1.3463
-1.31042
-1.30609
-1.25785
-1.94918
-1.68372
-1.69784
0.925178
1.04332
1.04624
1.02892
1.03096
0.911685
1.68492
1.449
1.44619
0.817147
0.755666
0.752341
0.780638
0.778295
0.838703
0.811257
0.748804
0.749124
0.749782
0.748376
0.812842
-1.71579
-1.70702
-1.97153
-1.29454
-1.29765
-1.24774
-1.9821
-1.72235
-1.71835
0.846833
0.701472
0.694553
0.755554
0.75175
0.868256
0.844539
0.784948
0.783081
0.69266
0.687064
0.835218
-1.08457
-1.02832
-1.02601
-1.07093
-1.07296
-1.12701
-1.6463
-1.62959
-1.90606
-1.1763
-1.31376
-1.31948
-1.27629
-1.28247
-1.17196
-1.2351
-1.2859
-1.2901
-1.32518
-1.33162
-1.19628
-1.93492
-1.66759
-1.65185
0.924613
0.813476
0.808363
0.837333
0.834231
0.944163
0.881987
0.76586
0.76025
0.803212
0.797765
0.909807
-0.957547
-0.844495
-0.837946
-0.85738
-0.848666
-0.989915
-1.1528
-1.26371
-1.27006
-1.44982
-1.46729
-1.13389
-1.85456
-1.63117
-1.62012
0.973446
0.646974
0.638002
0.612463
0.642266
0.969818
0.952694
0.84264
0.840029
-0.879417
-0.524677
-0.49651
1.5437
1.55856
1.78438
1.05009
1.38945
1.36531
1.36774
1.35107
1.0632
-0.312313
-0.343173
-0.412826
1.98927
2.55772
2.56543
2.54082
2.54935
1.98378
1.53126
1.52399
1.75098
1.01162
1.29725
1.30562
1.28003
1.28861
1.0064
-0.496023
-0.436094
-0.43352
-0.457994
-0.456956
-0.515026
-2.54395
-2.55724
-1.98785
0.596091
0.545728
0.569391
0.422051
0.433581
0.504724
-1.07016
-1.41441
-1.3795
-1.46564
-1.42742
-1.08986
-1.83063
-1.60228
-1.62479
0.974803
1.32121
1.27313
1.30767
1.31733
0.970861
1.71992
1.48906
1.48287
0.525566
0.470214
0.467791
0.477873
0.475331
0.532767
-0.526207
-0.468984
-0.462342
-1.60916
-1.59831
-1.82375
-1.08932
-1.42661
-1.44409
-1.35007
-1.42111
-1.08308
0.538609
0.482666
0.480439
0.487747
0.486659
0.543094
-1.04061
-1.32857
-1.33982
-1.30815
-1.31796
-1.03496
-1.77546
-1.54684
-1.53754
0.571145
0.60876
0.285279
1.02295
0.711019
0.676592
0.705811
0.719577
1.02293
-0.856172
-0.723978
-0.743059
-0.426013
-0.413996
-0.820266
0.153684
-0.273658
-0.297644
-0.834129
-0.870806
-0.998332
-0.521653
-0.663951
-0.635419
-0.653543
-0.636886
-0.582321
-0.934365
-0.816302
-0.840301
-0.88248
-0.87272
-1.01547
-1.05775
-1.00247
-0.999677
-0.472224
-0.413361
-0.410094
-0.431739
-0.42884
-0.487762
-0.566866
-0.710886
-0.717407
-0.697628
-0.70424
-0.563057
-0.932429
-0.81849
-0.812055
0.70248
0.713508
0.865977
0.843431
0.685062
0.698289
0.491439
0.557583
0.551286
0.610061
0.599239
0.533659
0.920126
0.802308
0.816888
-1.07413
-1.07893
-1.13159
-1.11487
-1.06311
-1.06883
0.751154
0.751855
0.816907
0.814408
0.750611
0.750917
0.780942
0.782615
0.8451
0.839392
0.778588
0.779787
-1.31814
-1.31535
-1.25543
-1.60478
-1.50014
-1.50324
-1.49363
-1.49622
-1.60141
-1.61643
-1.51116
-1.51318
-1.50605
-1.50875
-1.61387
-1.26478
-1.32455
-1.32119
-1.29021
-1.2871
-1.23519
-1.56784
-1.46424
-1.4701
-1.45076
-1.4578
-1.56147
-1.58921
-1.48511
-1.48967
-1.47532
-1.4803
-1.58442
-1.2386
-1.29288
-1.29063
0.769086
0.767999
0.826925
0.830505
0.771136
0.770225
0.74744
0.747777
0.810937
0.810275
0.747212
0.74738
-1.31131
-1.31522
-1.25214
-1.6096
-1.49983
-1.49555
-1.50749
-1.50387
-1.61327
-1.59212
-1.4845
-1.48278
-1.49135
-1.48777
-1.59697
-1.23957
-1.30355
-1.30732
-1.62314
-1.5166
-1.5167
-1.5148
-1.51598
-1.62223
-1.62108
-1.51311
-1.51064
-1.51614
-1.51502
-1.62265
0.73873
0.703944
0.850944
0.495199
0.551051
0.552875
0.535054
0.536002
0.474908
0.86343
0.746907
0.742179
0.831154
0.684576
0.675683
-1.05033
-1.04751
-1.10214
-1.10896
-1.05378
-1.05207
-1.26626
-1.26704
-1.21326
-1.57077
-1.46341
-1.4577
-1.47655
-1.46974
-1.57614
-1.54885
-1.44084
-1.43498
-1.45225
-1.44667
-1.55456
-1.20923
-1.26311
-1.26449
0.500462
0.443576
0.442895
0.464569
0.459986
0.516743
0.778728
0.772166
0.887405
0.516831
0.575704
0.580466
0.554303
0.55564
0.495745
0.542943
0.685645
0.691559
0.671572
0.678845
0.538921
0.904375
0.791765
0.785335
0.475018
0.418323
0.416252
0.44175
0.439469
0.493564
-0.857431
-0.851127
-0.963845
-0.598585
-0.656009
-0.658669
-0.636931
-0.640589
-0.58319
-0.660336
-0.66264
-0.601124
-0.983549
-0.870233
-0.863904
0.53033
0.388819
0.385278
0.401139
0.391572
0.534078
0.547364
0.490526
0.489068
-0.424471
-0.279827
-0.264124
-0.407099
-0.404328
-0.462517
2.13427
2.58259
2.58294
2.57226
2.57808
2.01866
1.12628
1.3474
1.35114
1.33885
1.34327
1.12181
-0.265149
-0.261048
-0.023196
-0.751808
-0.501097
-0.500478
-0.488718
-0.516574
-0.771024
1.04794
1.32774
1.3337
1.31359
1.32101
1.04422
1.76948
1.54481
1.53823
0.221223
0.231354
0.19752
0.515394
0.40445
0.383327
0.397311
0.400804
0.509109
-0.376677
-0.245085
-0.22437
-0.254056
-0.257932
-0.386084
0.112937
-0.0203018
-0.0497083
0.422768
0.48537
0.334253
0.631337
0.537607
0.52249
0.510223
0.53235
0.630594
-0.348213
-0.266514
-0.286646
-0.124649
-0.0693794
-0.278617
0.266557
0.0165763
0.0280544
1.05174
1.04819
0.928083
1.28719
1.16806
1.17177
1.16167
1.16493
1.28494
-1.16869
-1.11498
-1.11646
1.02423
1.02476
0.903186
1.26421
1.14484
1.14445
1.1469
1.14587
1.26592
1.26394
1.14438
1.14514
1.14403
1.14424
1.26465
0.902493
1.024
1.02391
-1.08224
-1.07574
-1.13713
-0.805699
-0.799676
-0.914568
-0.569165
-0.685127
-0.691291
-0.673293
-0.679049
-0.563314
0.880402
0.658927
0.6097
0.649329
0.653952
0.876529
0.209198
0.428451
0.423756
0.8335
0.851583
0.964576
0.59898
0.740141
0.71767
0.783416
0.763029
0.615796
-1.09107
-1.09796
-1.15008
-1.30063
-1.28924
-1.18422
-1.49974
-1.39413
-1.40537
-1.36982
-1.38252
-1.48959
-1.53887
-1.43452
-1.44288
-1.41569
-1.42555
-1.53028
-1.21617
-1.32068
-1.31103
1.02935
1.02785
0.906089
1.26775
1.14819
1.14991
1.14579
1.14705
1.26751
1.27548
1.15607
1.15896
1.15154
1.15382
1.27422
0.911264
1.03319
1.03102
0.757751
0.761864
0.824336
0.635682
0.698801
0.692783
0.710832
0.706087
0.647884
0.622048
0.686028
0.685973
0.686186
0.686038
0.621765
0.812615
0.749642
0.750024
0.657229
0.714694
0.713485
0.715578
0.715216
0.656949
0.833859
0.774628
0.775717
-1.31454
-1.31615
-1.26752
-1.41812
-1.37009
-1.3694
-1.43898
-1.38482
-1.38671
-1.38124
-1.38323
-1.43842
1.26867
1.15017
1.14858
1.15414
1.15223
1.27118
0.914569
1.03315
1.03538