/*--------------------------------*- C++ -*----------------------------------*\
| =========                 |                                                 |
| \\      /  F ield         | OpenFOAM: The Open Source CFD Toolbox           |
|  \\    /   O peration     | Version:  5.x                                   |
|   \\  /    A nd           | Web:      www.OpenFOAM.org                      |
|    \\/     M anipulation  |                                                 |
\*---------------------------------------------------------------------------*/
FoamFile
{
    version     2.0;
    format      ascii;
    class       volScalarField;
    location    "400";
    object      p_rgh;
}
// * * * * * * * * * * * * * * * * * * * * * * * * * * * * * * * * * * * * * //

dimensions      [0 2 -2 0 0 0 0];

internalField   nonuniform List<scalar> 
6584
(
0.00455988
0.00497241
0.0054665
0.00620373
0.00714336
0.00834857
0.00980015
0.0115063
0.0132771
0.0149779
0.0160865
0.0160482
0.014473
0.0114743
0.00763467
0.0036463
4.81628e-05
-0.00300984
-0.00544849
-0.00733782
-0.00874608
-0.00979427
-0.0104769
-0.0110216
0.00441485
0.00486646
0.00533146
0.00606258
0.00698176
0.00818904
0.00966218
0.0114607
0.0133733
0.0153053
0.0166513
0.0167725
0.0151437
0.0118898
0.0077562
0.0034607
-0.000275089
-0.00338162
-0.00579637
-0.00764013
-0.00899089
-0.0100053
-0.0106351
-0.0112176
0.0041034
0.00456338
0.00497336
0.00566671
0.00653294
0.00773009
0.00925752
0.0113151
0.0135535
0.0156233
0.0182371
0.019388
0.0181528
0.0144232
0.00933997
0.00280309
-0.00126246
-0.00445823
-0.00678595
-0.00847822
-0.00966944
-0.0105641
-0.0110806
-0.0116377
0.00369452
0.00412146
0.00445039
0.00506062
0.00582351
0.00694679
0.00850501
0.0108297
0.013929
0.0169111
0.0211733
0.0240138
0.022992
0.017471
0.0101793
0.00360461
-0.00295848
-0.0062388
-0.00834832
-0.00974999
-0.0106781
-0.0113637
-0.0117158
-0.0121742
0.00322011
0.00357277
0.00378995
0.00425325
0.00483346
0.00574547
0.0071739
0.00954977
0.0124712
0.0178771
0.0247211
0.0311485
0.0308793
0.0214567
0.00989765
0.00122014
-0.00425605
-0.00899654
-0.0106076
-0.011441
-0.0119699
-0.0123399
-0.0124771
-0.012769
0.00270824
0.00294553
0.00301823
0.00325687
0.00354502
0.00398313
0.00497899
0.00649376
0.0103706
0.0164249
0.0264083
0.0430483
0.0489903
0.0299596
0.00684616
-0.00417108
-0.00924192
-0.0126375
-0.0134357
-0.0134695
-0.0134695
-0.0134231
-0.0133026
-0.0133661
0.00219981
0.0022881
0.00219454
0.00214524
0.00205793
0.00184488
0.00210668
0.00297848
0.00484199
0.00969897
0.0228179
0.0541649
0.0951987
0.031457
-0.00129445
-0.0145962
-0.0164902
-0.0173026
-0.0167056
-0.0156963
-0.0150469
-0.0145072
-0.0141047
-0.0138942
0.00174132
0.00166382
0.00140423
0.00104154
0.00053229
-0.000430197
-0.00128694
-0.00157093
-0.00316202
-0.00415466
0.000119014
0.0210433
-0.0124776
-0.0304171
-0.0306959
-0.0259323
-0.0224161
-0.0200283
-0.0178554
-0.0165064
-0.0154539
-0.0147788
-0.0142772
0.00137614
0.00114028
0.000744463
0.000103475
-0.000787709
-0.00241679
-0.00442206
-0.0062522
-0.0117358
-0.0211368
-0.0349212
-0.0713195
-0.125387
-0.0703864
-0.047919
-0.0351837
-0.026846
-0.0227238
-0.0195548
-0.0176004
-0.0161095
-0.0152176
-0.0144467
0.00113637
0.000776205
0.000304426
-0.000511377
-0.00162956
-0.00360474
-0.00632166
-0.00932155
-0.0170074
-0.0311081
-0.0546738
-0.108839
-0.176411
-0.093965
-0.0576367
-0.0406585
-0.0292492
-0.0240719
-0.0203986
-0.0180962
-0.016339
-0.0153311
-0.0143541
0.0010349
0.000604594
0.000133997
-0.000712416
-0.00183552
-0.00371851
-0.00643172
-0.00970959
-0.0168207
-0.0293694
-0.0502831
-0.0925059
-0.154516
-0.0891019
-0.0555253
-0.0402394
-0.0288416
-0.02369
-0.0201712
-0.0178674
-0.0160708
-0.0150722
-0.0139817
0.00106169
0.000621973
0.00022412
-0.000515247
-0.00143848
-0.0028613
-0.00492841
-0.00758201
-0.0119725
-0.0186122
-0.0288169
-0.0450782
-0.0905909
-0.0634765
-0.044007
-0.0345845
-0.0258659
-0.0217268
-0.0189249
-0.0169451
-0.0153232
-0.0144512
-0.0133492
0.00118711
0.000790696
0.000512434
-2.96302e-05
-0.000631846
-0.00142651
-0.00253733
-0.00406917
-0.00524679
-0.00545177
-0.00420212
0.00635465
-0.0269496
-0.0329554
-0.0291482
-0.0262874
-0.0213682
-0.0187611
-0.0169442
-0.0154967
-0.014202
-0.0135317
-0.0125077
0.00137118
0.00105323
0.000909083
0.000592476
0.000327535
0.000129203
-0.000116947
0.000598107
0.000484827
0.00455553
0.0110087
0.0315417
0.0877418
0.0121271
-0.010058
-0.0163011
-0.0180759
-0.0165595
-0.0154738
-0.0146129
-0.0137574
-0.0128445
-0.0124101
-0.0115257
0.00157377
0.00134961
0.00132664
0.00121316
0.00122617
0.00145225
0.00183448
0.00298822
0.00417163
0.00887595
0.0157457
0.028929
0.0384691
0.0171875
-0.00015545
-0.00791042
-0.0110494
-0.0122416
-0.0123771
-0.0122685
-0.011945
-0.0113917
-0.0111874
-0.0104737
0.00176191
0.00163078
0.00170069
0.00174313
0.0019459
0.00241895
0.00311624
0.00460041
0.00597669
0.00969512
0.0150867
0.0198667
0.0186166
0.0121006
0.00336098
-0.00333696
-0.00745257
-0.00899744
-0.00978215
-0.0101409
-0.0102194
-0.00996724
-0.00995348
-0.0094189
0.00191311
0.00186434
0.00199438
0.00214213
0.00244636
0.00303583
0.00379159
0.00533964
0.00705654
0.0088401
0.0116098
0.0131962
0.015776
0.0100765
0.00380806
-0.00107053
-0.00468483
-0.0065867
-0.00768131
-0.00832017
-0.00866593
-0.00863653
-0.00876728
-0.00839988
0.00201503
0.00203355
0.00219342
0.00240314
0.00273514
0.00334405
0.0040029
0.00531237
0.00657214
0.00878811
0.00898371
0.0114738
0.0082727
0.00710551
0.00269978
-0.00066605
-0.00283655
-0.0048925
-0.00603318
-0.00682308
-0.00731864
-0.00744486
-0.0076707
-0.00744814
0.0020637
0.00213414
0.00229989
0.00254055
0.00285078
0.00342898
0.00392573
0.00502258
0.00555589
0.00750553
0.00558726
0.00937947
0.00855478
0.00228744
0.00263835
-0.000567221
-0.00200153
-0.00380868
-0.00480511
-0.00563546
-0.00618334
-0.00640957
-0.00668661
-0.00658381
0.00206097
0.00217017
0.00232549
0.00257918
0.00284137
0.00337944
0.0037035
0.00469109
0.00475452
0.00662354
0.00523276
0.0072324
0.00658383
0.002328
0.00244624
-0.000497248
-0.0014146
-0.00305326
-0.00387839
-0.00469944
-0.00523844
-0.00552565
-0.00582076
-0.00581368
0.00201213
0.0021499
0.00228486
0.00254264
0.00274423
0.00324611
0.00341013
0.00431726
0.00410306
0.00567231
0.00449617
0.00513823
0.00462858
0.00192938
0.00202118
-0.000457071
-0.00100714
-0.00250995
-0.00316526
-0.00395864
-0.00445458
-0.00477833
-0.00506836
-0.0051363
0.0019241
0.00208305
0.00219225
0.00245032
0.00258726
0.00305746
0.00308403
0.00390597
0.00352105
0.00477765
0.00372919
0.00387427
0.00346838
0.00143792
0.00157203
-0.000469747
-0.000765663
-0.00212407
-0.00261715
-0.00337215
-0.00380558
-0.00415005
-0.00441978
-0.0045457
0.00180447
0.00197952
0.00206096
0.00231843
0.00239312
0.00283649
0.00275491
0.00349742
0.00302447
0.00404695
0.00313793
0.00300985
0.00268178
0.00106905
0.00120737
-0.000494404
-0.000622951
-0.00184202
-0.00219337
-0.00290533
-0.0032677
-0.00362271
-0.00386291
-0.00403318
0.0016608
0.00184864
0.00190272
0.00216017
0.00217907
0.00260041
0.00243919
0.00311149
0.00260333
0.00344456
0.00265553
0.00234485
0.00207773
0.000771671
0.000908619
-0.000518377
-0.000535354
-0.00162686
-0.0018607
-0.00252902
-0.00281968
-0.00317889
-0.00338486
-0.00358873
0.00150014
0.00169866
0.00172725
0.00198569
0.00195698
0.00236009
0.00214328
0.00275358
0.00224126
0.00293909
0.00225539
0.00183166
0.00161153
0.000526452
0.000661775
-0.000539317
-0.000480831
-0.00145663
-0.00159485
-0.00222066
-0.00244324
-0.00280252
-0.00297273
-0.0032018
0.00132891
0.00153663
0.00154241
0.00180267
0.00173494
0.00212279
0.00186967
0.00242585
0.00192859
0.00251345
0.00191764
0.00142853
0.00125024
0.00033139
0.00046232
-0.000554238
-0.000445064
-0.00131692
-0.00137823
-0.00196291
-0.00212319
-0.00247959
-0.00261465
-0.00286222
0.00115274
0.00136845
0.00135438
0.00161687
0.00151824
0.00189294
0.00161859
0.00212799
0.00165761
0.00215718
0.00163347
0.00111286
0.000975154
0.000177298
0.000303389
-0.000562005
-0.000418675
-0.00119712
-0.00119703
-0.00174266
-0.00184707
-0.00219848
-0.00230001
-0.00256033
0.000976556
0.00119898
0.00116795
0.0014325
0.00131013
0.00167305
0.00138901
0.00185846
0.00142029
0.00185635
0.00139633
0.000863424
0.000754677
4.73428e-05
0.000178336
-0.000560451
-0.000393251
-0.00108821
-0.00103948
-0.00154798
-0.00160357
-0.00194793
-0.00201859
-0.00228684
0.000804641
0.0010321
0.000986752
0.0012524
0.00111255
0.00146418
0.00117903
0.00161496
0.00121037
0.00159787
0.00119404
0.000658249
0.000576393
-5.39216e-05
8.27053e-05
-0.000550153
-0.000365591
-0.00098575
-0.000898068
-0.00137097
-0.00138411
-0.00171944
-0.00176188
-0.0020338
0.000640736
0.00087097
0.000813582
0.00107855
0.000926251
0.00126625
0.000985835
0.0013931
0.00102332
0.00137359
0.0010198
0.000488359
0.000431938
-0.000130866
1.1794e-05
-0.000530583
-0.000333164
-0.000885762
-0.000766911
-0.00120502
-0.00118146
-0.00150536
-0.00152215
-0.00179351
0.000488188
0.000717932
0.000650407
0.000911829
0.000751372
0.00107905
0.000806472
0.00118728
0.000853033
0.00117499
0.000866981
0.000346625
0.000314667
-0.000186936
-3.77467e-05
-0.000500772
-0.000294113
-0.000784653
-0.000641147
-0.00104471
-0.000989728
-0.00129917
-0.00129289
-0.00155894
0.000350219
0.0005748
0.000499012
0.000752327
0.000587929
0.000900809
0.000639459
0.000994235
0.000695177
0.000994504
0.000729531
0.000227447
0.000218909
-0.000224273
-6.86396e-05
-0.000459944
-0.000247563
-0.000679707
-0.000517817
-0.000885667
-0.000804602
-0.0010956
-0.00106886
-0.00132398
0.000229888
0.000442121
0.0003606
0.000599216
0.000434996
0.000726477
0.000481615
0.00080731
0.000544334
0.000823224
0.00060075
0.000127317
0.000141402
-0.000241535
-8.18129e-05
-0.000405502
-0.000193198
-0.000567501
-0.000394787
-0.000723161
-0.000622391
-0.000888581
-0.00084459
-0.00108099
0.000130764
0.000321427
0.00023782
0.000453021
0.000294904
0.000556211
0.000334249
0.000623988
0.000399182
0.000655161
0.000473486
4.27053e-05
7.74617e-05
-0.000238257
-7.96976e-05
-0.00033697
-0.000133421
-0.000447666
-0.000274212
-0.000557163
-0.000445204
-0.000678517
-0.000621993
-0.000830282
5.50866e-05
0.000202425
0.000126815
0.000295574
0.000161749
0.000366881
0.000188045
0.000415303
0.000243588
0.000456112
0.000327989
-1.59406e-05
3.18127e-05
-0.000196355
-5.86721e-05
-0.000239129
-6.86198e-05
-0.000302897
-0.000152208
-0.000366839
-0.000262175
-0.000440357
-0.000381761
-0.00053982
9.56713e-06
0.000114516
5.32865e-05
0.000176119
7.29441e-05
0.000222598
8.95918e-05
0.000254461
0.00012968
0.000292109
0.000171909
-7.8391e-05
-2.49754e-05
-0.000142886
-3.29203e-05
-0.000147201
-1.71811e-05
-0.000181021
-6.26472e-05
-0.000214553
-0.000128046
-0.000254513
-0.000203071
-0.000313567
-0.0625887
-0.123649
-0.00805076
-0.107304
-0.188629
-0.136684
-0.0968897
-0.170451
-0.190903
-0.0519443
-0.103896
-0.163686
0.00120841
-0.0322534
-0.0945533
0.0303936
0.0975371
0.0920537
0.0153022
-0.0244296
0.0317099
0.0958282
0.00731125
0.0424545
-0.0267737
-0.0551505
0.0167123
-0.0971148
0.0415251
-0.11386
-0.0687479
-0.0305363
-0.0520465
-0.0973644
-0.0631107
-0.0921298
-0.133024
-0.104935
-0.234183
-0.195858
-0.173909
-0.10404
-0.0801694
-0.05348
-0.0894535
-0.0987926
-0.108428
-0.146355
-0.150225
-0.264422
-0.269245
-0.160855
-0.104668
-0.107547
-0.035087
-0.0491518
-0.0854904
-0.0770584
-0.095933
-0.120998
-0.168753
-0.211138
-0.0990929
-0.0769833
-0.0996157
-0.0679309
-0.112422
-0.0341058
-0.0405155
-0.0679245
0.0197101
-0.0156091
0.0317984
0.0288559
0.0894331
0.0308373
0.02463
0.0173845
-0.0998932
-0.0485716
-0.0303053
-0.0538938
-0.107329
0.0589959
-0.043766
-0.192065
-0.109139
-0.0781459
-0.104119
-0.188241
-0.149414
-0.136021
-0.097176
-0.140494
-0.155487
-0.112245
-0.139607
-0.266675
-0.236182
-0.173954
-0.236375
-0.254005
-0.191302
-0.234479
-0.166644
-0.124232
-0.144066
-0.106512
-0.149748
-0.126924
-0.155252
-0.151591
-0.213496
-0.262208
-0.186082
-0.248674
-0.215566
-0.255484
-0.25071
-0.189287
-0.0952166
-0.0637553
-0.124819
-0.099446
-0.115741
-0.164865
-0.130802
-0.161505
-0.115058
-0.212884
-0.164684
-0.139627
-0.013897
0.0157971
-0.0589098
-0.0190608
-0.0211827
-0.0619978
-0.109029
-0.0676555
-0.0666361
0.0392536
0.0544623
0.0184468
0.0374364
0.0456117
0.0231371
-0.017819
-0.0380892
0.0525018
-0.0486061
0.110347
-0.00983076
-0.00112757
-0.0429338
-0.0238668
-0.0200123
-0.0573386
0.0117748
-0.0108167
0.0101477
-0.0112565
-0.0320076
0.111647
-0.0140034
0.0330813
-0.0902849
-0.0606996
-0.0620101
-0.0919085
-0.0711698
-0.0910514
-0.0756726
0.0119525
0.0276054
-0.0733328
-0.0450554
-0.0144497
-0.0377709
-0.0577367
-0.0618143
-0.0227412
0.0284522
0.0366074
-0.0175415
0.0160834
-0.00331394
0.158318
0.105552
0.0728894
0.0582344
0.0992758
0.158396
-0.0670114
-0.0413064
-0.063707
0.0990634
-0.04585
-0.0210995
-0.223426
-0.22042
-0.271268
-0.271313
-0.190262
-0.193055
-0.0858063
-0.070457
-0.0892434
0.0363543
0.0146069
-0.0115753
0.0101771
0.000640611
-0.08971
-0.0817462
-0.114741
-0.0858812
-0.11695
-0.0890842
-0.0802783
-0.0199691
-0.00316357
-0.0277964
-0.0842023
-0.159677
-0.155079
-0.149954
-0.150139
-0.125799
-0.127083
-0.258882
-0.258924
-0.245117
-0.212922
-0.20252
-0.222971
-0.21569
-0.24581
-0.213428
-0.179104
-0.160005
-0.198598
-0.184488
-0.21678
-0.141531
-0.139324
-0.156979
-0.156078
-0.24589
-0.247374
-0.233569
-0.211553
-0.221122
-0.193464
-0.207523
-0.231762
-0.258289
-0.227528
-0.224668
-0.223564
-0.227329
-0.258192
-0.0929806
-0.0828524
-0.0935841
-0.108861
-0.0749285
-0.0911122
-0.078279
-0.115154
-0.110751
-0.110863
-0.137744
-0.141078
-0.191396
-0.173064
-0.1881
-0.151832
-0.167814
-0.187292
-0.0126711
0.010341
-0.0420708
-0.0455221
-0.0720251
-0.0148277
-0.0402605
-0.0361344
-0.0390053
-0.015283
-0.0383776
-0.038977
-0.0149288
-0.0670111
-0.0413326
-0.0444498
-0.0402367
0.0489291
0.0621154
0.0742595
0.0376536
0.0457991
0.0888416
0.0564098
0.0386174
0.208626
0.00860533
0.0230259
0.00361655
0.0190929
0.0322752
0.0175171
0.0606936
0.0439695
0.0471288
0.162786
0.0136227
-0.0151169
-0.0170597
0.0274574
0.030776
0.0752735
0.0613774
0.0740349
0.0328557
0.0337545
0.0671976
0.0601309
0.0813238
0.238931
0.171152
0.126029
0.130323
0.173743
0.241659
-0.12282
-0.102456
-0.113413
-0.229777
-0.216245
-0.208111
-0.150433
-0.129028
-0.127421
-0.128495
-0.130349
-0.150935
-0.268487
-0.269877
-0.178791
-0.202497
0.0451501
0.0385539
0.0057211
0.0128927
0.0315977
0.05537
0.0486992
0.0618275
0.0122573
-0.00790487
0.104455
-0.17931
-0.203097
-0.214516
-0.143554
-0.117995
-0.0849881
-0.152718
-0.126861
-0.154402
-0.145381
-0.123826
-0.128776
-0.115162
-0.123126
-0.143582
-0.145841
-0.159421
-0.15138
-0.167998
-0.166628
-0.153126
-0.149627
-0.145696
-0.134242
-0.264549
-0.245413
-0.241488
-0.224305
-0.223191
-0.243079
-0.238554
-0.251134
-0.125106
-0.120676
-0.136814
-0.147124
-0.155745
-0.159839
-0.156905
-0.169931
-0.168367
-0.163515
-0.168192
-0.154004
-0.227248
-0.256935
-0.242945
-0.234516
-0.238757
-0.202541
-0.211614
-0.224137
-0.257163
-0.246304
-0.242979
-0.241194
-0.243775
-0.255114
-0.125332
-0.127947
-0.119233
-0.175472
-0.163969
-0.153987
-0.140877
-0.13015
-0.146398
-0.108745
-0.124609
-0.134238
0.000635013
0.00733683
-0.0122149
0.0242664
0.0127956
0.00479584
0.049627
0.0561505
0.0274193
0.0342212
0.0270994
0.0428077
0.0478883
0.0544507
0.0481751
0.0136674
0.155227
0.0386163
0.0142355
0.001846
0.00329963
0.0166969
0.000586219
-0.00143094
0.051456
0.0499953
0.153696
0.0231193
0.0326472
-0.0872262
-0.0824301
0.0187578
0.0256138
0.0198267
0.023513
0.0161057
0.0312759
0.025559
0.0215753
-0.0648888
-0.0603012
-0.0238328
-0.0271512
0.0315621
0.0331883
0.0326766
0.0345758
0.038171
-0.103657
-0.0823593
-0.0432436
-0.122988
-0.0933975
-0.114017
-0.22843
-0.211587
-0.269789
-0.271513
-0.18168
-0.199877
-0.0843942
-0.0803663
-0.0904365
-0.0674024
-0.0771566
-0.0793531
-0.105331
-0.114804
-0.0936271
-0.101889
0.027092
0.0345125
0.0423634
0.0177422
0.0304124
0.0243418
0.0300289
0.0181469
-0.104303
-0.0877022
-0.0995168
-0.066932
-0.0831911
-0.100498
-0.115455
-0.122174
-0.10307
-0.112978
-0.0577659
-0.0413482
-0.0614778
-0.0590347
-0.0667206
-0.177744
-0.200013
-0.175899
-0.189415
-0.155263
-0.132145
-0.18576
-0.16152
-0.136245
-0.156168
-0.173446
-0.163053
-0.160308
-0.146352
-0.161077
-0.166238
-0.154952
-0.160736
-0.170844
-0.171983
-0.166925
-0.168809
-0.153092
-0.165538
-0.163635
-0.136227
-0.142308
-0.124405
-0.133623
-0.150376
-0.153413
-0.144008
-0.149167
-0.13323
-0.14427
-0.139097
-0.264124
-0.255454
-0.232026
-0.225511
-0.243248
-0.250185
-0.238268
-0.232664
-0.150803
-0.157056
-0.145481
-0.159751
-0.153843
-0.172634
-0.160673
-0.145951
-0.133743
-0.151956
-0.147021
-0.17038
-0.169976
-0.156374
-0.174433
-0.175478
-0.172295
-0.174471
-0.173336
-0.171336
-0.174972
-0.173553
-0.155346
-0.16865
-0.170109
-0.236561
-0.253621
-0.226158
-0.231746
-0.240134
-0.226038
-0.215382
-0.223152
-0.247384
-0.245703
-0.258067
-0.256351
-0.245696
-0.246138
-0.09895
-0.099883
-0.0925508
-0.0881791
-0.103747
-0.094574
-0.10607
-0.0773423
-0.0734837
-0.0696956
-0.0853641
-0.0763302
-0.0804683
-0.129504
-0.122233
-0.130744
-0.132022
-0.11518
-0.112214
-0.106729
-0.119425
-0.111979
-0.117266
-0.14066
-0.131309
-0.128752
-0.137325
-0.145803
-0.118033
-0.13355
-0.151735
-0.150577
-0.160851
-0.145504
-0.00176493
0.000470179
-0.0115954
0.0141065
0.00467458
0.00211478
0.016919
-0.023721
-0.0138007
-0.020291
-0.0552978
-0.0552438
-0.0642058
-0.0419906
-0.0522889
-0.0518634
-0.0543515
-0.0572718
0.0591026
0.0704463
0.0402503
0.0415424
0.0706101
0.0567141
0.000405922
-0.0187599
0.00401094
0.00244509
0.0206576
0.0359042
0.319424
0.245321
0.215159
0.229094
0.261988
0.325985
0.0349024
0.0798265
0.0479038
-0.0853689
-0.0996024
-0.118913
-0.232352
-0.244541
-0.246248
-0.26702
-0.269389
-0.107449
-0.0992858
-0.110849
-0.222923
-0.219928
-0.208456
-0.116292
-0.106423
-0.102751
-0.0819086
-0.0632217
-0.0812174
-0.118653
-0.11102
-0.101788
-0.125182
-0.149138
-0.130547
-0.117345
-0.129256
-0.120947
-0.265376
-0.248804
-0.251236
-0.238211
-0.254909
-0.253754
-0.25279
-0.219307
-0.214794
-0.228378
-0.133902
-0.117654
-0.110913
-0.132772
-0.141246
-0.13223
-0.216053
-0.227499
-0.224799
-0.260295
-0.246802
-0.249346
-0.250991
-0.256135
-0.256877
-0.256009
-0.252728
-0.254262
-0.252796
-0.122394
-0.129359
-0.131448
-0.204664
-0.196157
-0.200463
-0.0910267
-0.0871924
-0.103321
0.0495892
0.051294
0.0437703
0.0366202
0.02958
0.0471934
0.0481509
0.0366654
0.0501888
0.0350499
-0.0375163
-0.0325174
-0.0892938
-0.0754227
-0.0773281
-0.0780487
-0.0710941
-0.0716539
-0.0734925
-0.0455022
-0.0532825
-0.0498028
-0.0387346
-0.0358347
-0.0347201
0.037928
0.0342036
0.0324116
0.0910093
0.148627
0.117072
-0.0805803
-0.0813281
-0.0703422
-0.0548553
-0.138453
-0.129711
-0.030412
0.00902767
0.0159534
-0.228584
-0.238338
-0.226118
-0.217483
-0.218724
-0.221685
-0.272962
-0.271728
-0.189483
-0.185901
-0.18745
-0.195255
-0.204274
-0.196478
-0.0897532
-0.0925369
-0.0673744
-0.0705326
-0.0734526
-0.0952095
-0.098497
-0.0994955
-0.102755
-0.092452
-0.093836
-0.110457
-0.106771
-0.110208
-0.0782647
-0.0839067
-0.090763
-0.127887
-0.130289
-0.112938
-0.118149
-0.12049
-0.0113125
-0.0353683
-0.0494819
-0.0391415
-0.0423071
-0.0394679
-0.0772287
-0.156171
-0.14797
-0.137365
-0.131657
-0.118853
-0.132886
-0.134649
-0.259878
-0.258834
-0.198565
-0.192544
-0.204475
-0.226118
-0.209839
-0.204367
-0.134517
-0.143363
-0.148855
-0.2432
-0.24887
-0.25911
-0.259139
-0.25846
-0.258562
-0.258959
-0.258935
-0.0949157
-0.095997
-0.0949509
-0.0926612
-0.108277
-0.105801
-0.107825
-0.119621
-0.126827
-0.119306
-0.128666
-0.127178
-0.137051
-0.134902
-0.112513
-0.112731
-0.11038
-0.1265
-0.126044
-0.184779
-0.1907
-0.201586
-0.17709
-0.172215
-0.178496
-0.057527
-0.0518234
-0.045032
-0.0651872
-0.0588117
-0.0617242
-0.028453
-0.0305622
-0.0387912
-0.0182464
-0.0246049
-0.0248949
-0.0613568
-0.0615424
-0.0641626
-0.0469348
-0.0433339
-0.0654911
0.0643838
0.0654265
0.0728884
0.0407733
0.0438738
0.0411299
0.0394101
0.0473404
0.0423409
0.0433696
0.0846317
0.0679512
0.0454765
0.0526555
0.0488987
0.125206
0.215171
0.0810495
0.0287243
0.0296661
0.0675642
0.0937049
0.100969
0.0329911
0.0341559
0.0338016
0.0349244
0.0344471
0.0330742
0.0991429
0.0895858
0.0733607
0.160452
0.234498
0.202611
-0.243223
-0.243549
-0.230955
-0.22101
-0.211902
-0.204993
-0.225333
-0.221318
-0.268427
-0.269259
-0.183767
-0.185688
-0.175759
-0.18019
-0.205391
-0.216352
-0.213136
0.0418627
0.0441718
0.047237
0.0382035
0.0419134
0.03947
-0.206438
-0.194504
-0.19124
-0.201826
-0.198122
-0.210346
-0.264507
-0.239824
-0.251698
-0.255988
-0.251798
-0.252765
-0.251704
-0.241673
-0.231796
-0.218843
-0.259802
-0.245732
-0.247662
-0.245327
-0.258048
-0.257398
-0.256504
-0.254242
-0.255548
-0.256438
-0.16912
-0.162522
-0.168003
-0.156519
-0.159244
-0.165578
0.0529288
0.054499
0.043795
0.0448759
0.0444151
0.0440513
0.0427484
0.0568125
0.0546815
0.0530245
0.0556138
0.0561825
0.0496529
0.0519205
0.0509043
0.00485194
-0.00980308
-0.010688
0.0173518
0.126322
0.107456
0.144369
0.0459451
0.0644966
0.0866859
0.0063794
0.00745953
0.00377155
0.0144894
0.0112843
0.00984481
-0.00576935
-0.00363156
-0.0100267
0.000353778
-0.00239253
-0.0022938
0.0664242
0.0732909
0.0450707
-0.0106039
-0.0257392
0.016013
0.00783018
-0.0884942
-0.0795538
-0.0790856
-0.081416
0.0209711
0.0233593
0.0151694
0.0175304
0.0186326
-0.069583
-0.0702661
-0.0685489
-0.0513576
-0.0422208
-0.0632739
-0.0549975
-0.0652761
-0.0688321
-0.0220483
-0.0199518
-0.0213649
-0.0203419
-0.0248882
-0.0137508
-0.0170271
-0.031075
-0.0326823
-0.0287983
0.03546
0.0360737
0.0355169
0.0368668
0.0365217
0.036565
-0.096811
-0.0842071
-0.0910874
-0.126671
-0.121122
-0.107804
-0.239276
-0.226911
-0.240011
-0.242206
-0.228878
-0.227889
-0.23252
-0.230409
-0.271682
-0.272469
-0.193663
-0.197752
-0.1882
-0.190912
-0.184502
-0.182737
-0.179798
-0.2103
-0.207202
-0.197527
-0.205827
-0.0799827
-0.0865388
-0.0761363
-0.0736947
-0.0767417
-0.108714
-0.1138
-0.110106
-0.118833
-0.116894
-0.111898
-0.096561
-0.0952884
-0.0921883
-0.106035
-0.0989951
-0.0989921
-0.103918
0.0209777
0.0197345
0.0165072
0.0253622
0.0214269
-0.0993552
-0.0999798
-0.103588
-0.107466
-0.0972092
-0.0901559
-0.0954303
-0.124456
-0.126128
-0.127267
-0.125166
-0.119899
-0.118998
-0.12242
-0.0612169
-0.0533478
-0.0503932
-0.0382835
-0.0749523
-0.0765201
-0.0687296
-0.18254
-0.178871
-0.173463
-0.188628
-0.184385
-0.190995
-0.201726
-0.193152
-0.148419
-0.158281
-0.166632
-0.138626
-0.149366
-0.141005
-0.180583
-0.171731
-0.177477
-0.170631
-0.162859
-0.165335
-0.155886
-0.16196
-0.160769
-0.167102
-0.165415
-0.171304
-0.171599
-0.167647
-0.168253
-0.138745
-0.141094
-0.138448
-0.144925
-0.143196
-0.140656
-0.126806
-0.131058
-0.129274
-0.139094
-0.132851
-0.129399
-0.136332
-0.140441
-0.151533
-0.15512
-0.153831
-0.157576
-0.156489
-0.152614
-0.145579
-0.148079
-0.146819
-0.152703
-0.15126
-0.147658
-0.261257
-0.256824
-0.157653
-0.158651
-0.158733
-0.156153
-0.157889
-0.155654
-0.171083
-0.159637
-0.161506
-0.162967
-0.143651
-0.148236
-0.148592
-0.146046
-0.147994
-0.139118
-0.150138
-0.152643
-0.154353
-0.149395
-0.150727
-0.148385
-0.174259
-0.174296
-0.17249
-0.174328
-0.172216
-0.171525
-0.174365
-0.173218
-0.239822
-0.251029
-0.258652
-0.259144
-0.25863
-0.257492
-0.258359
-0.257708
-0.0965842
-0.0937634
-0.0945621
-0.0972863
-0.10738
-0.101991
-0.0970023
-0.132155
-0.130387
-0.12712
-0.128962
-0.130705
-0.132556
-0.135865
-0.138068
-0.132985
-0.135059
-0.133743
-0.133946
-0.133691
-0.115936
-0.115119
-0.114024
-0.125423
-0.117751
-0.137462
-0.138703
-0.141566
-0.132385
-0.135644
-0.134527
-0.140541
-0.142583
-0.122303
-0.127885
-0.122258
-0.129435
-0.156969
-0.150145
-0.153428
-0.144126
-0.146836
-0.152788
-0.00465177
-0.00587661
-0.00111982
-0.0129688
-0.00998395
-0.00914928
0.0112324
0.0118296
0.013732
0.00376253
0.00829951
0.00805762
0.0141462
-0.0226146
-0.0210301
-0.0335159
-0.0266178
-0.0148369
-0.0165787
-0.0151517
-0.0206565
-0.0203986
-0.0154739
-0.0562319
-0.0592444
-0.0584714
-0.0509239
-0.0606319
0.0566487
0.0595449
0.0417325
0.0416458
0.037645
0.0415392
0.041063
0.041369
0.0419251
0.0430709
0.0620064
0.0579401
0.0264008
0.0359181
0.0281964
0.0396027
0.0444692
0.03229
0.0435133
0.0334963
0.0270825
0.028229
0.015812
0.0156015
0.013729
0.0204595
0.0213488
0.0251727
0.0450437
0.0384403
0.0551559
0.0866047
0.0500189
0.085966
0.0455975
0.036253
0.0329686
0.00822134
0.0135234
0.00270253
-0.00452686
0.000414453
0.0036877
0.00518409
0.018145
0.00791254
0.0257572
0.0452372
0.0544207
0.0873672
0.0751506
0.136836
0.0955209
0.0774241
0.0303425
0.0141135
0.0201952
-0.0211692
-0.0205401
-0.0112179
-0.0129107
-0.0229677
-0.00118062
-0.00868598
-0.00944494
0.00184544
0.0089024
0.011933
0.0266245
-0.0571221
-0.051595
-0.0245475
-0.0611321
-0.0446106
-0.0321019
-0.0274887
-0.0440787
-0.029561
-0.0420538
-0.0511401
-0.0425498
-0.0792113
-0.0887123
-0.0802149
-0.152845
-0.119222
-0.0966849
-0.0908813
-0.0650191
-0.0561741
-0.0316799
-0.0459798
-0.0463209
-0.0558063
-0.0666069
-0.0656793
-0.109626
-0.12077
-0.120107
-0.176822
-0.139931
-0.137088
-0.093019
-0.0704717
-0.0699407
-0.0247392
-0.0312385
-0.043415
-0.0460539
-0.0532196
-0.0586834
-0.0877751
-0.0948557
-0.100214
-0.132305
-0.111454
-0.125134
-0.0710543
-0.0597999
-0.0668162
-0.0119018
-0.0102947
-0.0260752
-0.0380248
-0.0397293
-0.0478239
-0.0652325
-0.0611673
-0.0805858
-0.0402763
-0.0404242
-0.0505895
7.71044e-05
0.0057804
-0.00552006
-0.00743729
-0.0175684
-0.0283385
-0.0145497
-0.021427
-0.0304184
0.00726865
0.0108294
0.00794087
0.0157788
0.02696
0.0262979
0.033351
0.0443127
0.0486672
0.0606426
0.0676981
0.0649706
0.0178572
0.00273437
-0.00640249
-0.00370288
-0.0082793
-0.0140599
0.00962826
0.0129553
0.0124216
0.0161323
0.020573
0.0253587
0.021906
0.0227784
0.038815
0.0227842
0.017007
0.0225065
0.0144864
0.00720168
0.00386248
0.00246582
-0.0020417
-0.0045616
0.0132276
0.0163179
0.0181114
0.0136462
0.0193417
0.0181941
0.0190809
0.0105996
0.0152526
0.0112691
0.00670315
0.00755526
-0.0705915
-0.0596578
-0.0527644
-0.108691
-0.121943
-0.145315
-0.000595646
-0.0199559
-0.0250144
-0.118503
-0.115916
-0.10476
-0.184986
-0.205552
-0.211716
-0.152039
-0.170537
-0.148061
-0.105192
-0.10967
-0.100674
-0.176503
-0.196169
-0.185469
-0.212698
-0.214301
-0.191778
-0.0554944
-0.062541
-0.0585785
-0.112594
-0.121695
-0.106927
-0.181172
-0.167523
-0.156218
-0.0404985
-0.0391143
-0.0303624
-0.0979211
-0.0874881
-0.0850307
0.0468566
0.0365088
0.0219281
0.0969463
0.0902407
0.0852085
0.08738
0.0778766
0.0949556
-0.0219181
-0.013579
-0.0168673
0.064384
0.0889675
0.0516805
0.374649
0.330868
0.339134
0.0826041
0.101467
0.137326
0.370039
0.387799
0.0191474
0.0305197
0.0172213
0.068462
0.0790494
0.0395352
-0.0324371
-0.0211764
-0.0178234
-0.0260904
-0.0237796
-0.0380707
0.00577835
-0.00869139
-0.0153977
-0.0804215
-0.0874549
-0.116308
0.0525607
0.029379
0.0220484
-0.0893905
-0.0607431
-0.0722268
-0.0561673
-0.0600751
-0.0760182
-0.0282446
-0.043741
-0.0433035
-0.0628013
-0.0579221
-0.0477542
-0.0874133
-0.0693833
-0.0750983
-0.0507024
-0.061221
-0.0827636
-0.102526
-0.0961116
-0.0860599
-0.129847
-0.12292
-0.126118
-0.0981312
-0.103076
-0.10926
-0.203365
-0.206873
-0.200031
-0.136541
-0.123247
-0.159708
-0.0981048
-0.112708
-0.119808
-0.0904949
-0.102883
-0.0901629
-0.0629096
-0.065619
-0.0553232
-0.0974996
-0.077657
-0.0740527
-0.0783365
-0.0791546
-0.0991585
-0.119045
-0.120398
-0.109401
-0.14817
-0.140933
-0.139498
-0.142561
-0.143155
-0.150798
-0.130328
-0.137171
-0.174445
-0.107773
-0.123826
-0.11969
-0.12401
-0.12535
-0.108872
-0.0395151
-0.0467387
-0.0408868
-0.0664265
-0.0537093
-0.0447812
-0.068644
-0.0617636
-0.0718135
-0.082921
-0.0890564
-0.0825569
-0.106989
-0.095536
-0.0861741
-0.116454
-0.113417
-0.11824
-0.172466
-0.171786
-0.168592
-0.0873998
-0.10498
-0.124221
-0.0854597
-0.0952422
-0.0846317
-0.11323
-0.104936
-0.0931611
-0.0739383
-0.0766944
-0.0675035
-0.113594
-0.110496
-0.109269
-0.0405913
-0.0520347
-0.057217
-0.0494157
-0.0513206
-0.0407697
-0.0734984
-0.0621901
-0.0586401
0.0152358
0.0188243
0.0235395
-0.0139918
-0.00819462
-0.0100736
0.0358158
0.0421946
0.033236
0.0534654
0.0457525
0.0404313
0.0720345
0.0698357
0.0616252
0.0373126
0.0415095
0.0529809
0.0248122
0.0365252
0.0304012
0.0389007
0.0377234
0.0232438
-0.0944136
-0.0873589
-0.0929806
-0.0349546
-0.0573928
-0.0747683
-0.0420447
-0.047386
-0.033717
-0.0644601
-0.0783506
-0.0633203
0.0439511
0.0483106
0.0670286
-0.0504237
-0.037682
-0.0318513
-0.188101
-0.195684
-0.199809
-0.11427
-0.122864
-0.117751
-0.0840808
-0.102684
-0.0944287
-0.118699
-0.110987
-0.0976074
-0.170195
-0.162872
-0.173239
-0.148305
-0.140693
-0.14181
-0.128977
-0.131735
-0.138965
-0.101477
-0.11242
-0.107932
-0.142753
-0.146235
-0.144367
-0.159545
-0.158979
-0.154329
-0.142818
-0.141175
-0.137407
-0.193011
-0.203144
-0.180071
-0.238552
-0.230647
-0.227245
-0.201656
-0.186057
-0.178703
-0.226081
-0.223346
-0.232336
-0.158023
-0.175606
-0.189422
-0.127557
-0.122748
-0.119654
-0.137676
-0.1358
-0.14167
-0.103978
-0.113564
-0.116705
-0.14912
-0.151482
-0.153158
-0.128945
-0.130829
-0.128427
-0.156315
-0.160355
-0.159866
-0.154994
-0.156423
-0.152154
-0.207724
-0.199689
-0.181771
-0.210215
-0.213655
-0.218543
-0.191213
-0.213633
-0.210076
-0.0908267
-0.0935134
-0.101196
-0.06791
-0.0718583
-0.0682706
-0.12329
-0.126129
-0.127266
-0.103845
-0.109076
-0.10313
-0.118844
-0.119706
-0.116665
-0.165958
-0.163432
-0.161081
-0.142638
-0.127136
-0.121788
-0.152582
-0.148473
-0.15423
-0.113129
-0.11896
-0.121279
-0.21035
-0.204063
-0.20672
-0.160108
-0.166098
-0.173884
-0.148134
-0.162531
-0.147815
-0.00881821
-0.00732359
-0.0127499
0.0184787
0.0150415
0.0123522
-0.053559
-0.0564104
-0.0626111
-0.0181226
-0.0236976
-0.0244572
-0.0268771
-0.0259775
-0.019921
-0.064413
-0.055763
-0.0561107
-0.103017
-0.101402
-0.107281
-0.0660357
-0.0817712
-0.085362
-0.0757426
-0.0773436
-0.0674961
0.0466691
0.0580349
0.0469148
0.0677703
0.0600363
0.0480116
0.0219185
0.024405
0.0214643
0.0372277
0.0539682
0.0598593
-0.0188691
-0.00339488
-0.00454206
-0.0011592
-0.00220434
-0.0273201
0.0347466
0.0169331
0.0124931
0.126537
0.0976247
0.087332
-0.0178326