/*--------------------------------*- C++ -*----------------------------------*\
| =========                 |                                                 |
| \\      /  F ield         | OpenFOAM: The Open Source CFD Toolbox           |
|  \\    /   O peration     | Version:  5.x                                   |
|   \\  /    A nd           | Web:      www.OpenFOAM.org                      |
|    \\/     M anipulation  |                                                 |
\*---------------------------------------------------------------------------*/
FoamFile
{
    version     2.0;
    format      ascii;
    class       surfaceScalarField;
    location    "400";
    object      phi;
}
// * * * * * * * * * * * * * * * * * * * * * * * * * * * * * * * * * * * * * //

dimensions      [0 3 -1 0 0 0 0];

internalField   nonuniform List<scalar> 
13181
(
8.65048e-06
0.00915669
8.30335e-06
0.00916735
7.13673e-06
0.00916767
5.86981e-06
0.00916777
3.85995e-06
0.00916901
-3.6457e-06
0.00917401
-8.29742e-06
0.0091713
-8.93333e-06
0.00916734
-7.52646e-06
0.00916524
-2.45673e-06
0.00916158
6.75235e-06
0.00915749
1.83273e-05
0.00915508
2.89252e-05
0.00915605
3.53014e-05
0.00916032
3.63966e-05
0.00916555
3.31737e-05
0.00916987
2.72909e-05
0.00917258
2.01177e-05
0.00917382
8.73016e-06
0.00917789
-1.04253e-06
0.00917677
-1.35956e-05
0.00917905
-1.86966e-05
0.0091716
-1.96948e-05
0.009168
0.00914527
1.22995e-05
0.00914143
3.50819e-05
0.00914456
3.53517e-05
0.0091674
3.47479e-05
0.00916837
2.86524e-05
0.00917511
9.41402e-06
0.00919324
-1.56799e-05
0.0091964
-2.35178e-05
0.00917517
-2.21164e-05
0.00916384
-1.22161e-05
0.00457573
0.00457595
6.43529e-06
0.00456937
0.00456947
3.07957e-05
0.00456515
0.00456557
5.31537e-05
0.00456636
0.00456733
6.64547e-05
0.00457292
0.0045741
6.84836e-05
0.00458118
0.00458234
5.40749e-05
0.00918428
3.20526e-05
0.00919461
1.01587e-05
0.00919572
-1.28324e-05
0.00920088
-2.08917e-05
0.00918483
-2.15004e-05
0.00917966
-2.25044e-05
0.00917261
-4.7322e-07
0.00914597
0.00914095
-3.95074e-06
0.00914057
-9.00511e-07
0.00914151
1.893e-05
0.00914757
1.69358e-05
0.00917036
1.79536e-05
0.00917409
1.92337e-05
0.00919196
-1.3573e-05
0.0092292
-3.50754e-05
0.00919668
-1.8358e-05
0.00917012
-2.29941e-05
0.00457245
-1.50792e-05
0.00456395
-5.43828e-06
1.085e-05
-1.721e-06
0.0045569
9.96434e-06
-1.8964e-05
0.00455783
2.74949e-05
-3.48139e-05
0.00456741
4.03225e-05
-4.32252e-05
0.00458108
4.33323e-05
4.29075e-05
0.00461045
-3.35229e-05
-4.47926e-05
0.00460924
4.63309e-06
0.00923288
-8.20238e-06
0.00920855
-6.9518e-06
0.00919963
-8.40926e-06
0.00918629
-9.93901e-06
0.00918119
7.4939e-06
0.00915517
8.37282e-06
0.00914509
0.00914317
-9.87101e-06
0.00914384
-1.28214e-05
0.00914446
-1.32904e-05
0.00914804
3.99547e-07
0.00915668
-4.19471e-06
0.00917868
-3.92968e-06
0.0091917
-8.25269e-06
0.00923353
-2.83193e-05
0.00921674
-3.38685e-05
0.00461491
-3.68372e-05
0.0045976
0.00456705
-3.00744e-05
-0.00457084
0.00454937
-1.71167e-05
-0.00455729
2.50341e-05
5.34313e-06
0.00453045
9.8497e-06
-0.00454564
-2.70053e-05
0.00452943
4.34831e-05
-0.00454591
-5.57533e-05
0.0045625
5.4726e-05
-0.00456148
-3.77928e-05
0.00461144
1.66607e-05
-0.00459031
-2.66765e-06
0.00461344
-3.29195e-07
3.24043e-05
0.00461293
-1.37654e-05
-2.41886e-06
0.00460373
2.5675e-05
0.00921528
1.7273e-05
0.00920803
6.51855e-06
0.00919704
1.79718e-05
0.00916974
1.72397e-05
0.0091559
1.19335e-05
0.00915039
0.00914697
-1.17385e-05
0.00914744
-1.6385e-05
0.00914911
-2.18362e-05
0.00915349
-2.38095e-05
0.00915865
-1.73895e-05
0.00917226
-2.0878e-05
0.00919519
1.2379e-05
0.00920027
2.07255e-05
0.00458985
8.57101e-06
0.00460998
0.00464227
-6.63495e-06
0.00457438
-3.2679e-05
-0.00456783
2.6128e-05
0.00454653
-3.96737e-05
-0.00454259
3.57379e-05
2.33574e-05
3.64265e-06
-0.0045102
0.00224132
0.00224188
-3.68499e-05
6.9414e-05
-0.00450686
0.00223719
0.00223711
-8.01745e-05
4.44267e-05
-0.0045801
0.00230183
0.00231401
-5.49658e-05
0.00461172
5.62031e-05
-0.00461296
-4.77473e-05
0.00462129
4.78021e-05
-0.00462134
-4.5695e-05
0.00461408
4.45496e-05
5.1272e-05
0.00924325
-4.24679e-05
-3.6771e-05
3.13379e-05
0.00922796
3.3247e-05
0.00919513
2.78545e-05
0.00917513
1.9687e-05
0.00916407
1.3837e-05
0.00915624
0.00915127
-1.28151e-05
0.009151
-1.77104e-05
0.00915401
-2.40922e-05
0.00915987
-3.304e-05
0.0091676
-3.8306e-05
0.00917753
-4.12794e-05
0.00919816
-2.60649e-05
0.00921966
-3.46054e-05
0.00459894
-3.51552e-05
0.00460429
2.07669e-06
-0.00463635
2.9988e-05
0.00458081
2.12682e-05
-0.00458359
-1.84886e-05
-0.00228237
-1.11197e-06
0.00228756
-4.08035e-06
-0.00222833
1.33199e-05
0.00223004
-1.50278e-05
-0.0022138
-2.29276e-05
0.00220065
3.60764e-05
-0.00229115
-3.00054e-05
0.00226278
5.83727e-05
-4.28731e-05
0.000106805
-0.00461883
-4.68442e-05
0.00229664
0.00230511
-0.000102567
0.00463761
8.80623e-05
-0.00462311
-7.20121e-05
-0.00462451
0.00463812
5.84008e-05
6.5069e-05
0.00927961
-5.28702e-05
-4.85566e-05
5.16691e-05
0.00924136
4.04243e-05
0.00920638
2.84427e-05
0.00918711
2.03451e-05
0.00917217
1.42509e-05
0.00916234
0.00915543
-1.34244e-05
0.00915461
-1.85044e-05
0.00915909
-2.45496e-05
0.00916591
-3.28508e-05
0.0091759
-4.48895e-05
0.00918957
-5.63632e-05
0.00920963
-3.71422e-05
0.00923758
-3.71405e-05
-0.00460795
0.00461777
-4.69606e-05
-0.00460593
0.00462105
-7.44258e-05
5.9297e-05
-0.0045915
0.00461613
9.3926e-05
-5.59132e-05
-6.26471e-05
-0.00227512
5.71138e-05
0.00227605
-5.80461e-05
-0.00111071
1.95339e-05
0.00110666
-1.54765e-05
-1.37809e-05
-0.00105579
0.00105012
1.94587e-05
-4.85257e-05
-0.00228168
9.50304e-05
-3.49058e-05
0.00112205
0.00114803
-0.000106525
-0.00231122
0.00232358
9.417e-05
-0.000141058
-0.00466177
0.00469109
0.000111738
-8.79823e-05
-0.00465377
0.004673
6.87467e-05
7.41066e-05
0.00931082
-5.21892e-05
-5.31329e-05
5.48243e-05
0.00926065
3.69379e-05
0.00922427
2.51603e-05
0.00919889
1.73545e-05
0.00917998
1.19414e-05
0.00916775
0.00915778
-1.25022e-05
0.00915739
-1.71802e-05
0.00916376
-2.25462e-05
0.00917128
-3.08246e-05
0.00918418
-4.18894e-05
0.00920063
-5.8034e-05
0.00922578
-3.57778e-05
0.00925596
-4.06394e-05
-0.0046282
0.00463917
-4.67531e-05
-0.00464063
0.00465983
-8.04405e-05
6.12396e-05
-0.00465061
0.00468878
0.000107142
-7.11535e-05
-7.41554e-05
-0.00231181
9.96325e-05
0.00233235
-0.000120175
-0.00112493
0.00010551
0.00113865
-0.000119228
-0.000145926
-0.00116068
0.0011748
0.000131812
-0.000147685
-0.00237023
0.00239233
0.00012558
-0.000162835
-0.00472936
0.00476677
0.000125417
-9.75715e-05
-0.00469588
0.0047161
7.73524e-05
6.88689e-05
0.00935666
-5.40681e-05
-6.06337e-05
3.9822e-05
0.00928969
2.62584e-05
0.00923783
1.73439e-05
0.0092078
1.21798e-05
0.00918514
9.3864e-06
0.00917055
0.00915923
-1.11504e-05
0.00915957
-1.39189e-05
0.00916653
-1.78507e-05
0.00917521
-2.27805e-05
0.00918911
-2.96286e-05
0.00920748
-3.9314e-05
0.00923546
-3.04724e-05
0.00927173
-2.4612e-05
-0.00464214
0.00465103
-3.93539e-05
-0.00468245
0.00469745
-6.96981e-05
5.4697e-05
-0.00472612
0.00475345
8.91115e-05
-6.13475e-05
-5.50941e-05
-0.00239184
8.63724e-05
0.0024075
-0.000102028
-0.00122798
9.05739e-05
0.00123687
-9.94637e-05
-0.000121479
-0.00127694
0.00128782
0.000110599
-0.000111778
-0.00245387
0.00247175
9.38999e-05
-0.000110855
-0.00480166
0.00482773
8.47773e-05
-6.47698e-05
-0.00473399
0.00474734
5.14264e-05
4.77042e-05
0.00937583
-2.76823e-05
-3.91966e-05
2.33579e-05
0.00931404
1.02384e-05
0.00925095
6.61367e-06
0.00921143
4.71674e-06
0.00918704
3.79599e-06
0.00917147
0.00915786
-8.64084e-06
0.00916053
-1.07357e-05
0.00916863
-1.23311e-05
0.00917681
-1.47115e-05
0.00919149
-1.61376e-05
0.00920891
-1.7806e-05
0.00923713
-1.29746e-05
0.00927302
-6.12231e-06
-0.00465884
0.00466663
-2.07631e-05
-0.00470683
0.00471019
-2.72891e-05
2.39296e-05
-0.00476948
0.00477266
3.01947e-05
-2.09001e-05
-1.24839e-05
-0.00243608
2.73558e-05
0.00243871
-2.99832e-05
-0.00127007
2.24783e-05
0.00127092
-2.33263e-05
-2.26178e-05
-0.00132918
0.00133026
2.1547e-05
-2.35237e-05
-0.00250297
0.00250578
2.07145e-05
-1.88144e-05
-0.00484246
0.00484441
1.68704e-05
-1.52113e-05
-0.00475571
0.0047582
1.2724e-05
1.12227e-05
0.00937216
1.66983e-06
-9.22209e-06
1.38177e-05
0.00931144
-2.23935e-06
0.00926701
-6.63009e-06
0.00921582
-3.68001e-06
0.00918409
-1.83752e-06
0.00916962
0.00915454
-6.36505e-06
0.00916088
-6.81573e-06
0.00916908
-6.66089e-06
0.00917665
-5.12931e-06
0.00918995
-3.463e-06
0.00920724
2.98125e-06
0.00923069
3.88988e-06
0.00926445
7.66682e-06
-0.00466902
0.00466934
3.57076e-06
-0.00470765
0.0046997
1.66164e-05
-8.65835e-06
-0.00476366
0.00474521
-2.9361e-05
2.02869e-05
2.75299e-05
-0.00242739
-3.19555e-05
0.00241838
4.09686e-05
-0.00125245
-3.99589e-05
0.00124735
4.50584e-05
7.00109e-05
-0.00130342
0.00129582
-6.2417e-05
6.37736e-05
-0.00249048
0.00247951
-5.27948e-05
6.96529e-05
-0.00483437
0.00481503
-5.03135e-05
3.47253e-05
-0.00475384
0.00474436
-2.52501e-05
-2.46344e-05
0.00934998
2.72486e-05
1.95698e-05
-9.25687e-06
0.00929607
-3.9005e-07
0.00925814
-1.94794e-05
0.00923491
-1.33717e-05
0.00917798
-7.86294e-06
0.00916411
0.00914944
-3.72024e-06
0.00916035
-2.33896e-06
0.0091677
-4.52964e-07
0.00917477
3.07288e-06
0.00918643
9.76388e-06
0.00920055
2.16497e-05
0.0092188
1.58239e-05
0.00925127
1.90054e-05
-0.00466347
0.00465706
2.2235e-05
-0.0046882
0.00467473
4.55174e-05
-3.20498e-05
-0.00472007
0.00469268
-6.48544e-05
4.5101e-05
4.71394e-05
-0.00238199
-6.54578e-05
0.00236837
7.90767e-05
-0.00120144
-7.10006e-05
0.00119378
7.86658e-05
0.00010922
-0.00123375
0.00122487
-0.00010034
0.000110983
-0.00243402
0.00241731
-9.42757e-05
0.000123975
-0.00478691
0.0047539
-9.09611e-05
6.86163e-05
-0.00473044
0.00471427
-5.24479e-05
-4.8376e-05
0.00931443
4.3673e-05
4.02527e-05
-2.64147e-05
0.00927411
-1.17046e-05
0.00924343
-4.52788e-06
0.00922773
-2.17507e-05
0.0091952
-1.41188e-05
0.00915648
0.0091425
-1.52417e-06
0.00915929
6.99428e-07
0.00916547
3.56147e-06
0.0091719
8.83097e-06
0.00918116
1.64387e-05
0.00919294
2.9555e-05
0.00920569
2.35366e-05
0.00923305
2.4235e-05
-0.00464903
0.00464118
3.13878e-05
-0.00466059
0.00464744
5.38761e-05
-4.0735e-05
-0.00466574
0.00464251
-7.12195e-05
4.81915e-05
4.62513e-05
-0.00233008
-6.59697e-05
0.00231965
7.64009e-05
-0.00114575
-6.16912e-05
0.00114129
6.61501e-05
0.00010021
-0.001164
0.00115625
-9.24613e-05
0.00011006
-0.00236884
0.00235488
-9.60993e-05
0.000128889
-0.00471815
0.00468869
-9.94261e-05
7.75428e-05
-0.00469774
0.00468186
-6.16686e-05
-5.71575e-05
0.00927832
4.63594e-05
4.69067e-05
-3.36242e-05
0.00925057
-1.72532e-05
0.00922706
-1.39653e-05
0.00922444
-2.50241e-05
0.00920626
-1.95825e-05
0.00915104
0.00913429
5.55628e-07
0.00915753
2.60827e-06
0.00916342
6.20976e-06
0.0091683
1.10627e-05
0.00917631
1.83165e-05
0.00918569
2.8778e-05
0.00919523
4.23941e-05
0.00921944
3.65832e-05
0.00925037
2.73293e-05
-0.00463429
-0.00463761
-0.00463654
0.00462918
4.39471e-05
-0.00462449
0.00463133
3.91488e-05
-4.59905e-05
-0.00230531
-7.65963e-06
0.00233078
-1.7805e-05
-0.00114923
3.54891e-05
0.00113102
-1.72802e-05
-0.000306244
8.39303e-06
0.000317233
-1.93825e-05
3.73502e-05
-0.00112458
0.00226136
-7.68903e-05
3.21903e-05
-0.00112942
-0.00232513
7.65306e-05
0.00232073
-7.21334e-05
9.6951e-05
-0.00466616
0.00464915
-7.99398e-05
6.54798e-05
-0.00467001
0.00466583
-6.13008e-05
-5.30075e-05
0.00925135
3.76076e-05
4.2371e-05
-3.28191e-05
0.00923038
-1.81597e-05
0.0092124
-2.9223e-05
0.00923551
-1.76836e-06
0.00917881
-2.14387e-05
0.00917071
0.00912795
9.8554e-07
0.00915639
2.94336e-06
0.00916146
5.71774e-06
0.00916553
9.36811e-06
0.00917266
1.52033e-05
0.00917985
2.08305e-05
0.0091896
1.51982e-05
0.00922507
-5.8429e-06
0.00929941
-2.79971e-05
-0.00463871
0.00465658
-2.37172e-05
-0.00464168
0.00462183
-2.18379e-06
2.20264e-05
-0.00229726
-1.6978e-05
0.00229348
2.07544e-05
-0.00226284
-1.16276e-05
0.00226963
4.83937e-06
-0.000883933
3.13979e-05
0.00188199
-5.68897e-05
-0.00097257
-0.00228949
6.52788e-05
0.00228396
-5.9749e-05
-0.0046143
7.14974e-05
0.00462497
-0.000129987
4.78152e-05
0.000121058
-0.00463988
0.00462796
-0.000109139
-0.000134865
0.00924177
6.79954e-05
9.99875e-05
-0.0046812
-0.00459369
-0.000107064
0.00922354
-8.59701e-05
0.00920929
-6.6921e-05
0.00919335
-1.18044e-05
0.00918039
-1.61451e-06
0.00916862
6.40704e-06
0.00916269
0.00915251
1.34057e-06
0.00915554
2.41021e-06
0.00916039
4.01786e-06
0.00916392
6.57808e-06
0.0091701
9.06174e-06
0.00917737
7.65499e-06
0.00919101
-1.62211e-05
0.00924894
-2.82485e-05
0.00930166
9.77429e-06
-0.00465312
0.00462416
7.18001e-07
-0.00460928
0.00460881
1.63893e-05
-1.59285e-05
-0.0045947
0.00460316
4.60431e-06
-1.30642e-05
-0.0022848
2.63468e-06
0.00228788
-5.71313e-06
-0.00193303
2.22431e-05
0.00195232
-4.15408e-05
-0.00228335
4.04188e-05
0.00457925
-8.95004e-05
-0.00228544
3.86227e-05
-0.0046161
9.95128e-05
0.00460971
-9.31194e-05
-0.00462064
8.83976e-05
0.00461444
-8.21974e-05
-0.000100357
0.00920468
6.41622e-05
7.32762e-05
-7.102e-05
0.00919421
-6.01792e-05
0.00919845
-5.39817e-05
0.00918715
-4.74278e-05
0.00917384
-3.99251e-05
0.00916111
-2.9606e-05
0.00915237
0.00914339
7.35246e-07
0.00915562
1.76211e-06
0.00915937
2.56256e-06
0.00916312
3.43646e-06
0.00916922
3.5904e-06
0.00917721
-7.07529e-06
0.00920167
-2.3227e-05
0.0092651
7.69684e-06
0.00927074
5.18424e-06
0.00924025
-0.0046228
-0.00461669
1.74918e-06
-0.00461132
0.00461251
3.99198e-06
-0.00461015
0.00461603
-5.14809e-06
-7.28952e-07
-0.00458669
1.32122e-05
0.00459033
-1.68609e-05
-0.00416862
3.53757e-05
0.00419116
-5.79118e-05
-0.00458899
6.27462e-05
0.00459337
-6.71262e-05
-0.00460453
6.72348e-05
0.00460208
-6.47897e-05
-0.00461033
6.3132e-05
0.00460739
-6.01847e-05
-9.7281e-05
0.00919302
5.30848e-05
5.58574e-05
-8.10529e-05
0.00917798
-6.40882e-05
0.00918149
-4.65633e-05
0.00916963
-3.08724e-05
0.00915815
-2.40645e-05
0.0091543
-2.17784e-05
0.00915009
0.00914381
3.00753e-07
0.00915615
2.33987e-07
0.00915943
-2.71594e-07
0.00916363
-4.77235e-07
0.00916943
-4.35938e-06
0.0091811
-2.60725e-05
0.00922338
-2.51335e-05
0.00926416
-2.93344e-06
0.00924854
-8.45916e-06
0.00924578
-8.35165e-06
0.0092412
-0.00461437
-0.00461543
-1.15046e-05
-0.00462128
0.00462535
-1.24245e-05
-0.00458974
2.00165e-05
0.00457894
-9.21862e-06
-0.00421096
3.15483e-05
0.0042345
-5.50894e-05
-0.00459797
4.39892e-05
0.00460229
-4.83087e-05
-9.42002e-05
0.0092047
-0.00460199
-0.00460197
4.48731e-05
4.85904e-05
-9.12099e-05
0.00920653
-0.00460534
-0.00460418
-8.3496e-05
0.00918531
-7.65102e-05
0.00917099
-6.17881e-05
0.00916676
-4.89845e-05
0.00915682
-3.81822e-05
0.00914734
-2.93426e-05
0.00914547
-1.70269e-05
0.00913777
0.00915
-3.50467e-07
0.00915714
-1.48355e-06
0.00916057
-2.20123e-06
0.00916434
-3.28901e-06
0.00917052
-6.30661e-06
0.00918411
-2.27634e-05
0.00923984
-1.4448e-05
0.00925584
-5.90292e-06
0.00924
-1.34752e-05
0.00925335
-2.34669e-05
0.00925119
-3.07504e-05
0.00926426
-0.00463171
-0.00462528
-5.39497e-05
0.00884997
-0.00453306
-0.00429371
-7.65155e-05
0.00882166
-0.00428337
-0.00451573
-7.93724e-05
0.00922458
-0.00460839
-0.00461333
-7.93522e-05
0.00920468
-7.77237e-05
0.0092049
-7.23793e-05
0.00917996
-6.69559e-05
0.00916557
-5.64599e-05
0.00915627
-4.74406e-05
0.00914781
-4.08533e-05
0.00914076
-3.04297e-05
0.00913504
-2.16612e-05
0.009129
0.00915205
-1.13103e-06
0.00915853
-2.25997e-06
0.0091617
-4.07062e-06
0.00916615
-5.83853e-06
0.00917228
-9.1627e-06
0.00918744
-1.838e-05
0.00924906
-1.37379e-05
0.0092512
-1.0783e-05
0.00923704
-1.64358e-05
0.00925901
-2.49239e-05
0.00925968
-3.10472e-05
0.00927039
-4.55246e-05
0.00886444
-5.96322e-05
0.00883577
-6.42317e-05
0.00922918
-6.73795e-05
0.00920783
-6.67761e-05
0.0092043
-6.33554e-05
0.00917654
-5.90192e-05
0.00916123
-5.15629e-05
0.00914881
-4.43723e-05
0.00914061
-3.77975e-05
0.00913418
-3.0117e-05
0.00912736
-2.28862e-05
0.00912177
0.00915295
-1.98017e-06
0.00916026
-4.02419e-06
0.00916374
-6.30021e-06
0.00916843
-8.57293e-06
0.00917456
-1.09359e-05
0.0091898
-1.41218e-05
0.00925224
-1.37136e-05
0.00925079
-1.39482e-05
0.00923727
-1.87615e-05
0.00926382
-2.60266e-05
0.00926694
-3.00926e-05
0.00927445
-4.04753e-05
0.00887483
-5.06084e-05
0.0088459
-5.41395e-05
0.00923271
-5.79425e-05
0.00921163
-5.77894e-05
0.00920414
-5.56086e-05
0.00917436
-5.26362e-05
0.00915826
-4.72326e-05
0.00914341
-4.14825e-05
0.00913486
-3.56853e-05
0.00912839
-2.91014e-05
0.00912078
-2.2831e-05
0.0091155
0.00915366
-2.85834e-06
0.00916228
-5.2285e-06
0.00916611
-7.34888e-06
0.00917055
-9.97884e-06
0.00917719
-1.26795e-05
0.0091925
-1.3639e-05
0.0092532
-1.53326e-05
0.00925249
-1.92123e-05
0.00924115
-2.01498e-05
0.00926476
-2.61914e-05
0.00927298
-2.93824e-05
0.00927764
-3.66565e-05
0.0088821
-4.36586e-05
0.00885291
-4.6995e-05
0.00923605
-5.03421e-05
0.00921498
-5.04696e-05
0.00920427
-4.92054e-05
0.0091731
-4.72803e-05
0.00915634
-4.25449e-05
0.00913867
-3.89097e-05
0.00913123
-3.31637e-05
0.00912264
-2.80143e-05
0.00911563
-2.30913e-05
0.00911058
0.0091536
-4.24391e-06
0.00916501
-5.85431e-06
0.00916772
-8.71819e-06
0.00917342
-1.10841e-05
0.00917955
-1.39678e-05
0.00919539
-1.50629e-05
0.0092543
-1.68969e-05
0.00925432
-2.05454e-05
0.0092448
-2.08147e-05
0.00926503
-2.58132e-05
0.00927798
-2.83234e-05
0.00928015
-3.35032e-05
0.00888728
-3.83546e-05
0.00885776
-4.13245e-05
0.00923901
-4.42517e-05
0.00921791
-4.44751e-05
0.00920449
-4.37246e-05
0.00917235
-4.18629e-05
0.00915448
-3.8991e-05
0.0091358
-3.57193e-05
0.00912796
-3.08114e-05
0.00911773
-2.64421e-05
0.00911126
-2.17559e-05
0.00910589
0.00915417
-4.62118e-06
0.00916739
-7.40386e-06
0.0091705
-9.91973e-06
0.00917593
-1.2432e-05
0.00918206
-1.53883e-05
0.00919834
-1.60163e-05
0.00925493
-1.7922e-05
0.00925622
-2.12693e-05
0.00924815
-2.35475e-05
0.0092673
-2.53006e-05
0.00927973
-2.71224e-05
0.00928198
-3.086e-05
0.00889102
-3.42278e-05
0.00886112
-3.68289e-05
0.00924162
-3.93189e-05
0.0092204
-3.95825e-05
0.00920476
-3.91259e-05
0.00917189
-3.77644e-05
0.00915311
-3.50313e-05
0.00913307
-3.24058e-05
0.00912533
-2.91665e-05
0.00911449
-2.5427e-05
0.00910752
-2.18586e-05
0.00910232
0.00915379
-5.49072e-06
0.00916986
-7.8778e-06
0.00917289
-1.09783e-05
0.00917903
-1.35662e-05
0.00918465
-1.60179e-05
0.00920079
-1.66145e-05
0.00925552
-1.8615e-05
0.00925823
-2.16339e-05
0.00925117
-2.46006e-05
0.00927027
-2.45817e-05
0.00927972
-2.59218e-05
0.00928332
-2.84207e-05
0.00889352
-3.09739e-05
0.00886368
-3.29164e-05
0.00924356
-3.5226e-05
0.0092227
-3.54991e-05
0.00920503
-3.53315e-05
0.00917172
-3.43649e-05
0.00915215
-3.25911e-05
0.00913129
-3.04523e-05
0.00912319
-2.67493e-05
0.00911079
-2.35153e-05
0.00910429
-2.0453e-05
0.00909926
0.00915386
-6.35129e-06
0.00917238
-8.79088e-06
0.00917533
-1.14151e-05
0.00918166
-1.40257e-05
0.00918726
-1.69298e-05
0.0092037
-1.74549e-05
0.00925605
-1.89916e-05
0.00925976
-2.17353e-05
0.00925391
-2.43657e-05
0.0092729
-2.96631e-05
0.00928501
-2.9025e-05
0.00928268
-3.01674e-05
0.00889466
-3.098e-05
0.00886449
-3.26096e-05
0.00924519
-3.41438e-05
0.00922424
-3.43461e-05
0.00920523
-3.44686e-05
0.00917185
-3.40342e-05
0.00915171
-3.35909e-05
0.00913085
-2.93246e-05
0.00911893
-2.60421e-05
0.00910751
-2.27039e-05
0.00910095
-1.95529e-05
0.00909611
0.00915379
-7.20484e-06
0.00917489
-9.65271e-06
0.00917778
-1.17581e-05
0.00918376
-1.48554e-05
0.00919036
-1.71752e-05
0.00920602
-1.81085e-05
0.00925698
-1.92447e-05
0.0092609
-2.17279e-05
0.0092564
-2.65591e-05
0.00927773
-3.09882e-05
0.00928944
-3.15479e-05
0.00928324
-3.29765e-05
0.00889609
-3.42152e-05
0.00886573
-3.59907e-05
0.00924696
-3.74098e-05
0.00922566
-3.7531e-05
0.00920536
-3.74243e-05
0.00917174
-3.62079e-05
0.0091505
-3.50029e-05
0.00912964
-3.3455e-05
0.00911738
-3.09688e-05
0.00910502
-2.89106e-05
0.00909889
-2.6075e-05
0.00909327
0.00914606
-8.05103e-06
0.00917736
-1.04725e-05
0.0091802
-1.30296e-05
0.00918632
-1.50802e-05
0.00919241
-1.73023e-05
0.00920824
-1.81313e-05
0.00925781
-1.94401e-05
0.00926221
-2.41078e-05
0.00926106
-2.8226e-05
0.00928185
-3.04851e-05
0.0092917
-3.06501e-05
0.0092834
-3.16794e-05
0.00889712
-3.24759e-05
0.00886653
-3.38896e-05
0.00924838
-3.50918e-05
0.00922686
-3.51922e-05
0.00920546
-3.50758e-05
0.00917162
-3.43758e-05
0.0091498
-3.2835e-05
0.0091281
-3.14583e-05
0.009116
-2.96961e-05
0.00910326
-2.73518e-05
0.00909654
-2.52438e-05
0.00909117
0.00913803
-8.88933e-06
0.00917975
-1.07536e-05
0.00918206
-1.32349e-05
0.0091888
-1.52271e-05
0.0091944
-1.78446e-05
0.00921086
-1.85725e-05
0.00925854
-2.19351e-05
0.00926557
-2.64576e-05
0.00926559
-2.81574e-05
0.00928355
-2.99915e-05
0.00929354
-3.00245e-05
0.00928344
-3.06485e-05
0.00889774
-3.10618e-05
0.00886694
-3.23079e-05
0.00924962
-3.32857e-05
0.00922784
-3.33069e-05
0.00920548
-3.31514e-05
0.00917147
-3.24314e-05
0.00914908
-3.14856e-05
0.00912716
-2.97201e-05
0.00911424
-2.76245e-05
0.00910116
-2.64094e-05
0.00909533
-2.39691e-05
0.00908873
0.00913012
-9.21245e-06
0.00918153
-1.20042e-05
0.00918486
-1.38877e-05
0.00919068
-1.63156e-05
0.00919683
-1.78225e-05
0.00921236
-2.14746e-05
0.00926219
-2.51528e-05
0.00926925
-2.66007e-05
0.00926703
-2.81402e-05
0.00928509
-2.97312e-05
0.00929513
-2.94827e-05
0.00928319
-2.98739e-05
0.00889813
-2.99355e-05
0.008867
-3.09847e-05
0.00925067
-3.18705e-05
0.00922872
-3.17525e-05
0.00920536
-3.15924e-05
0.00917131
-3.08179e-05
0.0091483
-2.99309e-05
0.00912627
-2.82223e-05
0.00911253
-2.67297e-05
0.00909967
-2.45993e-05
0.0090932
-2.27564e-05
0.00908688
0.00912227
-1.05159e-05
0.00918367
-1.22107e-05
0.00918655
-1.39852e-05
0.00919246
-1.63455e-05
0.00919919
-2.1273e-05
0.00921729
-2.73618e-05
0.00926828
-2.53917e-05
0.00926728
-2.67231e-05
0.00926837
-2.80969e-05
0.00928646
-2.95681e-05
0.0092966
-2.92372e-05
0.00928286
-2.93496e-05
0.00889824
-2.92213e-05
0.00886687
-3.00886e-05
0.00925154
-3.06989e-05
0.00922933
-3.05825e-05
0.00920524
-3.03601e-05
0.00917109
-2.9502e-05
0.00914744
-2.81446e-05
0.00912491
-2.74429e-05
0.00911183
-2.55187e-05
0.00909775
-2.39102e-05
0.00909159
-2.21172e-05
0.00908509
0.00911393
-1.07748e-05
0.00918515
-1.28721e-05
0.00918865
-1.50245e-05
0.00919461
-1.63201e-05
0.00920049
-3.12111e-05
0.00923218
-2.71837e-05
0.00926425
-2.56767e-05
0.00926577
-2.69449e-05
0.00926963
-2.82455e-05
0.00928776
-2.95703e-05
0.00929792
-2.91601e-05
0.00928245
-2.90774e-05
0.00889816
-2.87117e-05
0.00886651
-2.94398e-05
0.00925227
-2.99415e-05
0.00922984
-2.96538e-05
0.00920495
-2.93662e-05
0.0091708
-2.84488e-05
0.00914653
-2.75987e-05
0.00912406
-2.58807e-05
0.00911011
-2.49864e-05
0.00909685
-2.28601e-05
0.00908946
-2.10772e-05
0.00908331
0.00910552
-1.19699e-05
0.00918694
-1.29676e-05
0.00918965
-1.49831e-05
0.00919663
-2.52982e-05
0.0092108
-3.20285e-05
0.00923891
-2.79927e-05
0.00926022
-2.5896e-05
0.00926367
-2.71676e-05
0.00927091
-2.84322e-05
0.00928903
-2.9764e-05
0.00929925
-2.92925e-05
0.00928198
-2.90738e-05
0.00889794
-2.86111e-05
0.00886604
-2.90679e-05
0.00925273
-2.94159e-05
0.00923018
-2.90302e-05
0.00920457
-2.86904e-05
0.00917046
-2.76291e-05
0.00914547
-2.67953e-05
0.00912323
-2.55118e-05
0.00910882
-2.36534e-05
0.00909499
-2.19589e-05
0.00908777
-1.96663e-05
0.00908101
0.0090975
-1.20594e-05
0.00918799
-1.39869e-05
0.00919157
-1.53462e-05
0.00919798
-2.81814e-05
0.00922364
-3.12593e-05
0.00924199
-2.77721e-05
0.00925673
-2.61338e-05
0.00926204
-2.74384e-05
0.00927221
-2.86964e-05
0.00929029
-3.01602e-05
0.00930072
-2.98374e-05
0.00928165
-2.93679e-05
0.00889747
-2.87928e-05
0.00886547
-2.89506e-05
0.00925288
-2.91496e-05
0.00923038
-2.85676e-05
0.00920399
-2.82087e-05
0.0091701
-2.70109e-05
0.00914427
-2.62219e-05
0.00912244
-2.48334e-05
0.00910744
-2.35151e-05
0.00909368
-2.12177e-05
0.00908547
-1.94001e-05
0.0090792
0.00908881
-1.24626e-05
0.00918878
-1.38942e-05
0.009193
-1.5041e-05
0.00919913
-2.49725e-05
0.00923357
-2.98454e-05
0.00924686
-2.8553e-05
0.00925544
-2.62169e-05
0.0092597
-2.78099e-05
0.0092738
-2.90254e-05
0.0092915
-3.08703e-05
0.00930256
-3.08647e-05
0.00928165
-3.00356e-05
0.00889664
-2.93615e-05
0.00886479
-2.90916e-05
0.00925261
-2.91772e-05
0.00923047
-2.82423e-05
0.00920305
-2.80438e-05
0.0091699
-2.70505e-05
0.00914327
-2.59207e-05
0.00912131
-2.43311e-05
0.00910585
-2.26457e-05
0.00909199
-2.11566e-05
0.00908398
-1.88822e-05
0.00907692
0.00907988
-1.32233e-05
-1.46907e-05
-1.51292e-05
-2.01738e-05
-2.2813e-05
-2.87863e-05
-2.62908e-05
-2.80978e-05
-2.91989e-05
-3.16562e-05
-3.23322e-05
-3.10765e-05
-3.03248e-05
-2.93613e-05
-2.92298e-05
-2.80377e-05
-2.79672e-05
-2.62297e-05
-2.57791e-05
-2.39793e-05
-2.29359e-05
-2.02699e-05
-1.90408e-05
9.77356e-05
-0.000107607
-0.00121811
0.00128361
0.000131027
-0.00126988
-7.11913e-05
-7.35681e-05
-0.00115082
-0.000161635
0.00116653
3.1648e-05
-3.33421e-05
-0.00126838
0.00133959
3.59352e-05
-0.00133755
-1.76385e-05
-2.03379e-05
0.00129561
-6.56775e-05
-6.77995e-05
-3.3591e-05
3.83112e-05
-0.00125717
0.001309
-6.10106e-05
-0.00131641
3.52213e-05
3.32048e-05
0.00134018
-1.02752e-05
-1.2936e-05
-6.91371e-05
7.65461e-05
-0.00120885
0.00123401
-0.000107774
-0.00124408
0.000117842
0.00130093
3.99436e-05
3.81305e-05
-6.44447e-05
6.99747e-05
-0.00115128
0.00115773
-0.000103594
-0.00116651
0.000112375
0.000119781
0.00122345
3.74627e-05
-5.24748e-05
-0.00113422
-8.28016e-06
0.000322229
-2.36926e-06
-0.000165454
-0.000146126
-2.48815e-05
-0.000124562
-0.000165081
0.00111676
-5.55588e-05
-0.00111577
5.45719e-05
0.000107389
0.00115055
9.91758e-05
-0.00010962
-0.00111449
-0.0010491
-1.30581e-06
0.00103663
0.000135368
-0.0011374
-0.000148797
-0.00111208
-5.43612e-05
0.00111792
9.64423e-05
-0.000115188
-0.0023731
0.00122305
-0.00121425
8.8938e-05
-0.00113673
9.48472e-05
0.00114739
0.000309726
0.000124766
-0.000611482
0.000310987
-6.62298e-05
-6.77667e-05
0.000113475
-0.000538112
-0.000123213
0.000547851
0.000118784
-0.0012647
0.00246897
0.000128249
-0.00244459
-0.000152636
-0.0023647
-0.000173989
0.00239101
4.37414e-05
-4.97762e-05
-0.00243005
0.00126239
-0.00126073
2.99869e-05
8.24013e-05
0.00123122
0.00125709
6.71368e-05
-7.28064e-05
-0.00125142
0.000642974
-2.30751e-05
-0.000641268
4.32948e-05
-2.19256e-05
-0.000628697
-6.62666e-05
6.36958e-05
0.000631268
0.00032923
9.37337e-06
-0.00033769
-9.13191e-07
-0.000331267
5.12673e-05
-5.63869e-05
0.000336386
3.36366e-05
-0.00132689
0.00252645
4.78191e-05
-0.00251941
-5.48584e-05
-0.000133228
0.00249042
-1.87466e-05
2.56092e-05
-0.00243426
0.00124798
-0.00125216
-2.94146e-05
2.13858e-05
0.00126348
0.00126781
-3.8403e-06
5.65526e-06
-0.00126963
0.000658344
7.76037e-06
-0.000659694
-8.47569e-06
2.06539e-06
-0.000657241
-8.06629e-06
1.38675e-05
0.000657022
-5.582e-06
0.000307588
-3.89904e-07
-0.000307116
-8.1982e-08
-0.000308456
-1.10567e-07
0.000308862
-2.95138e-07
-5.40034e-05
-0.00131042
0.00250739
-4.4115e-05
-0.00251852
5.52505e-05
-2.57216e-05
0.00252864
-6.04145e-05
7.36002e-05
-0.00239518
0.00120141
-0.00120823
-6.23152e-05
-3.54383e-05
0.00124346
0.0012295
-5.57752e-05
6.21413e-05
-0.00123586
4.34908e-05
0.000621354
-0.000623463
-4.13811e-05
-0.000637975
1.63204e-05
-3.0235e-05
0.000634988
1.69011e-05
0.000338283
-4.33547e-05
-0.000346775
5.18471e-05
-0.000320798
-9.81127e-06
2.33439e-06
0.000328275
-9.80386e-05
-0.00124348
0.00243842
-0.000102321
-0.00245816
0.000122068
7.77587e-05
0.0024934
0.000585405
-7.78569e-05
-0.000588142
4.06177e-05
3.99756e-05
-0.000306559
-3.89487e-05
3.98193e-05
0.000305688
-9.55586e-05
-0.00117204
0.00236205
-0.000113947
-0.00237988
0.000131779
0.000130633
0.00241877
0.000539826
-5.62158e-05
-0.000541978
5.83675e-05
-0.000560761
-6.99208e-05
7.28188e-05
0.000557863
-1.85498e-05
1.08368e-05
-0.00225513
-1.7866e-05
0.000869206
-0.000842661
-8.67843e-06
-1.51239e-08
0.000330637
-4.17107e-05
-0.000860088
-7.15396e-05
0.00228068
-0.0022894
8.02599e-05
3.31829e-05
0.00112092
-6.7549e-05
-0.000627242
6.60937e-05
-9.04621e-05
-0.000597312
8.48645e-05
0.000602909
-0.00118195
0.000112333
0.0011948
-0.000125181
-0.00059838
0.000604818
-4.88131e-05
-4.80876e-05
0.00062963
-0.000630971
-3.33758e-05
-3.28326e-05
8.60156e-05
-0.000536093
0.000543262
-9.3184e-05
9.24744e-05
-9.82814e-05
-0.000592573
4.55515e-05
-0.00033336
-4.34585e-05
6.21236e-05
-6.39493e-05
0.000311552
-0.00122189
0.000151968
-0.000168964
0.00123889
-0.000617015
-6.13288e-05
0.00062476
0.000115708
0.000332685
4.56098e-05
-0.000332743
-6.84111e-06
-0.000657605
1.68783e-05
-9.67295e-06
-2.33329e-05
4.20096e-05
0.000648564
-2.42671e-05
5.84061e-05
0.00126189
-6.32067e-05
-0.000319725
0.000322499
-2.61066e-05
0.000334513
-7.33985e-06
-0.000334014
0.000316768
0.000317021
-3.39456e-05
-3.64794e-05
-2.35672e-05
-0.000319233
-1.80914e-06
-0.000310227
3.57979e-06
1.57322e-05
-5.3753e-06
0.000318873
-0.00132257
7.49503e-05
0.001329
-3.9416e-05
-4.19568e-05
-0.000333173
0.000326641
2.22646e-05
0.000338142
9.68074e-07
-0.000340919
0.000336468
4.7484e-05
1.69849e-05
-0.000340785
8.74982e-05
-0.00131505
-4.62347e-05
-4.87825e-05
1.64967e-05
-0.000640808
-2.81546e-05
1.44904e-05
6.89285e-06
-1.31068e-05
0.000652553
1.20044e-05
-1.18179e-05
0.00126483
1.48008e-05
-0.000339748
0.000335756
1.08853e-05
0.000321681
1.80181e-05
-0.000323202
0.000333377
-6.9303e-06
7.06594e-06
-0.000339054
-1.62952e-05
-0.000311826
7.32315e-06
-1.12526e-06
0.000307747
9.65783e-07
-0.00133345
-2.87133e-05
0.00132872
1.78382e-05
1.56042e-05
-0.000337275
0.000338946
-2.79706e-06
0.000325973
-2.18249e-05
-0.000320443
0.00033673
1.30165e-06
-2.28925e-06
-0.000335375
-1.65371e-05
-0.00133699
1.11949e-05
8.88147e-06
-0.000620655
-4.46189e-05
0.00061961
2.19745e-05
2.36887e-05
0.000601389
-5.29125e-05
5.51923e-05
-0.000603669
0.000319235
1.87664e-05
-0.000621962
2.24166e-05
2.23816e-05
-4.03961e-05
-0.00030848
4.23178e-05
-4.72336e-05
5.9752e-05
0.000325764
-0.00127356
-9.63961e-05
0.00126376
5.34305e-05
5.27692e-05
-0.000333729
0.000326562
-4.00664e-05
0.000614043
3.9912e-05
-7.50945e-05
-0.000619256
0.000332552
-1.63905e-05
-3.83262e-05
-0.000338757
-9.12874e-05
-0.00128309
5.09957e-05
4.98211e-05
-0.000575903
-5.30038e-05
0.000573
5.59069e-05
0.000557747
-4.4091e-05
4.56916e-05
-0.000559348
-5.40204e-05
0.000599604
5.58054e-05
-5.38253e-05
5.70363e-05
-0.000579114
-7.07593e-05
-0.000564078