/*--------------------------------*- C++ -*----------------------------------*\
| =========                 |                                                 |
| \\      /  F ield         | OpenFOAM: The Open Source CFD Toolbox           |
|  \\    /   O peration     | Version:  5.x                                   |
|   \\  /    A nd           | Web:      www.OpenFOAM.org                      |
|    \\/     M anipulation  |                                                 |
\*---------------------------------------------------------------------------*/
FoamFile
{
    version     2.0;
    format      ascii;
    class       volScalarField;
    location    "400";
    object      pSat;
}
// * * * * * * * * * * * * * * * * * * * * * * * * * * * * * * * * * * * * * //

dimensions      [0 2 -2 0 0 0 0];

internalField   nonuniform List<scalar> 
6584
(
697.948
697.948
697.948
697.948
697.948
697.948
697.948
697.948
697.948
697.948
697.948
697.948
697.948
697.948
697.948
697.948
697.948
697.948
697.948
697.948
697.948
697.948
697.948
697.948
697.948
697.948
697.948
697.948
697.948
697.948
697.948
697.948
697.948
697.948
697.948
697.948
697.948
697.948
697.948
697.948
697.948
697.948
697.948
697.948
697.948
697.948
697.948
697.948
697.948
697.948
697.948
697.948
697.948
697.948
697.948
697.948
697.948
697.948
697.948
697.948
697.948
697.948
697.948
697.948
697.948
697.948
697.948
697.948
697.948
697.948
697.948
697.948
697.948
697.948
697.948
697.948
697.948
697.948
697.948
697.948
697.948
697.948
697.948
697.948
697.948
697.948
697.948
697.948
697.948
697.948
697.948
697.948
697.948
697.948
697.948
697.948
697.948
697.948
697.948
697.948
697.948
697.948
697.948
697.948
697.948
697.948
697.948
697.948
697.948
697.948
697.948
697.948
697.948
697.948
697.948
697.948
697.948
697.948
697.948
697.948
697.948
697.948
697.948
697.948
697.948
697.948
697.948
697.948
697.948
697.948
697.948
697.948
697.948
697.948
697.948
697.948
697.948
697.948
697.948
697.948
697.948
697.948
697.948
697.948
697.948
697.948
697.948
697.948
697.948
697.948
697.948
697.948
697.948
697.948
697.948
697.948
697.948
697.948
697.948
697.948
697.948
697.948
697.948
697.948
697.948
697.948
697.948
697.948
697.948
697.948
697.948
697.948
697.948
697.948
697.948
697.948
697.948
697.948
697.948
697.948
697.948
697.948
697.948
697.948
697.948
697.948
697.948
697.948
697.948
697.948
697.948
697.948
697.948
697.948
697.948
697.948
697.948
697.948
697.948
697.948
697.948
697.948
697.948
697.948
697.948
697.948
697.948
697.948
697.948
697.948
697.948
697.948
697.948
697.948
697.948
697.948
697.948
697.948
697.948
697.948
697.948
697.948
697.948
697.948
697.948
697.948
697.948
697.948
697.948
697.948
697.948
697.948
697.948
697.948
697.948
697.948
697.948
697.948
697.948
697.948
697.948
697.948
697.948
697.948
697.948
697.948
697.948
697.948
697.948
697.948
697.948
697.948
697.948
697.948
697.948
697.948
697.948
697.948
697.948
697.948
697.948
697.948
697.948
697.948
697.948
697.948
697.948
697.948
697.948
697.948
697.948
697.948
697.948
697.948
697.948
697.948
697.948
697.948
697.948
697.948
697.948
697.948
697.948
697.948
697.948
697.948
697.948
697.948
697.948
697.948
697.948
697.948
697.948
697.948
697.948
697.948
697.948
697.948
697.948
697.948
697.948
697.948
697.948
697.948
697.948
697.948
697.948
697.948
697.948
697.948
697.948
697.948
697.948
697.948
697.948
697.948
697.948
697.948
569.08
697.948
697.948
697.948
697.948
697.948
697.948
697.948
697.948
697.948
697.948
697.948
697.948
697.948
697.948
697.948
697.948
697.948
697.948
697.948
697.948
697.948
697.948
697.948
661.578
697.948
697.948
697.948
697.948
697.948
697.948
697.948
697.948
697.948
697.948
697.948
697.948
697.948
697.948
697.948
697.948
697.948
697.948
697.948
697.948
697.948
697.948
697.946
664.362
697.948
697.948
697.948
697.948
697.948
697.948
697.948
697.948
697.948
697.948
697.948
697.948
697.948
697.948
697.948
697.948
697.948
697.948
697.948
697.948
697.948
697.948
697.557
681.976
697.948
697.948
697.948
697.948
697.948
697.948
697.948
697.948
697.948
697.948
697.948
697.948
697.948
697.948
697.948
697.948
697.948
697.948
697.948
697.948
697.948
697.948
697.348
682.349
697.948
697.948
697.948
697.948
697.948
697.948
697.948
697.948
697.948
697.948
697.948
697.948
697.948
697.948
697.948
697.948
697.948
697.948
697.948
697.948
697.948
697.882
680.002
690.492
697.948
697.948
697.948
697.948
697.948
697.948
697.948
697.948
697.948
697.948
697.948
697.948
697.948
697.948
697.948
697.948
697.948
697.948
697.948
697.948
697.948
697.82
680.075
690.535
697.947
697.948
697.948
697.948
697.948
697.948
697.948
697.948
697.948
697.948
697.948
697.948
697.948
697.948
697.948
697.948
697.948
697.948
697.948
697.948
697.947
697.761
680.141
690.57
697.946
697.948
697.948
697.948
697.948
697.948
697.948
697.948
697.948
697.948
697.948
697.948
697.948
697.948
697.948
697.948
697.948
697.948
697.948
697.948
697.947
697.704
680.201
690.6
697.945
697.948
697.948
697.948
697.948
697.948
697.948
697.948
697.948
697.948
697.948
697.948
697.948
697.948
697.948
697.948
697.948
697.948
697.948
697.948
697.946
697.649
680.257
690.625
697.944
697.948
697.948
697.948
697.948
697.948
697.948
697.948
697.948
697.948
697.948
697.948
697.948
697.948
697.948
697.948
697.948
697.948
697.948
697.948
697.945
697.597
680.309
690.646
697.943
697.948
697.948
697.948
697.948
697.948
697.948
697.948
697.948
697.948
697.948
697.948
697.948
697.948
697.948
697.948
697.948
697.948
697.948
697.948
697.944
697.548
680.357
690.665
697.942
697.948
697.948
697.948
697.948
697.948
697.948
697.948
697.948
697.948
697.948
697.948
697.948
697.948
697.948
697.948
697.948
697.948
697.948
697.948
697.942
697.493
680.407
690.684
697.941
697.948
697.948
697.948
697.948
697.948
697.948
697.948
697.948
697.948
697.948
697.948
697.948
697.948
697.948
697.948
697.948
697.948
697.948
697.948
697.941
697.434
680.459
690.705
697.94
697.948
697.948
697.948
697.948
697.948
697.948
697.948
697.948
697.948
697.948
697.948
697.948
697.948
697.948
697.948
697.948
697.948
697.948
697.948
697.939
697.377
680.51
690.725
697.939
697.948
697.948
697.948
697.948
697.948
697.948
697.948
697.948
697.948
697.948
697.948
697.948
697.948
697.948
697.948
697.948
697.948
697.948
697.948
697.937
697.322
680.558
690.744
697.938
697.948
697.948
697.948
697.948
697.948
697.948
697.948
697.948
697.948
697.948
697.948
697.948
697.948
697.948
697.948
697.948
697.948
697.948
697.948
697.935
697.267
680.605
690.761
697.938
697.948
697.948
697.948
697.948
697.948
697.948
697.948
697.948
697.948
697.948
697.948
697.948
697.948
697.948
697.948
697.948
697.948
697.948
697.948
697.932
697.214
680.652
690.779
697.937
697.948
697.948
697.948
697.948
697.948
697.948
697.948
697.948
697.948
697.948
697.948
697.948
697.948
697.948
697.948
697.948
697.948
697.948
697.948
697.93
697.161
680.697
690.795
697.936
697.948
697.948
697.948
697.948
697.948
697.948
697.948
697.948
697.948
697.948
697.948
697.948
697.948
697.948
697.948
697.948
697.948
697.948
697.948
697.927
697.109
680.742
690.812
697.935
697.948
697.948
697.948
697.948
697.948
697.948
697.948
697.948
697.948
697.948
697.948
697.948
697.948
697.948
697.948
697.948
697.948
697.948
697.948
697.924
697.055
680.787
690.829
697.934
697.948
697.948
697.948
697.948
697.948
697.948
697.948
697.948
697.948
697.948
697.948
697.948
697.948
697.948
697.948
697.948
697.948
697.948
697.948
697.921
697.001
680.832
690.846
697.933
697.948
697.948
697.948
697.948
697.948
697.948
697.948
697.948
697.948
697.948
697.948
697.948
697.948
697.948
697.948
697.948
697.948
697.948
697.948
697.918
696.944
680.879
690.864
697.932
697.948
697.948
697.948
697.948
697.948
697.948
697.948
697.948
697.948
697.948
697.948
697.948
697.948
697.948
697.948
697.948
697.948
697.948
697.948
697.948
697.948
697.948
697.948
697.948
697.948
697.948
560.509
564.215
697.948
697.948
697.948
697.948
697.948
697.948
697.948
697.948
697.948
697.948
697.948
697.948
697.948
697.948
697.948
697.948
697.948
697.948
697.748
697.91
697.509
697.889
697.948
697.948
697.948
697.948
697.948
697.948
697.948
697.094
697.215
692.835
695.316
697.948
697.948
697.948
697.948
697.948
697.948
697.948
697.4
697.238
696.522
694.212
697.948
697.948
697.948
697.673
697.606
697.948
697.948
697.948
697.877
697.826
697.948
594.185
561.006
633.566
697.948
697.948
697.923
697.948
697.948
697.947
697.84
697.948
697.948
697.9
697.948
697.948
697.948
697.931
697.262
697.699
697.948
697.112
695.217
697.791
697.204
695.472
697.491
697.948
697.718
697.23
697.925
697.729
697.948
697.215
697.103
697.948
694.706
695.63
695.132
694.666
694.119
692.693
697.948
697.074
697.275
697.224
697.084
697.948
695.345
696.235
695.701
695.2
697.578
696.655
697.948
697.64
697.838
697.287
697.619
697.948
697.009
697.331
696.343
696.945
697.815
697.698
697.847
697.891
697.948
697.552
697.269
697.366
697.536
697.899
697.882
697.948
697.948
697.948
697.933
697.948
697.948
697.948
697.948
697.948
697.721
697.603
690.716
687.05
697.948
697.948
697.948
697.948
697.935
697.948
697.948
697.948
697.583
697.424
697.948
541.176
564.46
650.288
662.378
566.063
598.383
686.343
679.742
697.948
697.896
697.918
663.74
670.456
697.92
697.931
697.948
697.948
697.948
697.948
697.948
697.948
697.948
697.925
697.948
697.938
697.948
697.941
697.948
697.646
697.745
694.266
694.392
695.722
695.458
697.582
679.81
697.744
693.562
691.131
691.564
693.776
697.853
695.257
697.935
690.065
697.025
688.567
697.923
697.224
697.933
697.948
697.892
695.99
697.938
697.94
696.051
695.932
697.637
697.595
696.307
696.418
697.26
697.943
697.945
697.941
697.942
697.258
697.855
697.947
697.948
697.946
697.947
697.822
695.142
695.195
694.694
694.654
690.947
691.195
696.988
697.941
697.94
697.942
697.941
696.986
697.171
697.94
697.941
697.94
697.94
697.163
542.989
695.757
566.895
541.483
599.382
568.659
695.882
694.595
543.819
694.743
697.293
697.23
697.443
697.943
697.942
697.944
697.943
697.477
630.231
647.593
696.635
629.538
601.919
652.115
632.719
696.721
601.879
627.409
697.775
687.282
691.14
680.628
686.511
697.759
678.127
669.153
671.548
578.786
671.206
668.225
594.318
693.547
693.791
697.946
697.948
697.948
697.948
697.948
697.873
697.862
624.708
697.641
697.825
697.947
697.803
697.734
697.948
577.793
582.095
546.389
668.088
667.728
585.588
591.758
692.321
693.461
505.912
697.948
697.948
697.948
697.948
697.948
697.948
697.841
697.947
697.945
697.521
697.356
697.826
697.102
697.935
697.935
697.937
697.935
697.117
693.513
694.945
696.185
694.439
664.312
658.446
697.86
694.012
695.593
696.466
696.499
589.46
697.948
697.944
697.948
697.917
697.603
697.427
697.946
697.948
697.948
697.948
697.948
697.945
697.435
697.94
697.938
697.944
697.941
697.497
696.647
676.477
688.866
667.419
669.608
695.501
690.115
691.445
697.398
695.824
696.777
697.454
697.907
697.91
697.878
697.883
697.244
697.935
697.936
697.142
694.921
661.191
653.935
694.909
664.198
666.785
652.649
654.321
694.591
692.869
691.792
697.025
697.879
697.876
697.87
697.895
697.163
697.204
697.873
697.877
697.875
697.873
697.121
697.474
691.192
692.615
689.291
688.432
696.938
697.798
697.945
697.944
697.946
697.945
697.809
697.171
666.207
654.236
677.371
673.978
697.217
610.254
613.794
697.453
680.861
678.37
606.397
609.292
671.529
665.842
697.946
697.947
697.947
658.273
689.361
662.176
665.036
664.245
688.889
697.948
697.94
697.948
697.919
697.947
544.183
551.513
578.035
577.826
656.264
589.949
585.92
598.225
591.117
657.823
574.74
580.821
683.888
682.774
667.133
608.745
601.865
592.375
595.507
697.905
697.945
697.948
697.932
697.944
697.889
697.528
697.815
693.648
694.815
696.101
694.583
681.254
693.281
692.241
694.374
693.607
680.981
689.867
688.883
691.917
690.421
692.7
673.981
677.524
667.531
672.216
692.341
655.241
656.958
693.472
697.703
697.473
697.905
697.769
694.362
695.952
695.442
697.287
696.173
697.812
697.944
697.921
697.722
697.549
697.832
697.644
697.923
697.688
697.88
697.925
697.729
697.86
697.945
697.906
697.845
672.502
674.646
696.469
655.023
646.199
678.371
656.925
633.564
625.668
643.499
636.965
695.606
670.376
671.954
688.792
686.49
695.173
690.737
683.692
681.042
686.075
684.374
697.451
691.745
692.567
695.945
696.716
697.894
697.904
697.343
697.248
697.885
697.892
662.981
662.445
694.985
614.668
614.4
584.089
610.901
610.995
620.758
613.662
611.42
660.374
663.332
694.845
613.175
605.274
623.751
615.627
590.679
582.842
602.255
594.23
694.6
655.756
659.208
692.011
691.601
697.885
697.881
697.013
697.094
697.893
697.887
697.872
697.873
697.196
697.131
697.872
697.872
545.249
552.674
665.111
670.203
658.45
663.308
544.146
586.85
677.039
669.588
671.613
675.748
580.527
636.923
639.715
626.579
635.894
550.638
651.948
657.09
641.268
649.28
550.409
689.945
690.842
697.435
686.12
687.95
688.423
686.029
687.919
697.008
687.889
689.191
637.564
568.056
566.825
583.207
570.144
640.076
577.785
611.727
566.855
615.857
683.694
695.246
694.611
696.008
695.46
684.204
675.58
676.539
615.515
619.718
597.955
605.135
675.415
672.839
697.948
697.948
697.948
697.948
697.938
697.939
697.948
697.948
697.948
697.948
697.948
697.948
697.948
697.948
697.948
697.948
697.947
697.863
697.513
696.795
696.699
692.995
695.189
697.937
697.938
697.304
691.269
690.824
694.279
692.932
693.664
697.675
697.943
697.948
697.948
696.843
697.171
697.875
697.938
697.917
697.946
697.768
695.149
696.693
695.589
696.598
696.491
697.429
697.614
697.616
697.235
697.917
697.922
697.747
697.157
697.936
697.937
665.968
662.828
695.422
693.954
691.863
691.686
692.551
697.063
697.611
697.61
697.218
697.61
697.612
697.608
697.607
697.095
694.315
670.859
667.569
697.32
697.877
697.874
697.869
697.947
697.946
576.093
576.047
683.411
681.581
697.477
576.526
576.256
695.743
696.092
697.894
697.936
697.927
539.889
544.154
545.387
562.351
567.849
541.724
542.88
568.233
563.664
593.789
674.49
673.411
680.761
614.037
609.903
668.04
697.948
697.948
697.948
697.902
697.923
697.939
697.944
697.864
697.881
697.948
697.948
697.947
697.26
697.213
697.578
697.786
697.619
697.532
693.965
694.518
692.391
692.727
695.897
695.13
690.959
691.713
682.422
682.561
686.639
686.078
679.794
682.913
683.321
697.694
693.956
694.755
694.59
691.705
695.728
695.258
697.592
697.406
696.591
683.485
681.655
694.056
690.652
685.83
697.947
697.946
697.873
697.845
697.651
697.749
696.562
697.767
697.833
692.834
694.253
697.743
679.282
677.096
696.197
696.527
697.937
697.94
697.891
697.755
697.926
697.932
695.364
662.497
662.71
690.973
691.327
697.605
697.605
697.179
697.151
697.604
697.604
544.74
564.72
603.885
606.635
576.153
578.251
539.342
673.237
671.479
694.454
549.928
546.891
565.777
566.118
546.269
573.996
574.985
544.465
545.084
697.885
697.881
697.34
697.543
697.892
697.889
616.243
675.168
676.919
671.462
673.315
611.597
689.059
695.661
696.157
696.056
695.869
689.655
681.888
688.121
687.361
676.374
674.891
678.294
582.726
585.033
586.189
577.931
673.222
622.382
616.171
627.558
623.845
667.242
651.895
652.484
678.472
681.452
694.36
697.946
697.946
697.939
578.084
579.388
615.218
615.003
542.382
589.027
583.462
583.315
581.798
582.821
590.819
507.609
673.672
675.262
697.948
697.948
697.948
696.979
696.889
697.516
697.177
697.479
697.682
697.387
697.441
693.29
695.065
689.029
689.562
689.589
689.004
694.347
690.504
690.316
663.012
653.201
653.065
654.949
654.557
661.356
697.554
697.775
697.784
697.746
697.767
697.499
695.705
697.252
696.371
696.065
697.24
697.618
697.621
691.824
691.961
693.609
692.099
697.615
697.613
697.041
697.608
697.609
697.211
697.11
697.606
697.605
689.338
691.143
690.404
691.762
691.529
689.164
576.197
576.84
577.496
576.91
607.408
589.956
589.266
654.824
654.853
669.794
658.047
660.423
653.73
655.571
667.773
697.941
697.939
697.944
697.936
697.946
697.948
697.948
697.943
697.945
697.942
661.299
676.461
675.577
678.933
677.65
662.275
667.967
672.289
670.476
674.867
673.945
666.442
697.944
697.947
697.945
697.865
697.797
697.934
697.922
540.122
558.614
546.126
545.401
578.018
577.925
605.295
607.574
587.604
542.357
541.021
570.477
555.385
556.202
553.519
587.681
555.976
548.318
675.406
677.057
684.863
670.941
671.415
669.684
670.025
681.692
672.966
673.667
592.987
579.323
580.598
578.078
578.254
593.904
697.93
697.934
697.916
697.845
697.891
697.923
696.849
697.544
697.146
697.066
697.247
697.32
697.079
697.169
693.788
694.651
690.201
690.362
689.773
689.995
696.012
692.906
693.032
690.256
690.481
694.815
690.347
683.956
682.826
680.349
685.607
685.002
689.46
683.845
683.696
685.62
684.6
689.171
691.53
686.537
687.132
684.356
685.495
691.017
683.432
669.079
680.962
680.065
654.135
655.02
693.035
696.123
695.928
692.591
695.119
696.895
696.433
686.479
684.898
692.308
692.661
695.625
689.83
688.179
697.123
697.373
697.788
697.528
696.806
695.771
696.742
697.8
697.876
697.892
697.801
697.833
697.672
697.479
697.639
697.892
697.828
697.802
697.897
697.844
697.907
697.761
697.768
697.676
697.787
652.684
649.254
672.281
645.592
648.626
639.22
658.613
630.567
627.941
641.139
639.121
687.622
676.845
679.358
671.801
674.241
686.958
694.662
690.535
691.72
680.831
687.733
693.428
675.058
671.079
682.996
656.124
658.56
651.959
654.009
682.217
685.646
667.677
669.615
661.295
664.341
685.039
696.087
696.63
615.639
586.474
590.439
578.469
582.281
615.106
591.029
592.55
592.364
601.574
612.327
558.181
561.852
564.567
558.454
615.553
612.934
571.832
574.995
565.736
568.979
612.215
611.114
608.74
621.757
618.481
587.524
584.677
599.654
597.454
691.344
691.458
697.187
697.606
697.607
697.604
697.604
697.14
545.878
594.422
600.003
560.695
539.393
582.082
587.89
556.422
553.074
637.753
588.417
588.81
631.333
583.611
574.514
588.847
587.565
634.261
563.958
560.027
568.105
572.137
548.801
550.188
559.508
690.346
693.882
693.601
694.296
694.096
690.594
686.742
687.603
687.563
685.971
685.95
686.625
687.824
692.309
691.989
693.208
692.744
688.374
567.244
583.15
585.542
579.27
581.192
566.916
578.57
597.959
602.18
588.831
593.186
574.018
576.828
557.629
559.171
556.612
556.955
566.713
573.7
577.012
562.792
568.185
565.621
689.27
688.775
683.038
675.42
677.636
578.649
581.781
600.791
583.182
579.726
588.31
586.557
603.327
578.305
578.079
652.711
653.2
697.948
697.948
697.948
697.948
697.948
697.948
697.948
697.948
697.948
697.948
697.948
697.948
697.948
697.948
697.948
697.948
697.948
697.948
697.948
697.948
697.948
697.948
697.948
697.948
697.948
697.948
697.948
697.948
697.948
697.948
697.948
697.948
697.948
697.948
697.948
697.948
697.948
697.948
697.948
697.948
697.948
697.948
697.948
697.948
697.948
697.948
697.948
697.948
697.948
697.948
697.948
697.948
697.948
697.948
697.948
697.948
697.948
697.948
697.948
697.948
697.948
697.948
697.948
697.948
697.948
697.948
697.948
697.948
697.948
697.948
697.948
697.948
697.948
697.948
697.948
697.948
697.948
697.948
697.948
697.948
697.948
697.948
697.948
697.948
697.948
697.947
697.947
697.948
697.948
697.948
697.948
697.948
697.948
697.948
697.948
697.948
697.948
697.948
697.948
697.948
697.947
697.947
697.948
697.948
697.948
697.948
697.948
697.948
697.948
697.948
697.948
697.948
697.947
697.947
697.948
697.948
697.948
697.948
697.948
697.948
697.948
697.948
697.948
697.948
697.948
697.948
697.948
697.948
697.948
697.948
697.948
697.948
697.948
697.948
697.948
697.948
697.83
697.829
583.713
690.011
690.687
697.948
697.948
697.948
697.948
697.948
697.948
697.948
697.948
697.948
697.948
697.948
697.948
697.947
627.922
626.134
663.712
697.948
697.948
697.948
697.948
697.948
697.948
697.948
697.948
697.948
697.948
697.948
697.7
660.95
628.443
681.772
697.937
697.948
697.948
697.948
697.948
697.948
697.948
697.948
697.948
697.948
697.948
697.948
697.948
697.948
697.947
697.947
697.948
697.948
697.947
697.946
697.948
697.948
697.948
697.947
697.947
697.948
697.948
697.946
697.946
697.946
697.946
697.948
697.947
697.947
697.948
697.948
697.947
697.948
697.947
697.947
697.948
697.948
697.948
697.948
697.948
697.948
697.948
697.828
697.876
697.948
542.241
607.272
607.949
647.969
648.139
508.632
697.948
697.948
697.948
697.948
697.948
697.948
697.948
697.948
697.947
697.948
697.948
697.948
697.948
697.948
697.948
697.948
697.948
697.948
697.948
697.948
697.948
697.948
697.948
697.948
697.948
697.948
697.948
697.948
697.948
697.948
697.946
697.941
697.948
697.948
697.948
697.948
697.948
697.948
697.948
697.948
697.948
697.948
697.948
697.948
697.948
697.948
697.948
697.948
697.948
697.948
697.948
697.948
697.948
697.948
697.948
697.948
697.785
697.903
697.893
697.94
697.936
697.897
697.822
697.751
697.866
697.948
697.948
697.948
697.948
697.948
697.948
697.948
697.948
697.948
697.948
697.948
697.948
697.948
697.948
697.948
697.948
697.948
697.948
697.947
697.947
697.948
697.091
697.735
697.736
697.762
697.752
697.174
697.948
697.948
697.948
697.948
697.948
697.948
697.948
697.948
697.948
697.948
697.948
697.948
697.948
697.948
697.948
697.948
697.948
697.948
697.947
697.947
697.948
697.328
697.938
697.94
697.769
697.775
697.26
696.391
693.59
693.962
697.948
697.948
697.948
697.948
697.948
697.948
697.948
697.948
697.948
697.645
695.729
696.171
696.906
696.983
697.631
697.948
697.948
697.948
697.948
697.948
697.948
697.948
697.948
697.948
697.872
697.648
697.669
697.458
697.499
697.836
697.882
697.83
697.948
590.528
696.501
696.458
667.995
668.459
563.712
697.672
697.648
627.036
697.948
697.925
697.936
697.939
697.925
697.948
697.932
697.945
697.943
697.948
697.948
697.946
697.948
697.948
697.948
697.945
697.894
697.938
697.948
697.948
697.948
697.944
697.947
697.948
697.907
697.86
697.849
697.947
697.946
697.947
697.948
697.948
697.948
697.948
697.948
697.948
697.945
697.946
697.939
697.316
697.788
697.775
697.881
697.867
697.633
697.948
697.948
697.948
696.989
695.645
696.008
691.516
691.682
695.306
696.24
696.402
697.278
697.948
697.947
697.948
697.692
697.821
697.834
697.899
697.942
697.944
697.842
697.848
697.736
697.948
697.948
697.948
697.194
697.759
697.764
697.738
697.74
697.115
697.948
697.947
697.947
694.781
690.357
690.178
692.219
692.044
695.556
695.054
691.205
691.358
690.053
689.976
694.619
697.946
697.946
697.948
697.718
697.708
697.256
697.948
697.946
697.946
695.487
682.949
680.848
690.906
690.441
696.122
695.77
692.569
692.397
680.181
677.877
695.052
697.546
696.719
696.819
694.36
694.692
696.771
697.947
697.947
697.948
697.693
697.905
697.902
697.92
697.918
697.829
697.296
697.732
697.725
697.899
697.896
697.56
697.948
697.947
697.947
697.068
694.412
694.166
695.504
695.361
697.296
696.445
691.778
691.349
693.897
693.605
696.876
697.803
697.362
697.412
696.3
696.635
697.721
697.855
697.924
697.922
697.947
697.947
697.876
697.948
697.948
697.948
697.59
685.215
683.933
682.184
684.41
697.569
697.398
695.753
695.635
697.896
696.146
696.215
697.948
697.948
697.948
697.948
697.948
697.948
697.948
697.948
697.948
697.948
697.948
697.948
697.948
697.948
697.948
697.948
697.948
697.948
697.947
697.947
697.948
697.676
697.935
697.936
697.933
697.934
697.659
690.272
685.251
686
680.268
681.448
687.741
697.948
697.948
697.948
697.948
697.948
697.948
697.904
697.928
697.942
697.948
697.948
697.948
697.948
697.948
697.948
697.948
697.948
697.948
697.518
697.941
697.932
697.94
697.941
697.495
697.948
697.947
697.947
652.56
630.245
627.879
642.035
639.878
660.87
685.64
678.124
679.115
697.948
697.948
697.948
697.907
697.947
697.947
697.947
697.947
697.91
665.021
646.133
644.154
654.328
653.095
669.677
697.926
697.947
697.947
697.947
697.947
697.927
697.948
697.948
697.948
697.948
697.948
697.948
697.948
697.948
697.948
697.948
697.948
697.948
697.948
697.948
697.948
697.948
697.948
697.948
697.948
697.948
697.948
697.948
697.947
697.948
697.948
697.948
697.948
697.945
697.947
697.944
697.948
697.948
697.948
694.96
695.55
697.615
697.729
697.3
697.35
693.309
689.904
690.315
686.691
687.292
691.506
692.668
696.373
696.223
696.627
696.507
692.968
697.845
697.536
697.568
697.764
697.869
697.942
697.902
697.292
697.696
697.393
697.764
697.687
697.944
697.94
697.917
697.948
697.948
697.948
697.923
697.915
697.934
697.942
697.933
697.928
693.064
693.313
696.175
695.821
692.635
692.841
697.18
697.285
697.676
697.55
696.974
697.077
697.641
697.65
697.269
697.944
697.933
697.931
697.937
697.935
697.944
697.941
697.926
697.925
697.929
697.928
697.942
697.255
697.631
697.635
697.907
697.914
697.873
697.948
697.946
697.945
697.947
697.946
697.948
697.946
697.941
697.939
697.944
697.942
697.947
697.79
697.884
697.896
691.211
691.116
695.092
695.249
691.408
691.308
690.405
690.525
694.738
694.626
690.193
690.293
697.627
697.623
696.994
697.941
697.925
697.925
697.924
697.924
697.941
697.942
697.928
697.928
697.926
697.927
697.941
696.997
697.64
697.632
697.94
697.923
697.923
697.924
697.923
697.94
697.94
697.923
697.923
697.923
697.923
697.94
688.891
683.663
695.628
596.396
631.113
634.431
609.028
611.661
571.021
696.004
689.932
689.412
694.898
676.894
673.964
696.005
696.151
697.347
697.157
695.623
695.825
697.784
697.773
697.404
697.943
697.931
697.932
697.929
697.93
697.942
697.944
697.934
697.935
697.932
697.933
697.944
697.504
697.801
697.793
632.752
606.101
603.534
625.042
621.696
645.221
692.587
692.194
696.543
625.72
655.072
657.52
637.243
640.1
604.57
644.135
681.272
682.509
678.482
679.919
641.208
696.801
693.288
692.951
604.948
573.743
571.219
600.559
596.69
624.071
697.243
697.305
697.79
687.896
691.942
691.547
694.17
693.897
690.694
691.093
690.604
685.637
697.741
697.096
697.173
670.048
632.658
628.746
637.76
634.195
670.911
671.925
656.788
655.571
693.333
682.248
683.984
690.699
691.067
694
697.948
697.948
697.948
697.948
697.948
697.948
697.87
697.94
697.94
697.939
697.94
697.866
684.767
684.338
622.006
697.643
695.814
695.854
695.783
695.826
697.669
697.778
697.938
697.939
697.937
697.937
697.768
697.948
697.948
697.947
579.716
575.006
542.942
667.551
639.939
632.719
641.002
640.344
667.53
693.166
679.02
677.304
683.581
686.446
693.491
506.273
597.134
617.168
697.948
697.948
697.948
697.948
697.948
697.948
697.948
697.948
697.948
697.948
697.948
697.948
697.948
697.948
697.948
697.948
697.948
697.948
697.919
697.912
697.815
697.946
697.939
697.941
697.934
697.937
697.946
697.843
697.701
697.674
697.736
697.735
697.092
697.935
697.894
697.895
697.895
697.895
697.935
697.936
697.899
697.901
697.895
697.897
697.936
697.141
697.744
697.738
693.157
693.324
696.278
697.598
697.624
697.866
695.243
696.829
696.733
696.989
696.914
695.426
696.483
687.062
682.382
687.158
687.133
696.494
588.366
655.514
655.137
697.948
697.948
697.948
697.948
697.948
697.948
697.948
697.948
697.948
697.875
697.867
697.912
697.948
697.948
697.947
697.948
697.948
697.948
697.948
697.948
697.948
697.948
697.948
697.947
697.948
697.948
697.948
697.942
697.947
697.948
697.819
697.803
697.375
697.939
697.912
697.916
697.905
697.908
697.938
697.943
697.928
697.931
697.92
697.924
697.942
697.563
697.851
697.835
694.502
695.103
696.829
680.211
690.72
688.935
693.643
692.568
685.905
668.095
683.909
683.618
684.551
684.222
668.83
695.402
691.861
692.049
690.726
694.511
694.19
694.939
694.742
691.121
697.34
696.533
696.649
697.747
697.795
697.621
697.909
697.898
697.882
697.88
697.805
697.802
697.811
697.808
697.881
697.935
697.896
697.895
697.897
697.896
697.935
697.128
697.743
697.746
690.743
690.556
694.849
658.971
681.078
681.695
679.757
680.374
656.255
690.908
691.052
694.977
665.132
682.725
682.404
683.339
683.048
666.08
652.27
679.169
679.355
679.404
679.136
653.058
694.612
689.947
689.947
697.878
697.8
697.801
697.797
697.798
697.877
697.83
697.835
697.897
697.22
697.694
697.68
697.874
697.796
697.795
697.8
697.798
697.875
697.874
697.794
697.795
697.793
697.793
697.873
696.498
696.611
697.512
691.669
694.767
694.517
695.247
695.019
692.18
696.863
694.923
695.093
697.911
697.908
697.786
697.945
697.937
697.938
697.936
697.936
697.945
697.946
697.94
697.94
697.938
697.939
697.945
697.819
697.916
697.913
694.845
694.638
697.122
661.448
685.575
686.422
683.629
684.646
659.742
676.305
688.46
689.019
687.172
687.848
675.185
697.258
695.205
695.033
611.274
592.82
592.031
595.076
593.768
612.414
695.962
695.862
697.427
680.096
690.401
690.781
689.529
689.985
679.272
591.311
590.624
608.352
697.948
697.947
697.946
683.855
684.52
689.816
688.362
682.456
683.21
697.947
697.948
697.948
697.948
697.948
697.947
697.945
697.939
697.943
634.161
632.278
654.493
588.851
609.39
611.028
594.971
616.865
619.6
612.681
614.566
592.653
659.417
637.874
635.976
649.328
647.848
666.142
607.252
627.183
628.852
622.463
625.075
605.039
697.946
697.943
697.94
697.946
697.945
697.947
697.936
697.918
697.911
697.937
697.927
697.94
697.66
697.648
697.804
692.923
688.787
689.493
687.587
688.116
692.569
694.135
690.946
691.339
690.1
690.559
693.886
688.949
689.454
693.024
675.482
684.281
683.496
685.538
684.945
676.592
682.64
681.786
670.515
691.937
687.854
688.411
697.64
697.135
697.252
696.808
697.014
697.571
697.88
697.747
697.819
697.404
697.591
697.833
695.782
692.921
693.191
696.905
695.078
696.313
693.556
694.162
696.492
697.903
697.842
697.585
697.94
697.918
697.935
697.861
697.893
697.932
697.929
697.901
697.886
697.941
697.937
697.944
697.88
697.92
697.93
697.901
697.91
697.859
673.091
686.517
686.126
687.736
687.014
673.76
696.314
693.611
693.994
692.244
692.438
695.711
670.944
685.186
684.882
685.788
685.48
671.44
696.76
696.868
697.502
692.035
695.306
695.125
695.658
695.484
692.311
697.897
697.84
697.833
697.865
697.85
697.9
697.291
697.667
697.699
697.624
697.628
697.253
697.887
697.819
697.815
697.827
697.823
697.889
663.187
682.579
682.724
682.131
682.399
662.989
695.039
691.015
690.897
661.572
681.49
681.137
682.1
681.806
662.516
694.79
690.648
690.773
690.016
690.102
694.601
657.077
680.129
679.765
680.788
680.458
658.13
697.883
697.807
697.81
697.803
697.805
697.882
697.003
697.62
697.618
697.665
697.651
697.032
697.89
697.82
697.825
697.813
697.816
697.889
697.872
697.792
697.792
697.794
697.793
697.872
697.872
697.792
697.792
697.792
697.792
697.872
666.811
637.468
634.058
642.613
640.277
668.61
659.901
623.882
621.709
630.302
626.752
661.525
623.036
626.888
592.344
678.231