/*--------------------------------*- C++ -*----------------------------------*\
| =========                 |                                                 |
| \\      /  F ield         | OpenFOAM: The Open Source CFD Toolbox           |
|  \\    /   O peration     | Version:  5.x                                   |
|   \\  /    A nd           | Web:      www.OpenFOAM.org                      |
|    \\/     M anipulation  |                                                 |
\*---------------------------------------------------------------------------*/
FoamFile
{
    version     2.0;
    format      ascii;
    class       volScalarField;
    location    "400";
    object      T;
}
// * * * * * * * * * * * * * * * * * * * * * * * * * * * * * * * * * * * * * //

dimensions      [0 0 0 1 0 0 0];

internalField   nonuniform List<scalar> 
6584
(
275
275
275
275
275
275
275
275
275
275
275
275
275
275
275
275
275
275
275
275
275
275
275
275
275
275
275
275
275
275
275
275
275
275
275
275
275
275
275
275
275
275
275
275
275
275
275
275
275
275
275
275
275
275
275
275
275
275
275
275
275
275
275
275
275
275
275
275
275
275
275
275
275
275
275
275
275
275
275
275
275
275
275
275
275
275
275
275
275
275
275
275
275
275
275
275
275
275
275
275
275
275
275
275
275
275
275
275
275
275
275
275
275
275
275
275
275
275
275
275
275
275
275
275
275
275
275
275
275
275
275
275
275
275
275
275
275
275
275
275
275
275
275
275
275
275
275
275
275
275
275
275
275
275
275
275
275
275
275
275
275
275
275
275
275
275
275
275
275
275
275
275
275
275
275
275
275
275
275
275
275
275
275
275
275
275
275
275
275
275
275
275
275
275
275
275
275
275
275
275
275
275
275
275
275
275
275
275
275
275
275
275
275
275
275
275
275
275
275
275
275
275
275
275
275
275
275
275
275
275
275
275
275
275
275
275
275
275
275
275
275
275
275
275
275
275
275
275
275
275
275
275
275
275
275
275
275
275
275
275
275
275
275
275
275
275
275
275
275
275
275
275
275
275
275
275
275
275
275
275
275
275
275
275
275
275
275
275
275
275
275
275
275
275
275
275
275
275
275
275
275
275
275
275
275
275
275
275
275
275
275
275
275
275
275
275
275
275
272.175
275
275
275
275
275
275
275
275
275
275
275
275
275
275
275
275
275
275
275
275
275
275
275
274.253
275
275
275
275
275
275
275
275
275
275
275
275
275
275
275
275
275
275
275
275
275
275
275
274.311
275
275
275
275
275
275
275
275
275
275
275
275
275
275
275
275
275
275
275
275
275
275
274.992
274.676
275
275
275
275
275
275
275
275
275
275
275
275
275
275
275
275
275
275
275
275
275
275
274.988
274.684
275
275
275
275
275
275
275
275
275
275
275
275
275
275
275
275
275
275
275
275
275
274.999
274.636
274.85
275
275
275
275
275
275
275
275
275
275
275
275
275
275
275
275
275
275
275
275
275
274.997
274.637
274.851
275
275
275
275
275
275
275
275
275
275
275
275
275
275
275
275
275
275
275
275
275
274.996
274.639
274.851
275
275
275
275
275
275
275
275
275
275
275
275
275
275
275
275
275
275
275
275
275
274.995
274.64
274.852
275
275
275
275
275
275
275
275
275
275
275
275
275
275
275
275
275
275
275
275
275
274.994
274.641
274.852
275
275
275
275
275
275
275
275
275
275
275
275
275
275
275
275
275
275
275
275
275
274.993
274.642
274.853
275
275
275
275
275
275
275
275
275
275
275
275
275
275
275
275
275
275
275
275
275
274.992
274.643
274.853
275
275
275
275
275
275
275
275
275
275
275
275
275
275
275
275
275
275
275
275
275
274.991
274.644
274.854
275
275
275
275
275
275
275
275
275
275
275
275
275
275
275
275
275
275
275
275
275
274.99
274.645
274.854
275
275
275
275
275
275
275
275
275
275
275
275
275
275
275
275
275
275
275
275
275
274.989
274.646
274.854
275
275
275
275
275
275
275
275
275
275
275
275
275
275
275
275
275
275
275
275
275
274.987
274.647
274.855
275
275
275
275
275
275
275
275
275
275
275
275
275
275
275
275
275
275
275
275
275
274.986
274.648
274.855
275
275
275
275
275
275
275
275
275
275
275
275
275
275
275
275
275
275
275
275
275
274.985
274.649
274.856
275
275
275
275
275
275
275
275
275
275
275
275
275
275
275
275
275
275
275
275
275
274.984
274.65
274.856
275
275
275
275
275
275
275
275
275
275
275
275
275
275
275
275
275
275
275
275
275
274.983
274.651
274.856
275
275
275
275
275
275
275
275
275
275
275
275
275
275
275
275
275
275
275
275
275
274.982
274.652
274.857
275
275
275
275
275
275
275
275
275
275
275
275
275
275
275
275
275
275
275
275
274.999
274.981
274.653
274.857
275
275
275
275
275
275
275
275
275
275
275
275
275
275
275
275
275
275
275
275
274.999
274.98
274.654
274.857
275
275
275
275
275
275
275
275
275
275
275
275
275
275
275
275
275
275
275
275
275
275
275
275
275
275
275
271.968
272.058
275
275
275
275
275
275
275
275
275
275
275
275
275
275
275
275
275
275
274.996
274.999
274.991
274.999
275
275
275
275
275
275
275
274.983
274.985
274.897
274.947
275
275
275
275
275
275
275
274.989
274.986
274.971
274.925
275
275
275
274.994
274.993
275
275
275
274.999
274.998
275
272.767
271.98
273.652
275
275
274.999
275
275
275
274.998
275
275
274.999
275
275
275
275
274.986
274.995
275
274.983
274.945
274.997
274.985
274.95
274.991
275
274.995
274.986
275
274.996
275
274.985
274.983
275
274.935
274.953
274.943
274.934
274.923
274.894
275
274.982
274.986
274.985
274.983
275
274.948
274.966
274.955
274.945
274.993
274.974
275
274.994
274.998
274.987
274.993
275
274.981
274.988
274.968
274.98
274.997
274.995
274.998
274.999
275
274.992
274.986
274.988
274.992
274.999
274.999
275
275
275
275
275
275
275
275
275
274.995
274.993
274.854
274.78
275
275
275
275
275
275
275
275
274.993
274.989
275
271.489
272.064
274.014
274.27
272.102
272.864
274.765
274.631
275
274.999
274.999
274.298
274.439
274.999
275
275
275
275
275
275
275
275
275
275
275
275
275
275
274.994
274.996
274.926
274.928
274.955
274.95
274.993
274.632
274.996
274.912
274.863
274.871
274.916
274.998
274.946
275
274.841
274.981
274.811
274.999
274.985
275
275
274.999
274.961
275
275
274.962
274.96
274.994
274.993
274.967
274.969
274.986
275
275
275
275
274.986
274.998
275
275
275
275
274.997
274.944
274.945
274.935
274.934
274.859
274.864
274.981
275
275
275
275
274.981
274.984
275
275
275
275
274.984
271.535
274.956
272.123
271.497
272.887
272.165
274.958
274.933
271.556
274.936
274.987
274.986
274.99
275
275
275
275
274.991
273.579
273.956
274.974
273.564
272.945
274.053
273.634
274.975
272.944
273.517
274.997
274.785
274.863
274.649
274.769
274.996
274.597
274.412
274.461
272.407
274.454
274.392
272.77
274.911
274.916
275
275
275
275
275
274.998
274.998
273.458
274.994
274.998
275
274.997
274.996
275
272.383
272.485
271.62
274.389
274.382
272.567
272.711
274.887
274.91
270.576
275
275
275
275
275
275
274.998
275
275
274.991
274.988
274.998
274.983
275
275
275
275
274.983
274.911
274.94
274.965
274.929
274.31
274.187
274.998
274.921
274.953
274.97
274.971
272.657
275
275
275
274.999
274.993
274.99
275
275
275
275
275
275
274.99
275
275
275
275
274.991
274.974
274.563
274.817
274.375
274.421
274.951
274.842
274.869
274.989
274.957
274.976
274.99
274.999
274.999
274.999
274.999
274.986
275
275
274.984
274.939
274.245
274.091
274.939
274.308
274.362
274.064
274.1
274.933
274.898
274.876
274.981
274.999
274.999
274.998
274.999
274.984
274.985
274.998
274.999
274.999
274.998
274.983
274.99
274.864
274.893
274.825
274.808
274.98
274.997
275
275
275
275
274.997
274.984
274.35
274.098
274.582
274.512
274.985
273.134
273.214
274.99
274.653
274.602
273.047
273.113
274.461
274.342
275
275
275
274.183
274.827
274.266
274.326
274.309
274.817
275
275
275
274.999
275
271.565
271.747
272.389
272.384
274.141
272.669
272.575
272.86
272.696
274.174
272.311
272.455
274.715
274.693
274.369
273.1
272.944
272.725
272.798
274.999
275
275
275
275
274.999
274.992
274.997
274.913
274.937
274.963
274.932
274.662
274.906
274.885
274.928
274.913
274.656
274.837
274.817
274.879
274.848
274.894
274.512
274.585
274.378
274.475
274.887
274.119
274.156
274.91
274.995
274.99
274.999
274.996
274.928
274.96
274.95
274.987
274.964
274.997
275
274.999
274.995
274.992
274.998
274.994
274.999
274.995
274.999
275
274.996
274.998
275
274.999
274.998
274.481
274.526
274.97
274.115
273.926
274.602
274.155
273.652
273.479
273.868
273.727
274.953
274.437
274.47
274.815
274.768
274.944
274.855
274.711
274.657
274.76
274.725
274.99
274.875
274.892
274.96
274.975
274.999
274.999
274.988
274.986
274.999
274.999
274.283
274.271
274.94
273.234
273.228
272.532
273.149
273.151
273.37
273.211
273.161
274.228
274.29
274.938
273.2
273.022
273.437
273.255
272.686
272.502
272.953
272.768
274.933
274.13
274.203
274.88
274.872
274.999
274.999
274.981
274.983
274.999
274.999
274.998
274.998
274.985
274.984
274.998
274.998
271.591
271.776
274.327
274.433
274.187
274.289
271.564
272.597
274.575
274.421
274.463
274.548
272.448
273.726
273.786
273.499
273.703
271.725
274.049
274.158
273.82
273.992
271.72
274.839
274.857
274.99
274.761
274.798
274.808
274.759
274.798
274.981
274.797
274.823
273.74
272.151
272.121
272.511
272.201
273.794
272.383
273.168
272.122
273.261
274.711
274.946
274.933
274.961
274.95
274.722
274.545
274.565
273.253
273.347
272.854
273.018
274.541
274.488
275
275
275
275
275
275
275
275
275
275
275
275
275
275
275
275
275
274.998
274.991
274.977
274.975
274.9
274.945
275
275
274.987
274.865
274.856
274.926
274.899
274.914
274.995
275
275
275
274.978
274.984
274.999
275
274.999
275
274.996
274.944
274.975
274.953
274.973
274.971
274.99
274.993
274.993
274.986
274.999
274.999
274.996
274.984
275
275
274.345
274.279
274.949
274.92
274.877
274.874
274.891
274.982
274.993
274.993
274.985
274.993
274.993
274.993
274.993
274.983
274.927
274.447
274.379
274.987
274.999
274.998
274.998
275
275
272.343
272.342
274.706
274.668
274.991
272.353
272.347
274.956
274.963
274.999
275
275
271.457
271.564
271.595
272.013
272.146
271.503
271.532
272.155
272.044
272.758
274.522
274.5
274.651
273.22
273.127
274.388
275
275
275
274.999
274.999
275
275
274.998
274.999
275
275
275
274.986
274.985
274.993
274.997
274.993
274.992
274.92
274.931
274.888
274.895
274.959
274.943
274.859
274.874
274.685
274.688
274.771
274.76
274.632
274.695
274.704
274.995
274.92
274.936
274.932
274.874
274.955
274.946
274.993
274.989
274.973
274.707
274.67
274.922
274.853
274.755
275
275
274.998
274.998
274.994
274.996
274.972
274.996
274.998
274.897
274.926
274.996
274.621
274.576
274.965
274.971
275
275
274.999
274.996
275
275
274.948
274.272
274.277
274.859
274.867
274.993
274.993
274.985
274.984
274.993
274.993
271.579
272.07
272.99
273.053
272.344
272.394
271.443
274.496
274.46
274.93
271.708
271.632
272.096
272.104
271.617
272.293
272.316
271.572
271.587
274.999
274.999
274.988
274.992
274.999
274.999
273.269
274.536
274.572
274.46
274.498
273.165
274.821
274.954
274.964
274.962
274.958
274.833
274.675
274.802
274.786
274.561
274.531
274.601
272.5
272.554
272.581
272.386
274.496
273.406
273.268
273.521
273.439
274.372
274.048
274.061
274.604
274.666
274.928
275
275
275
272.39
272.421
273.246
273.241
271.52
272.647
272.517
272.514
272.478
272.502
272.689
270.622
274.505
274.538
275
275
275
274.981
274.979
274.991
274.985
274.991
274.995
274.989
274.99
274.906
274.942
274.82
274.831
274.831
274.82
274.928
274.85
274.846
274.283
274.076
274.073
274.113
274.105
274.248
274.992
274.997
274.997
274.996
274.996
274.991
274.955
274.986
274.968
274.962
274.986
274.993
274.993
274.877
274.879
274.913
274.882
274.993
274.993
274.982
274.993
274.993
274.985
274.983
274.993
274.993
274.826
274.863
274.848
274.875
274.871
274.823
272.345
272.361
272.376
272.362
273.07
272.669
272.653
274.11
274.111
274.425
274.179
274.229
274.087
274.126
274.383
275
275
275
275
275
275
275
275
275
275
274.247
274.563
274.545
274.614
274.587
274.268
274.387
274.477
274.439
274.53
274.511
274.355
275
275
275
274.998
274.997
275
274.999
271.463
271.922
271.613
271.595
272.389
272.386
273.022
273.074
272.614
271.519
271.485
272.209
271.842
271.862
271.797
272.616
271.857
271.668
274.541
274.575
274.735
274.449
274.459
274.423
274.43
274.67
274.491
274.505
272.739
272.419
272.45
272.39
272.394
272.761
275
275
274.999
274.998
274.999
274.999
274.978
274.992
274.984
274.982
274.986
274.987
274.983
274.984
274.916
274.934
274.844
274.847
274.835
274.84
274.961
274.899
274.901
274.845
274.849
274.937
274.847
274.717
274.694
274.643
274.75
274.738
274.829
274.715
274.711
274.751
274.73
274.823
274.871
274.769
274.782
274.725
274.748
274.86
274.706
274.41
274.656
274.637
274.096
274.114
274.901
274.963
274.959
274.892
274.943
274.979
274.97
274.768
274.736
274.886
274.894
274.953
274.836
274.803
274.983
274.988
274.997
274.992
274.977
274.956
274.976
274.997
274.999
274.999
274.997
274.998
274.994
274.991
274.994
274.999
274.998
274.997
274.999
274.998
274.999
274.996
274.996
274.995
274.997
274.065
273.992
274.477
273.913
273.978
273.776
274.191
273.587
273.529
273.817
273.773
274.791
274.571
274.623
274.467
274.517
274.778
274.934
274.851
274.875
274.653
274.794
274.909
274.534
274.452
274.697
274.138
274.189
274.049
274.093
274.681
274.751
274.381
274.421
274.247
274.311
274.739
274.963
274.974
273.256
272.588
272.68
272.399
272.489
273.244
272.694
272.729
272.725
272.937
273.181
271.911
272
272.066
271.918
273.254
273.195
272.241
272.317
272.095
272.173
273.179
273.154
273.1
273.392
273.319
272.612
272.546
272.893
272.843
274.867
274.869
274.985
274.993
274.993
274.993
274.993
274.984
271.607
272.773
272.901
271.972
271.445
272.485
272.621
271.868
271.786
273.744
272.633
272.642
273.604
272.521
272.305
272.643
272.613
273.668
272.052
271.956
272.152
272.248
271.68
271.714
271.943
274.847
274.918
274.913
274.927
274.923
274.852
274.774
274.791
274.79
274.758
274.757
274.771
274.796
274.886
274.88
274.905
274.895
274.807
272.131
272.51
272.566
272.418
272.464
272.123
272.402
272.854
272.951
272.643
272.744
272.293
272.36
271.897
271.935
271.873
271.881
272.118
272.286
272.365
272.023
272.154
272.092
274.825
274.815
274.698
274.542
274.587
272.403
272.477
272.919
272.51
272.429
272.631
272.59
272.977
272.395
272.39
274.065
274.076
275
275
275
275
275
275
275
275
275
275
275
275
275
275
275
275
275
275
275
275
275
275
275
275
275
275
275
275
275
275
275
275
275
275
275
275
275
275
275
275
275
275
275
275
275
275
275
275
275
275
275
275
275
275
275
275
275
275
275
275
275
275
275
275
275
275
275
275
275
275
275
275
275
275
275
275
275
275
275
275
275
275
275
275
275
275
275
275
275
275
275
275
275
275
275
275
275
275
275
275
275
275
275
275
275
275
275
275
275
275
275
275
275
275
275
275
275
275
275
275
275
275
275
275
275
275
275
275
275
275
275
275
275
275
275
275
274.998
274.998
272.523
274.84
274.854
275
275
275
275
275
275
275
275
275
275
275
275
275
273.529
273.489
274.298
275
275
275
275
275
275
275
275
275
275
275
274.995
274.24
273.54
274.672
275
275
275
275
275
275
275
275
275
275
275
275
275
275
275
275
275
275
275
275
275
275
275
275
275
275
275
275
275
275
275
275
275
275
275
275
275
275
275
275
275
275
275
275
275
275
275
274.998
274.999
275
271.516
273.067
273.082
273.964
273.968
270.649
275
275
275
275
275
275
275
275
275
275
275
275
275
275
275
275
275
275
275
275
275
275
275
275
275
275
275
275
275
275
275
275
275
275
275
275
275
275
275
275
275
275
275
275
275
275
275
275
275
275
275
275
275
275
275
275
274.997
274.999
274.999
275
275
274.999
274.997
274.996
274.998
275
275
275
275
275
275
275
275
275
275
275
275
275
275
275
275
275
275
275
275
275
274.983
274.996
274.996
274.996
274.996
274.984
275
275
275
275
275
275
275
275
275
275
275
275
275
275
275
275
275
275
275
275
275
274.988
275
275
274.996
274.997
274.986
274.969
274.912
274.92
275
275
275
275
275
275
275
275
275
274.994
274.955
274.964
274.979
274.981
274.994
275
275
275
275
275
275
275
275
275
274.998
274.994
274.994
274.99
274.991
274.998
274.999
274.998
275
272.682
274.971
274.97
274.387
274.397
272.046
274.994
274.994
273.509
275
275
275
275
275
275
275
275
275
275
275
275
275
275
275
275
274.999
275
275
275
275
275
275
275
274.999
274.998
274.998
275
275
275
275
275
275
275
275
275
275
275
275
274.987
274.997
274.997
274.999
274.998
274.994
275
275
275
274.981
274.954
274.961
274.87
274.874
274.947
274.966
274.969
274.987
275
275
275
274.995
274.997
274.998
274.999
275
275
274.998
274.998
274.996
275
275
275
274.985
274.996
274.996
274.996
274.996
274.983
275
275
275
274.936
274.847
274.843
274.885
274.881
274.952
274.942
274.864
274.867
274.841
274.839
274.933
275
275
275
274.995
274.995
274.986
275
275
275
274.951
274.696
274.653
274.858
274.849
274.963
274.956
274.892
274.888
274.64
274.592
274.942
274.992
274.975
274.977
274.928
274.935
274.976
275
275
275
274.995
274.999
274.999
274.999
274.999
274.998
274.987
274.996
274.996
274.999
274.999
274.992
275
275
275
274.982
274.929
274.924
274.951
274.948
274.987
274.97
274.876
274.867
274.919
274.913
274.978
274.997
274.988
274.989
274.967
274.974
274.995
274.998
275
274.999
275
275
274.999
275
275
275
274.993
274.742
274.716
274.681
274.726
274.992
274.989
274.956
274.954
274.999
274.964
274.965
275
275
275
275
275
275
275
275
275
275
275
275
275
275
275
275
275
275
275
275
275
274.995
275
275
275
275
274.994
274.845
274.743
274.758
274.641
274.665
274.794
275
275
275
275
275
275
274.999
275
275
275
275
275
275
275
275
275
275
275
274.991
275
275
275
275
274.991
275
275
275
274.062
273.58
273.528
273.836
273.79
274.238
274.751
274.597
274.618
275
275
275
274.999
275
275
275
275
274.999
274.325
273.925
273.882
274.1
274.074
274.422
275
275
275
275
275
275
275
275
275
275
275
275
275
275
275
275
275
275
275
275
275
275
275
275
275
275
275
275
275
275
275
275
275
275
275
275
275
275
275
274.94
274.952
274.993
274.996
274.987
274.988
274.907
274.838
274.846
274.773
274.785
274.87
274.894
274.968
274.965
274.973
274.971
274.9
274.998
274.992
274.992
274.996
274.998
275
274.999
274.987
274.995
274.989
274.996
274.995
275
275
274.999
275
275
275
274.999
274.999
275
275
275
275
274.902
274.907
274.964
274.957
274.893
274.897
274.985
274.987
274.995
274.992
274.98
274.983
274.994
274.994
274.986
275
275
275
275
275
275
275
275
275
275
275
275
274.986
274.994
274.994
274.999
274.999
274.998
275
275
275
275
275
275
275
275
275
275
275
275
274.997
274.999
274.999
274.864
274.862
274.943
274.946
274.868
274.866
274.848
274.85
274.935
274.933
274.844
274.846
274.994
274.993
274.981
275
275
275
275
275
275
275
275
275
275
275
275
274.981
274.994
274.994
275
274.999
274.999
275
274.999
275
275
274.999
274.999
274.999
274.999
275
274.817
274.711
274.953
272.818
273.599
273.671
273.107
273.166
272.222
274.961
274.838
274.828
274.939
274.572
274.511
274.961
274.964
274.988
274.984
274.953
274.957
274.997
274.996
274.989
275
275
275
275
275
275
275
275
275
275
275
275
274.991
274.997
274.997
273.635
273.04
272.982
273.465
273.391
273.905
274.892
274.884
274.972
273.48
274.116
274.167
273.733
273.795
273.006
273.882
274.662
274.687
274.605
274.634
273.819
274.977
274.906
274.899
273.014
272.287
272.227
272.914
272.825
273.444
274.986
274.987
274.997
274.797
274.879
274.871
274.924
274.919
274.854
274.862
274.852
274.751
274.996
274.983
274.984
274.43
273.633
273.547
273.744
273.666
274.448
274.469
274.152
274.126
274.907
274.682
274.717
274.854
274.861
274.921
275
275
275
275
275
275
274.998
275
275
275
275
274.998
274.733
274.725
273.398
274.994
274.957
274.958
274.956
274.957
274.994
274.997
275
275
275
275
274.996
275
275
275
272.429
272.317
271.534
274.378
273.791
273.634
273.814
273.8
274.378
274.904
274.616
274.58
274.709
274.768
274.91
270.586
272.835
273.29
275
275
275
275
275
275
275
275
275
275
275
275
275
275
275
275
275
275
274.999
274.999
274.997
275
275
275
275
275
275
274.998
274.995
274.994
274.996
274.996
274.983
275
274.999
274.999
274.999
274.999
275
275
274.999
274.999
274.999
274.999
275
274.984
274.996
274.996
274.904
274.907
274.966
274.993
274.993
274.998
274.946
274.978
274.976
274.981
274.979
274.949
274.971
274.78
274.685
274.782
274.782
274.971
272.632
274.125
274.117
275
275
275
275
275
275
275
275
275
274.999
274.998
274.999
275
275
275
275
275
275
275
275
275
275
275
275
275
275
275
275
275
275
274.997
274.997
274.988
275
274.999
274.999
274.999
274.999
275
275
275
275
274.999
275
275
274.992
274.998
274.998
274.931
274.943
274.978
274.64
274.854
274.818
274.913
274.892
274.757
274.39
274.716
274.71
274.729
274.722
274.405
274.949
274.877
274.881
274.854
274.931
274.924
274.94
274.936
274.862
274.988
274.972
274.974
274.996
274.997
274.993
274.999
274.999
274.999
274.999
274.997
274.997
274.997
274.997
274.999
275
274.999
274.999
274.999
274.999
275
274.984
274.996
274.996
274.855
274.851
274.938
274.198
274.658
274.671
274.631
274.643
274.141
274.858
274.861
274.94
274.328
274.692
274.685
274.704
274.698
274.347
274.056
274.619
274.623
274.624
274.618
274.073
274.933
274.839
274.839
274.999
274.997
274.997
274.997
274.997
274.999
274.998
274.998
274.999
274.985
274.995
274.995
274.999
274.997
274.997
274.997
274.997
274.999
274.999
274.997
274.997
274.997
274.997
274.998
274.971
274.973
274.991
274.874
274.936
274.931
274.946
274.941
274.884
274.978
274.939
274.943
274.999
274.999
274.997
275
275
275
275
275
275
275
275
275
275
275
275
274.997
274.999
274.999
274.938
274.933
274.983
274.25
274.75
274.767
274.71
274.731
274.214
274.56
274.809
274.82
274.782
274.796
274.537
274.986
274.945
274.941
273.158
272.736
272.717
272.788
272.757
273.183
274.96
274.958
274.99
274.638
274.848
274.856
274.83
274.839
274.621
272.701
272.685
273.091
275
275
275
274.715
274.728
274.836
274.807
274.686
274.702
275
275
275
275
275
275
275
275
275
273.666
273.624
274.103
272.643
273.115
273.152
272.785
273.283
273.344
273.189
273.232
272.732
274.208
273.746
273.705
273.993
273.962
274.349
273.067
273.512
273.549
273.408
273.466
273.016
275
275
275
275
275
275
275
274.999
274.999
275
275
275
274.994
274.994
274.997
274.899
274.815
274.829
274.791
274.802
274.892
274.923
274.859
274.867
274.842
274.851
274.918
274.818
274.829
274.901
274.543
274.723
274.707
274.749
274.737
274.566
274.69
274.672
274.44
274.879
274.796
274.808
274.994
274.984
274.986
274.977
274.981
274.992
274.999
274.996
274.997
274.989
274.993
274.998
274.956
274.899
274.904
274.979
274.942
274.967
274.912
274.924
274.971
274.999
274.998
274.993
275
274.999
275
274.998
274.999
275
275
274.999
274.999
275
275
275
274.999
274.999
275
274.999
274.999
274.998
274.493
274.769
274.761
274.794
274.779
274.507
274.967
274.913
274.92
274.885
274.889
274.955
274.449
274.742
274.736
274.754
274.748
274.459
274.976
274.978
274.991
274.881
274.947
274.943
274.954
274.95
274.887
274.999
274.998
274.998
274.998
274.998
274.999
274.987
274.994
274.995
274.993
274.994
274.986
274.999
274.997
274.997
274.998
274.997
274.999
274.287
274.689
274.692
274.679
274.685
274.283
274.942
274.86
274.858
274.253
274.666
274.659
274.679
274.673
274.273
274.937
274.853
274.855
274.84
274.842
274.933
274.158
274.638
274.631
274.652
274.645
274.18
274.999
274.997
274.997
274.997
274.997
274.999
274.981
274.993
274.993
274.994
274.994
274.982
274.999
274.997
274.998
274.997
274.997
274.999
274.998
274.997
274.997
274.997
274.997
274.998
274.998
274.997
274.997
274.997
274.997
274.998
274.363
273.738
273.663
273.849
273.798
274.4
274.218
273.439
273.391
273.581
273.503
274.252
273.421
273.506
272.725
274.599
274.151
274.099
274.492
273.941
273.895
274.045
273.991
274.52
272.314
273.24
273.328
272.638
272.627
273.763
274.094
273.26
273.179
273.352
273.312
274.129
273.868
272.771
272.682
273.055
272.906
273.928
274.989
274.966
274.969
274.946
274.949
274.983
273.158
273.097
273.687
273.85
273.309
273.229
272.448
272.355
273.086
273.356
272.706
272.571
274.942
274.892
274.898
274.875
274.884
274.938
274.958
274.916
274.922
274.904
274.91
274.954
274.735
274.842
274.834
273.299
272.893
272.833
272.965
272.953
273.343
274.531
274.309
274.308
274.259
274.285
274.511
275
275
275
275
275
275
275
275
275
275
275
275
275
275
275
275
275
275
275
275
275
275
275
275
275
275
275
275
275
275
275
275
275
275
275
275
274.999
275
275
274.987
274.997
274.997
274.904
274.953
274.95
274.959
274.956
274.909
274.994
274.982
274.983
275
275
275
274.98
274.992
274.991
274.994
274.993
274.982
275
275
275
275
275
275
275
275
275
274.993
274.995
274.997
274.961
274.984
274.979
274.989
274.987
274.97
274.996
274.998
274.998
274.996
274.996
274.984
275
274.999
274.999
274.999
274.999
275
274.315
274.722
274.732
274.709
274.715
274.292
274.951
274.878
274.875
274.431
274.761
274.769
274.741
274.751
274.408
274.996
274.996
274.987
275
275
274.998
275
275
275
274.694
274.875
274.88
274.863
274.869
274.682
274.991
274.964
274.962
274.958
274.983
274.982
274.985
274.984
274.961
273.181
273.641
273.675
273.58
273.61
273.152
274.406
274.048
274.021
275
275
275
275
275
275
275
275
275
275
275
275
275
275
275
275
275
275
274.985
274.986
274.995
274.926
274.965
274.962
274.97
274.967
274.931
275
275
275
274.999
275
274.999
274.903
274.962
274.958
274.972
274.966
274.912
274.995
274.989
274.991
274.999
274.999
274.999
274.998
274.998
274.996
274.873
274.87
274.947
274.27
274.701
274.704
274.694
274.697
274.272
274.483
274.789
274.796
274.776
274.783
274.472
274.988
274.996
274.996
274.997
274.997
274.991
273.987
274.055
273.38
273.075
273.852
273.922
274.897
274.888
274.809
274.928
274.933
274.967
274.844
274.912
274.905
274.2
274.177
274.483
273.367
273.786
273.818
273.712
273.75
273.319
273.494
273.921
273.951
273.857
273.891
273.467
274.625
274.772
274.761
274.794
274.784
274.646
274.924
274.868
274.875
273.204
272.806
272.862
272.835
272.817
273.218
271.523
272.301
272.309
272.591
272.678
270.602
274.55
274.051
273.813
274.266
274.196
274.541
275
275
275
275
275
275
275
275
275
275
275
275
275
275
275
275
275
275
275
275
275
275
275
275
275
275
275
275
275
275
275
275
275
275
275
275
275
275
275
275
275
275
275
275
275
275
275
275
275
275
275
275
275
275
275
275
275
275
275
275
275
275
275
275
275
275
275
275
275
275
275
275
275
275
275
275
275
275
275
275
275
275
275
275
275
275
275
275
275
275
275
275
275
275
275
275
275
275
275
275
275
275
275
275
275
275
275
275
275
275
275
275
275
275
275
275
275
272.291
273.971
273.961
275
275
275
275
275
275
275
275
275
275
274.998
274.998
274.27
274.979
274.979
275
275
275
275
275
275
275
275
275
275
275
275
275
275
275
274.99
274.249
274.245
274.68
275
275
275
275
275
275
275
275
275
275
275
275
275
275
275
275
275
275
275
275
275
275
275
275
275
275
275
275
275
275
275
275
275
275
275
275
275
275
275
275
275
275
275
275
274.989
274.997
274.997
275
275
275
273.092
273.095
271.995
275
275
275
275
275
275
275
275
275
274.999
275
275
274.994
274.998
274.998
274.998
274.998
274.993
275
275
274.999
274.992
274.969
274.968
274.967
274.965
274.991
274.995
274.995
274.999
275
275
275
275
275
275
275
275
275
274.995
274.999
274.999
274.998
274.998
274.993
275
275
275
275
275
275
275
275
275
275
275
275
274.992
274.998
274.998
274.997
274.997
274.99
274.999
275
275
275
275
274.999
274.999
275
275
275
275
275
275
275
275
275
275
275
275
275
275
274.88
274.934
274.929
274.953
274.951
274.911
274.002
274.426
274.453
274.212
274.252
273.697
275
275
275
275
275
275
275
275
275
274.925
274.958
274.956
275
275
275
275
275
275
274.319
274.6
274.616
274.479
274.502
274.139
275
275
275
275
275
275
275
275
275
275
275
275
275
275
275
275
275
275
275
274.999
274.999
274.999
274.999
275
275
275
275
275
275
275
275
275
275
274.999
274.995
274.996
275
275
275
275
275
275
275
275
275
275
275
275
275
275
275
275
275
275
275
275
275
275
275
275
275
275
275
275
275
275
275
275
275
275
275
275
275
275
275
275
275
275
275
275
275
275
275
275
275
275
275
275
275
275
275
275
275
275
275
275
275
275
275
275
275
275
275
275
275
274.998
275
275
275
275
274.998
274.024
273.998
272.403
274.836
274.57
274.583
274.569
274.568
274.836
275
275
275
275
275
275
275
275
275
275
275
275
274.997
274.997
275
273.517
274.849
274.844
274.864
274.856
273.504
274.979
274.979
274.284
275
275
275
275
275
275
275
275
275
275
275
275
275
275
275
275
275
275
275
275
275
275
275
275
275
275
275
275
275
275
275
275
275
275
275
275
275
275
275
274.998
275
275
275
275
274.999
275
275
275
272.314
272.318
271.534
270.897
272.641
272.583
275
275
275
275
275
275
275
275
275
275
275
275
275
275
275
275
275
275
275
275
275
275
275
275
275
275
275
275
275
275
275
275
275
275
275
275
275
275
275
275
275
275
275
275
275
275
275
275
275
275
275
275
275
275
275
275
275
275
275
275
275
275
275
275
275
275
274.997
274.997
274.988
275
274.999
274.999
274.999
274.999
275
275
275
275
274.959
274.982
274.981
274.985
274.984
274.962
274.108
274.101
272.706
274.971
274.778
274.781
274.392
273.834
273.826
273.842
273.84
274.395
272.012
273.097
273.099
274.959
274.96
274.994
273.556
274.748
274.741
275
275
275
275
275
275
275
275
275
275
275
275
274.999
275
275
275
275
275
275
275
275
275
275
275
275
275
274.999
275
275
275
275
275
275
275
275
275
275
275
275
275
275
275
275
275
275
274.681
274.871
274.877
274.86
274.866
274.667
274.625
274.848
274.854
274.835
274.842
274.61
275
275
275
274.998
274.998
274.995
274.993
274.998
274.997
275
275
275
275
275
275
274.969
274.987
274.986
274.989
274.988
274.972
275
275
275
275
275
275
274.999
275
275
274.971
274.97
274.993
274.735
274.894
274.897
274.885
274.89
274.726
274.678
274.859
274.861
274.894
274.869
274.689
274.996
274.996
274.999
274.964
274.986
274.986
274.986
274.986
274.964
275
275
275
275
275
275
274.999
274.999
274.995
274.994
274.998
274.999
275
275
275
275
275
275
275
275
275
275
275
275
274.998
274.998
274.992
274.99
274.998
274.998
275
275
274.999
274.999
275
275
275
275
275
275
275
275
275
275
275
275
275
275
275
275
275
275
275
275
275
275
275
275
275
275
275
275
275
275
275
275
275
275
275
275
275
275
275
275
275
275
275
275
275
275
275
275
275
275
274.944
274.975
274.972
274.979
274.977
274.948
274.941
274.938
274.887
274.905
274.948
274.945
274.997
274.999
274.999
274.999
274.999
274.998
274.99
274.996
274.995
274.998
274.997
274.993
274.883
274.888
274.725
274.55
274.819
274.827
274.803
274.811
274.53
274.361
274.394
273.944
273.757
274.289
274.326
273.602
274.028
274.055
273.977
274.004
273.574