/*--------------------------------*- C++ -*----------------------------------*\
| =========                 |                                                 |
| \\      /  F ield         | OpenFOAM: The Open Source CFD Toolbox           |
|  \\    /   O peration     | Version:  5.x                                   |
|   \\  /    A nd           | Web:      www.OpenFOAM.org                      |
|    \\/     M anipulation  |                                                 |
\*---------------------------------------------------------------------------*/
FoamFile
{
    version     2.0;
    format      ascii;
    class       volVectorField;
    location    "400";
    object      U;
}
// * * * * * * * * * * * * * * * * * * * * * * * * * * * * * * * * * * * * * //

dimensions      [0 1 -1 0 0 0 0];

internalField   nonuniform List<vector> 
6584
(
(1.00007 -0.000193262 4.5701e-27)
(1.00005 -0.000424564 2.21957e-25)
(1.00007 -0.000576614 2.00272e-30)
(1.00007 -0.000785061 -3.981e-25)
(1.00008 -0.00100383 0)
(1.00008 -0.00124332 0)
(1.00007 -0.00147719 0)
(1.00002 -0.00162602 4.09223e-25)
(0.999952 -0.00162333 4.11204e-25)
(0.999836 -0.00131464 0)
(0.999717 -0.000504154 1.62783e-25)
(0.999638 0.000746028 -1.90865e-25)
(0.999665 0.00212457 -1.06098e-26)
(0.999793 0.00318091 2.62752e-26)
(0.99994 0.00364583 7.6988e-27)
(1.00009 0.00353761 8.84128e-25)
(1.00016 0.00310692 7.86546e-25)
(1.00018 0.00256733 6.38422e-26)
(1.00017 0.00202274 5.44622e-25)
(1.00015 0.00154132 3.91107e-25)
(1.00012 0.00114851 0)
(1.0001 0.000809738 0)
(1.00008 0.000574217 5.82711e-25)
(1.0001 0.000254889 3.56956e-25)
(1.0003 -0.000406126 -2.16662e-25)
(1.00026 -0.000855314 -8.45573e-25)
(1.00031 -0.0011386 -1.13461e-24)
(1.00033 -0.00156 0)
(1.00038 -0.00200185 -1.515e-25)
(1.00038 -0.0024996 -1.26939e-24)
(1.00034 -0.00301071 -7.73751e-25)
(1.00012 -0.00336488 1.30535e-24)
(0.999811 -0.00342472 -7.17328e-26)
(0.999031 -0.0028523 -2.86058e-25)
(0.998112 -0.00120032 -9.29272e-29)
(0.997542 0.00143626 0)
(0.997724 0.00438265 5.15306e-25)
(0.998609 0.00660546 2.97915e-25)
(0.999748 0.00756262 -1.98098e-24)
(1.0005 0.00728088 -5.25084e-25)
(1.00081 0.00630162 -1.20902e-24)
(1.0009 0.00514597 -1.57431e-24)
(1.00083 0.0040111 -4.02767e-24)
(1.00071 0.00303306 -3.309e-24)
(1.00058 0.0022541 -2.30806e-25)
(1.00049 0.00157947 -9.66746e-26)
(1.00038 0.00114301 0)
(1.0004 0.000529116 3.12007e-25)
(1.00066 -0.000623712 -5.47416e-25)
(1.00063 -0.00126624 0)
(1.00075 -0.0016588 -2.22357e-25)
(1.00083 -0.00229417 -1.48141e-24)
(1.00096 -0.00297224 -2.24869e-24)
(1.001 -0.00377749 0)
(1.00091 -0.0046906 0)
(1.00042 -0.00538091 -3.08556e-25)
(0.999524 -0.00609493 -1.4402e-25)
(0.998203 -0.00417863 1.05414e-25)
(0.99667 -0.00214672 -1.83194e-25)
(0.995524 0.00131688 -2.5626e-25)
(0.995731 0.00547162 0)
(0.997326 0.00869706 0)
(0.999327 0.0101481 3.17009e-26)
(1.0013 0.0117021 -2.19739e-24)
(1.00212 0.00969218 0)
(1.0023 0.00772134 -7.13584e-25)
(1.00209 0.00588713 0)
(1.00176 0.00438083 -5.30218e-25)
(1.00141 0.00323014 -1.41377e-24)
(1.00116 0.00224083 -8.40941e-25)
(1.00092 0.00164832 0)
(1.00088 0.000792201 2.42409e-25)
(1.0011 -0.000826432 -3.35695e-25)
(1.00112 -0.00162419 0)
(1.00134 -0.00210371 -2.992e-25)
(1.00154 -0.00294141 0)
(1.0018 -0.00386065 0)
(1.00199 -0.00503597 0)
(1.00194 -0.00650802 -4.64711e-25)
(1.00129 -0.00792587 4.244e-24)
(0.999565 -0.00968347 -3.17842e-25)
(0.997008 -0.00770062 3.23134e-25)
(0.993657 -0.00528305 -1.94911e-25)
(0.99039 0.000309886 4.04015e-26)
(0.990258 0.00825811 4.78457e-26)
(0.99404 0.0143656 0)
(0.998683 0.0161308 -3.28455e-24)
(1.00194 0.0146797 0)
(1.00463 0.0132525 0)
(1.00455 0.0102462 5.07398e-24)
(1.00399 0.00753381 3.30382e-24)
(1.00323 0.00547405 -1.09989e-24)
(1.00256 0.00398652 -7.62557e-25)
(1.00205 0.00273032 0)
(1.00162 0.00203083 3.53342e-25)
(1.00145 0.00100946 2.8653e-25)
(1.0016 -0.000994556 -1.30161e-25)
(1.00171 -0.00189489 -8.48639e-27)
(1.00206 -0.00242831 -4.04611e-26)
(1.00244 -0.00343765 -6.19841e-26)
(1.00294 -0.00456644 1.29673e-25)
(1.00347 -0.00614067 3.30524e-24)
(1.00369 -0.00829697 -5.20757e-24)
(1.00342 -0.0106942 4.89817e-24)
(1.00005 -0.0115529 2.27046e-25)
(0.996616 -0.0128174 1.44586e-24)
(0.99002 -0.0112136 -2.41171e-25)
(0.981121 -0.00287681 2.47589e-25)
(0.979631 0.0124956 -4.98389e-26)
(0.989171 0.023688 4.74695e-24)
(0.999227 0.0248541 0)
(1.00484 0.020861 3.17911e-24)
(1.00659 0.015654 -6.93111e-25)
(1.00771 0.0118839 -4.01942e-24)
(1.00651 0.00869029 -2.28264e-24)
(1.00508 0.00611766 9.35293e-25)
(1.00395 0.00441338 -5.31079e-26)
(1.00308 0.0029728 -2.9995e-26)
(1.00241 0.00223442 4.01249e-25)
(1.00204 0.00114881 -1.50866e-25)
(1.00211 -0.00110856 6.45788e-26)
(1.00236 -0.00204336 -1.71702e-25)
(1.00286 -0.00257971 -9.22734e-27)
(1.0035 -0.00369254 0)
(1.00433 -0.00491852 -6.98855e-25)
(1.00541 -0.00682735 -3.08832e-25)
(1.00621 -0.00918602 -2.10186e-24)
(1.00506 -0.0117377 -5.19406e-25)
(1.00303 -0.0155735 2.18844e-24)
(0.999147 -0.0205224 8.29328e-24)
(0.986668 -0.0205824 1.76349e-24)
(0.96952 -0.0121415 2.62509e-28)
(0.962129 0.01603 -8.18578e-26)
(0.982713 0.036948 6.6256e-25)
(1.00365 0.0378748 -7.14385e-24)
(1.0111 0.0279289 0)
(1.0119 0.0195831 4.22917e-28)
(1.01181 0.0126914 7.47771e-25)
(1.00954 0.00909887 1.85727e-25)
(1.0072 0.00614787 1.06294e-24)
(1.00549 0.00439891 -3.87201e-25)
(1.00416 0.00289948 0)
(1.00322 0.00220997 -2.05254e-25)
(1.00261 0.001181 -2.85203e-25)
(1.00259 -0.00115246 6.55498e-28)
(1.003 -0.0020434 -8.12367e-26)
(1.00367 -0.00251745 1.01889e-25)
(1.00461 -0.00363504 1.24305e-26)
(1.00585 -0.00479051 1.81202e-26)
(1.00762 -0.00686837 -1.11514e-24)
(1.00934 -0.00920549 -1.55476e-24)
(1.00886 -0.012851 -7.11626e-26)
(1.00916 -0.0189313 -3.28032e-25)
(1.00725 -0.0286567 1.22825e-24)
(0.992314 -0.0385932 0)
(0.95394 -0.0403892 1.18948e-24)
(0.910492 0.023246 4.34636e-26)
(0.980533 0.0750468 3.18741e-24)
(1.0133 0.0526077 -4.60499e-27)
(1.0226 0.0334155 0)
(1.01966 0.0212183 2.17114e-24)
(1.01664 0.0118243 4.69685e-25)
(1.01282 0.00837426 3.82582e-25)
(1.00939 0.00538957 -9.84356e-26)
(1.007 0.003849 -8.3459e-25)
(1.00517 0.00246269 0)
(1.00396 0.00192475 -1.86518e-25)
(1.00306 0.00108431 -1.72882e-25)
(1.00301 -0.00111806 -7.87228e-26)
(1.00358 -0.00188698 7.00143e-26)
(1.0044 -0.00222923 3.64866e-26)
(1.00564 -0.00323102 2.5372e-26)
(1.00728 -0.00411175 -4.37119e-26)
(1.00977 -0.00603125 5.33382e-25)
(1.0126 -0.00780598 1.36263e-28)
(1.01366 -0.0119728 -2.15213e-25)
(1.01758 -0.0187924 2.10218e-28)
(1.02217 -0.0310724 -3.04394e-24)
(1.01745 -0.0536565 -8.1186e-26)
(0.992733 -0.107381 3.03251e-26)
(1.02393 0.131214 5.59069e-25)
(1.04294 0.0633155 -5.65134e-25)
(1.03906 0.0325767 1.1969e-24)
(1.02913 0.0188555 -2.45909e-25)
(1.02137 0.00874457 7.88838e-25)
(1.01582 0.00627243 8.03593e-25)
(1.01132 0.00375917 5.53966e-25)
(1.00828 0.00273123 -2.49808e-25)
(1.00597 0.00165773 0)
(1.00452 0.00137549 0)
(1.00334 0.000850794 -2.47712e-30)
(1.00332 -0.00100872 -1.43455e-26)
(1.00403 -0.00159153 -2.30165e-27)
(1.00496 -0.00174522 -1.05884e-26)
(1.00642 -0.00251549 6.02749e-26)
(1.00837 -0.00293848 7.47345e-26)
(1.01137 -0.0043394 3.8499e-25)
(1.01512 -0.00502431 1.07854e-24)
(1.01811 -0.00865213 0)
(1.02562 -0.0135283 0)
(1.03775 -0.02215 0)
(1.05188 -0.0426064 -1.08124e-25)
(1.08293 -0.0888481 1.38084e-26)
(1.12762 0.108263 0)
(1.08061 0.0460934 0)
(1.05452 0.0211601 0)
(1.0375 0.0114434 2.35063e-25)
(1.02473 0.0036308 0)
(1.01783 0.00289883 -8.55404e-25)
(1.01258 0.00138043 -5.61838e-25)
(1.00907 0.00112557 -5.11487e-26)
(1.00642 0.000545698 0)
(1.00479 0.0005989 8.72567e-27)
(1.00338 0.000490857 6.0986e-27)
(1.00349 -0.000840332 2.69735e-27)
(1.0043 -0.00120126 -4.22989e-27)
(1.00527 -0.00114211 4.81467e-27)
(1.00684 -0.00160968 2.56796e-26)
(1.00891 -0.00149319 -6.57698e-26)
(1.01203 -0.00215009 -5.09634e-27)
(1.01614 -0.00156845 -1.09656e-25)
(1.02057 -0.0036435 -6.82455e-27)
(1.02963 -0.00463655 0)
(1.04479 -0.00556309 -2.7601e-25)
(1.06885 -0.0114234 1.28747e-30)
(1.11729 -0.0206887 -3.5325e-26)
(1.17125 0.0198789 -9.12069e-26)
(1.09977 0.00717983 -3.34959e-25)
(1.06105 0.00211728 -2.56778e-24)
(1.04141 0.000517427 0)
(1.02568 -0.00243807 -1.66484e-24)
(1.0183 -0.00118931 0)
(1.01288 -0.00139371 -9.4703e-27)
(1.00919 -0.000764869 0)
(1.0064 -0.000744165 2.48663e-27)
(1.00472 -0.000327625 -2.29654e-27)
(1.00316 3.45404e-05 -3.68058e-26)
(1.00353 -0.000638381 0)
(1.00438 -0.000777829 -2.31532e-26)
(1.00532 -0.000523665 -2.46548e-26)
(1.00685 -0.000685663 2.84392e-28)
(1.00882 -8.56969e-05 1.21441e-26)
(1.01167 -4.80148e-06 9.37576e-26)
(1.01546 0.0015953 3.76116e-25)
(1.02029 0.00142464 1.70526e-25)
(1.02823 0.00422477 0)
(1.04063 0.0103165 1.37698e-24)
(1.06223 0.0193776 4.25578e-25)
(1.09985 0.0415678 -1.59509e-26)
(1.14646 -0.0624315 -4.39856e-26)
(1.09152 -0.0313717 5.50798e-25)
(1.05624 -0.0168245 1.12106e-25)
(1.03949 -0.0104845 1.47603e-24)
(1.02398 -0.0080327 7.34219e-24)
(1.01712 -0.00518437 4.07718e-24)
(1.01215 -0.00408774 -2.75335e-24)
(1.00862 -0.00267009 -1.94598e-24)
(1.00589 -0.00204499 1.2828e-25)
(1.00429 -0.00130121 5.56304e-26)
(1.00266 -0.000474529 -1.27237e-25)
(1.00346 -0.00043153 3.28084e-27)
(1.00429 -0.000383633 1.1786e-26)
(1.00513 1.12096e-05 1.54658e-26)
(1.00652 9.50532e-05 6.36874e-27)
(1.00824 0.00101359 -4.59544e-34)
(1.01055 0.00162515 1.84574e-25)
(1.01355 0.00372913 5.95334e-25)
(1.01773 0.00505893 1.93929e-25)
(1.02287 0.00997144 0)
(1.02919 0.0192451 -3.90009e-25)
(1.04059 0.0358705 -9.4245e-26)
(1.0538 0.0723411 -1.61443e-26)
(1.08606 -0.102765 -1.89157e-26)
(1.06518 -0.0534227 0)
(1.04375 -0.0292943 -2.26092e-24)
(1.03302 -0.0184985 1.84261e-24)
(1.02027 -0.0120925 1.0412e-23)
(1.01467 -0.00837602 6.85058e-24)
(1.01054 -0.00629435 0)
(1.00744 -0.00433801 -1.71117e-24)
(1.00496 -0.00320296 -9.52504e-25)
(1.00353 -0.0022189 8.26445e-26)
(1.00193 -0.000988698 -1.01506e-25)
(1.00331 -0.000244594 0)
(1.00408 -6.52871e-05 5.03246e-27)
(1.0048 0.000398226 -6.1146e-27)
(1.00598 0.000634003 -1.70298e-26)
(1.00737 0.00166999 0)
(1.00908 0.00251773 -5.64344e-26)
(1.01119 0.00461367 9.43427e-26)
(1.01415 0.00662068 -2.99035e-26)
(1.01638 0.0116092 -4.43882e-26)
(1.01698 0.0198417 2.06362e-25)
(1.01759 0.034705 4.02225e-26)
(1.00534 0.062217 0)
(1.02702 -0.0983343 -1.89491e-26)
(1.03593 -0.0562365 1.74086e-25)
(1.02946 -0.033316 1.04863e-24)
(1.02469 -0.022256 1.3125e-25)
(1.01566 -0.0142483 4.50818e-24)
(1.01157 -0.0104003 4.78533e-24)
(1.0084 -0.00779383 0)
(1.00585 -0.00560222 -2.51925e-26)
(1.00373 -0.00411044 3.90418e-25)
(1.00251 -0.00300345 2.14773e-25)
(1.00103 -0.00146602 7.64369e-27)
(1.00312 -9.41465e-05 0)
(1.00381 0.00015397 0)
(1.0044 0.000617338 0)
(1.00536 0.000910501 0)
(1.00645 0.00189116 -1.37962e-26)
(1.00766 0.00273099 -1.32412e-26)
(1.00904 0.00439953 -1.91488e-25)
(1.01012 0.00681893 2.88207e-24)
(1.01121 0.0101383 0)
(1.00863 0.0151396 0)
(1.00417 0.0229192 6.04733e-25)
(0.983243 0.0303735 2.09122e-24)
(0.537123 -0.0310275 -7.19909e-26)
(0.992724 -0.0601317 -3.84151e-24)
(1.01517 -0.0461345 -7.29691e-25)
(1.01792 -0.0309201 -5.21763e-27)
(1.01689 -0.0223432 -2.92794e-26)
(1.01116 -0.0147488 -1.16871e-24)
(1.00841 -0.0112744 1.94783e-25)
(1.00608 -0.00857104 3.28649e-27)
(1.00408 -0.00640833 -1.72118e-24)
(1.00234 -0.00472893 0)
(1.00135 -0.00361088 7.87772e-26)
(1.00003 -0.0018773 -2.04731e-25)
(1.00292 1.26257e-05 0)
(1.00352 0.000272924 -3.2857e-26)
(1.004 0.00068504 2.04027e-27)
(1.00479 0.000962583 0)
(1.00565 0.0017852 0)
(1.00654 0.00245544 -1.08114e-24)
(1.00745 0.00369296 1.80747e-25)
(1.00814 0.00511391 3.71776e-24)
(1.00813 0.00736324 4.15734e-24)
(1.00543 0.009394 2.32902e-24)
(1.0009 0.0113673 0)
(0.988381 0.0065724 -2.26242e-25)
(0.813299 -0.0260842 1.32112e-25)
(0.990991 -0.034553 -4.11376e-25)
(1.00523 -0.0308042 3.76556e-25)
(1.01075 -0.0255812 -3.85544e-25)
(1.00894 -0.0180766 7.14323e-25)
(1.00739 -0.0140675 -1.55536e-25)
(1.00557 -0.0112187 1.55242e-28)
(1.00385 -0.00874377 -3.23488e-27)
(1.00233 -0.00679996 0)
(1.00092 -0.00507134 -7.32344e-25)
(1.00013 -0.0040316 -8.86635e-25)
(0.998987 -0.00220855 -2.67248e-25)
(1.00275 7.60137e-05 9.79708e-28)
(1.00327 0.000305086 -3.39543e-26)
(1.00367 0.000636561 5.22416e-26)
(1.00434 0.000853388 6.81642e-30)
(1.00505 0.00147604 -1.94042e-25)
(1.00576 0.001919 -7.97544e-25)
(1.00649 0.0026902 -2.04923e-24)
(1.00699 0.00346455 -2.71582e-24)
(1.00683 0.0045559 -9.67381e-25)
(1.0052 0.00467045 -1.3655e-25)
(1.00291 0.00301898 0)
(0.996516 -0.000900675 -9.09701e-26)
(0.846352 -0.0212253 -9.44569e-25)
(0.996574 -0.0209009 -1.28675e-25)
(1.00309 -0.0225835 -1.15868e-25)
(1.00695 -0.0203987 -1.98343e-25)
(1.00581 -0.0156974 -3.1672e-24)
(1.00459 -0.0129345 0)
(1.00324 -0.0106499 -5.31735e-25)
(1.00189 -0.0085163 -1.96624e-25)
(1.0007 -0.00685976 -2.14445e-26)
(0.99955 -0.00518186 1.42471e-25)
(0.998934 -0.00427397 0)
(0.997965 -0.00245394 0)
(1.00262 0.000100961 -7.29581e-28)
(1.00307 0.000270724 1.20987e-27)
(1.00343 0.000510815 3.11669e-26)
(1.00401 0.000647759 0)
(1.00466 0.0010656 -9.95627e-26)
(1.0053 0.00130103 0)
(1.00606 0.00163079 -1.72946e-24)
(1.00665 0.00196647 6.90537e-25)
(1.00714 0.00162779 -3.25988e-26)
(1.00608 0.00154012 -7.32861e-26)
(1.00606 -0.000806772 3.06093e-25)
(1.00046 -0.00703294 -1.47309e-25)
(0.910633 -0.0170504 -1.06553e-24)
(0.999235 -0.0168529 6.56006e-26)
(1.00297 -0.0172905 2.92989e-25)
(1.00508 -0.0162472 1.0035e-25)
(1.00353 -0.0134794 -1.49522e-24)
(1.00256 -0.0114896 1.73651e-24)
(1.00138 -0.00980553 0)
(1.00025 -0.00803238 6.06171e-25)
(0.99927 -0.00669171 -7.32832e-26)
(0.998305 -0.00512223 1.59864e-25)
(0.997806 -0.00437308 0)
(0.996994 -0.00262159 0)
(1.00255 9.44797e-05 9.8134e-27)
(1.00293 0.000191018 2.66052e-27)
(1.00328 0.000342227 -2.20388e-26)
(1.00381 0.000400388 1.80653e-26)
(1.00447 0.00063318 0)
(1.00511 0.000717913 0)
(1.006 0.000726917 -4.49784e-25)
(1.00682 0.00078903 -8.19156e-26)
(1.00789 2.86908e-05 1.4184e-25)
(1.00742 -0.000539182 -5.39833e-25)
(1.00823 -0.00270172 0)
(0.999263 -0.00613503 -4.10862e-25)
(0.920768 -0.0160955 -2.59362e-24)
(1.00227 -0.0124526 5.22607e-25)
(1.00347 -0.0125238 9.7595e-25)
(1.00394 -0.0116876 2.55544e-24)
(1.00221 -0.0114545 1.41443e-24)
(1.00119 -0.00995632 1.42646e-24)
(0.999961 -0.00887011 -2.28195e-25)
(0.998926 -0.00740706 -1.52195e-25)
(0.998045 -0.00637943 -3.14249e-25)
(0.997208 -0.00494477 -1.12999e-24)
(0.996781 -0.00435916 7.44707e-28)
(0.996102 -0.00272014 -6.116e-26)
(1.00252 6.37165e-05 6.8665e-27)
(1.00286 8.43227e-05 3.52373e-27)
(1.00321 0.000156433 -2.42385e-26)
(1.00372 0.000148863 -1.06286e-26)
(1.00441 0.000225626 0)
(1.0051 0.000225289 0)
(1.00616 -2.38251e-06 1.01023e-24)
(1.00713 4.68528e-05 2.27774e-25)
(1.00879 -0.0011078 -2.60805e-25)
(1.00848 -0.000538765 -8.17932e-25)
(1.01029 -0.00515264 0)
(0.963679 0.000644606 -1.12133e-24)
(0.960601 -0.0127221 5.4075e-26)
(1.00593 -0.00683577 2.49562e-25)
(1.00365 -0.0111466 1.68584e-25)
(1.00388 -0.0094915 -5.67845e-25)
(1.00152 -0.0098988 -4.28186e-25)
(1.00028 -0.00861334 2.31774e-25)
(0.998903 -0.00798522 -5.52095e-26)
(0.997883 -0.00673948 -1.07366e-24)
(0.997022 -0.00599578 -3.55269e-25)
(0.996267 -0.00469635 -1.46125e-24)
(0.995874 -0.00426376 0)
(0.995303 -0.00276193 -2.07549e-25)
(1.00254 1.47827e-05 -4.89994e-27)
(1.00285 -3.56535e-05 -2.95751e-27)
(1.00321 -3.06659e-05 0)
(1.00372 -8.63852e-05 1.92278e-28)
(1.00447 -0.000141017 0)
(1.00519 -0.000168332 -3.87762e-25)
(1.00642 -0.000601775 -1.55157e-25)
(1.00748 -0.000427798 5.40369e-26)
(1.00951 -0.00198894 -1.82458e-25)
(1.00938 -0.000751712 -2.30137e-25)
(1.01064 -0.00571102 -1.35735e-25)
(0.965773 -0.000335761 -2.222e-24)
(0.962685 -0.0104088 1.03131e-24)
(1.00617 -0.00502352 -2.28152e-25)
(1.004 -0.00978988 -8.89973e-26)
(1.00385 -0.00766568 -1.32884e-26)
(1.00105 -0.00866949 -2.40343e-25)
(0.999655 -0.00743421 -2.92341e-25)
(0.998103 -0.00718726 -6.0986e-25)
(0.997065 -0.00608219 -1.61668e-25)
(0.996177 -0.00558878 -9.81837e-26)
(0.995471 -0.00441092 -4.83561e-25)
(0.995083 -0.00411477 -2.05897e-25)
(0.994599 -0.00275847 -9.19546e-26)
(1.00261 -4.76118e-05 0)
(1.00289 -0.000159564 -1.10474e-26)
(1.00328 -0.000210344 -2.34206e-26)
(1.00378 -0.000295461 1.10235e-26)
(1.00459 -0.000462928 1.67271e-25)
(1.00535 -0.000470943 -5.84748e-25)
(1.00672 -0.0010906 0)
(1.00787 -0.000737656 -1.98205e-25)
(1.01012 -0.00260295 0)
(1.01028 -0.000928826 0)
(1.01121 -0.0057428 9.30158e-28)
(0.967411 -0.000713538 5.95041e-27)
(0.964296 -0.00893373 4.08542e-25)
(1.00668 -0.00392368 -1.38131e-25)
(1.00448 -0.00864236 -3.0868e-26)
(1.00385 -0.00623314 -6.17986e-27)
(1.00075 -0.00767998 4.08108e-26)
(0.999211 -0.00640188 -1.28173e-25)
(0.997494 -0.00648413 -1.59544e-25)
(0.996423 -0.00545983 2.59525e-25)
(0.995482 -0.0051859 -9.75667e-26)
(0.994805 -0.00411105 0)
(0.994403 -0.00393323 4.67246e-30)
(0.993986 -0.00271961 0)
(1.0027 -0.000120067 0)
(1.00297 -0.000281487 -2.15845e-26)
(1.00338 -0.000378354 -1.41759e-26)
(1.00389 -0.000474769 2.8391e-26)
(1.00476 -0.000740438 0)
(1.00555 -0.00069556 5.92052e-26)
(1.00705 -0.00147701 -5.63112e-25)
(1.00827 -0.000931012 -4.38745e-25)
(1.01064 -0.00299396 -5.7843e-26)
(1.01107 -0.00102356 -1.65915e-27)
(1.0117 -0.00560688 3.36697e-25)
(0.968412 -0.000894257 -2.75556e-25)
(0.965266 -0.00784277 5.10275e-25)
(1.00717 -0.00315487 -1.08106e-25)
(1.00493 -0.00772291 1.12726e-25)
(1.0039 -0.0051262 4.94374e-27)
(1.00059 -0.00688039 -9.81575e-26)
(0.998899 -0.0055161 8.89622e-26)
(0.997031 -0.00587731 2.10179e-25)
(0.995919 -0.00488641 -3.876e-30)
(0.994911 -0.00480375 -4.63673e-26)
(0.99425 -0.0038114 -2.9404e-25)
(0.993822 -0.00373443 1.53562e-25)
(0.993457 -0.00265342 1.40315e-25)
(1.00283 -0.000200279 -1.66749e-26)
(1.00308 -0.000398171 -2.9682e-26)
(1.00352 -0.000533452 -9.06394e-34)
(1.00403 -0.0006251 7.34126e-26)
(1.00496 -0.00097695 2.07034e-25)
(1.00578 -0.00085826 4.32588e-26)
(1.00737 -0.00177704 -5.73665e-25)
(1.00866 -0.0010479 -3.99705e-25)
(1.01109 -0.00323701 2.30215e-25)
(1.01171 -0.00107746 0)
(1.01206 -0.00541225 6.68168e-26)
(0.969101 -0.000976182 -1.02784e-25)
(0.96592 -0.00699814 1.56311e-25)
(1.00756 -0.00258213 -8.37254e-26)
(1.0053 -0.00696803 -6.04992e-31)
(1.00395 -0.00425823 -1.65563e-25)
(1.0005 -0.00622722 -8.00075e-26)
(0.998673 -0.00476436 -1.57142e-26)
(0.996678 -0.0053591 1.1131e-25)
(0.995522 -0.00436799 -1.49832e-25)
(0.994442 -0.00445107 -2.50684e-25)
(0.993788 -0.00352116 -1.23617e-25)
(0.993329 -0.00352936 -1.31923e-25)
(0.993002 -0.00256637 1.21797e-25)
(1.00297 -0.000286736 -3.35247e-34)
(1.00321 -0.000508349 -1.77746e-26)
(1.00368 -0.000676124 2.11064e-26)
(1.00419 -0.000749817 4.20665e-26)
(1.00517 -0.00117768 3.42828e-29)
(1.00601 -0.000974434 0)
(1.00767 -0.0020082 -3.0351e-26)
(1.00902 -0.00111701 -3.83698e-25)
(1.01147 -0.00338031 1.96336e-25)
(1.01223 -0.00110547 0)
(1.01233 -0.00519151 -1.40413e-30)
(0.969609 -0.000996497 7.78974e-26)
(0.966387 -0.00633634 -1.60362e-25)
(1.0079 -0.00215134 0)
(1.00562 -0.00634407 3.76629e-27)
(1.004 -0.0035722 3.69844e-26)
(1.00046 -0.00568849 0)
(0.998506 -0.00412937 3.9438e-26)
(0.996405 -0.00491833 3.63934e-26)
(0.995205 -0.00390499 -4.04886e-25)
(0.994056 -0.00413109 -1.0487e-25)
(0.993404 -0.00324556 1.04475e-25)
(0.992908 -0.00332517 -1.38012e-25)
(0.992611 -0.00246355 0)
(1.00313 -0.000378506 2.10086e-26)
(1.00336 -0.000611942 -1.974e-26)
(1.00385 -0.000807792 0)
(1.00436 -0.000853277 2.7406e-26)
(1.00539 -0.00134826 8.90627e-26)
(1.00624 -0.00105702 2.24836e-26)
(1.00795 -0.00218548 0)
(1.00936 -0.00115643 5.84099e-27)
(1.01179 -0.00345629 1.80083e-25)
(1.01267 -0.00111843 0)
(1.01254 -0.00496979 4.58195e-26)
(0.969981 -0.000982817 2.99794e-26)
(0.966713 -0.00580795 -1.0835e-25)
(1.00818 -0.00182252 1.38284e-26)
(1.00589 -0.00582763 -4.2149e-26)
(1.00405 -0.00302806 -2.28947e-27)
(1.00045 -0.00524136 2.7253e-26)
(0.998377 -0.00359496 -9.8119e-27)
(0.996191 -0.00454399 1.88496e-28)
(0.994949 -0.00349512 -1.43821e-25)
(0.993734 -0.00384417 5.38904e-26)
(0.99308 -0.00298723 5.74483e-26)
(0.992549 -0.00312664 -2.38702e-26)
(0.992274 -0.00234893 -1.36507e-26)
(1.00329 -0.000474948 -3.09616e-27)
(1.00351 -0.000709575 -3.04297e-26)
(1.00403 -0.000930097 -7.92053e-27)
(1.00453 -0.000939873 0)
(1.0056 -0.00149409 4.43641e-25)
(1.00647 -0.00111637 0)
(1.0082 -0.00232146 -2.64407e-25)
(1.00966 -0.00117864 0)
(1.01207 -0.00348828 1.51452e-25)
(1.01303 -0.00112522 9.90899e-26)
(1.01267 -0.00475941 0)
(0.970248 -0.000957957 2.35043e-26)
(0.966939 -0.00538251 0)
(1.00842 -0.00157047 1.09607e-26)
(1.00611 -0.00539728 -1.12726e-26)
(1.00409 -0.00259557 0)
(1.00045 -0.00486831 0)
(0.998273 -0.00314725 -8.22544e-27)
(0.996019 -0.00422629 1.26376e-26)
(0.994738 -0.00313516 0)
(0.993464 -0.00358877 0)
(0.992806 -0.00274728 5.32397e-26)
(0.99224 -0.00293658 1.14431e-26)
(0.991981 -0.00222568 -4.09087e-26)
(1.00346 -0.000575536 3.21428e-27)
(1.00367 -0.000802103 3.00371e-27)
(1.00421 -0.00104466 0)
(1.00471 -0.00101366 -9.77725e-27)
(1.0058 -0.00161993 2.31069e-25)
(1.00668 -0.00116044 1.22584e-26)
(1.00844 -0.00242663 -2.28056e-25)
(1.00994 -0.00119251 2.34537e-27)
(1.01231 -0.0034936 0)
(1.01333 -0.00112907 9.23106e-26)
(1.01274 -0.00456841 0)
(0.970434 -0.000937869 0)
(0.967107 -0.00503606 0)
(1.00863 -0.00137526 4.82984e-26)
(1.0063 -0.00503597 9.14959e-26)
(1.00413 -0.0022525 0)
(1.00045 -0.00455593 -1.64466e-27)
(0.998185 -0.00277438 0)
(0.995878 -0.00395682 0)
(0.994558 -0.00282127 0)
(0.993232 -0.00336263 0)
(0.992568 -0.00252645 -5.41886e-26)
(0.99197 -0.00275669 -4.32388e-26)
(0.991721 -0.00209681 8.37839e-31)
(1.00362 -0.000679686 0)
(1.00383 -0.000890299 1.06306e-26)
(1.00438 -0.00115274 -2.55097e-26)
(1.00488 -0.00107788 2.30065e-26)
(1.00599 -0.00172979 2.19187e-25)
(1.00689 -0.00119512 4.32503e-25)
(1.00865 -0.00250943 0)
(1.01018 -0.0012043 0)
(1.01252 -0.0034851 1.39887e-26)
(1.01358 -0.00113529 1.0873e-26)
(1.01277 -0.00440281 -2.71542e-33)
(0.970561 -0.000924229 5.87011e-27)
(0.967216 -0.00474962 1.37071e-25)
(1.00881 -0.00122458 3.71392e-26)
(1.00646 -0.00473775 3.46159e-27)
(1.00415 -0.00198032 0)
(1.00045 -0.00429514 -6.42689e-26)
(0.998106 -0.00246436 -9.02354e-26)
(0.995757 -0.00372867 0)
(0.9944 -0.00254848 -9.10067e-26)
(0.99303 -0.00316353 -7.62706e-41)
(0.992356 -0.00232386 1.29919e-25)
(0.991729 -0.00258808 8.10293e-26)
(0.991487 -0.00196424 6.5625e-26)
(1.00378 -0.000786638 -2.46219e-26)
(1.00398 -0.000974616 7.65396e-27)
(1.00455 -0.00125514 -1.11907e-26)
(1.00505 -0.00113498 4.46725e-26)
(1.00618 -0.00182674 1.93808e-25)
(1.00708 -0.00122464 8.20338e-25)
(1.00884 -0.00257626 0)
(1.0104 -0.00121734 0)
(1.01271 -0.00347093 1.24092e-26)
(1.01379 -0.00114755 0)
(1.01277 -0.00426327 0)
(0.970647 -0.000920767 0)
(0.967279 -0.00451531 0)
(1.00896 -0.00111263 -2.74741e-26)
(1.00658 -0.004493 -5.83947e-26)
(1.00417 -0.0017663 -5.24877e-26)
(1.00046 -0.00407867 -1.03328e-25)
(0.998032 -0.00220842 -7.61692e-26)
(0.995649 -0.00353642 0)
(0.994257 -0.00231301 -2.18475e-26)
(0.992848 -0.00298943 0)
(0.992164 -0.00213915 0)
(0.99151 -0.00243148 3.75985e-26)
(0.991269 -0.00182996 3.2497e-26)
(1.00393 -0.000895324 -1.82936e-26)
(1.00413 -0.0010551 -1.37841e-26)
(1.0047 -0.00135205 -6.17169e-27)
(1.00521 -0.00118654 6.72066e-27)
(1.00635 -0.001913 -5.37043e-34)
(1.00727 -0.00125195 3.84399e-25)
(1.00902 -0.00263194 0)
(1.01061 -0.00123369 -3.12317e-26)
(1.01287 -0.00345667 2.056e-27)
(1.01397 -0.00116821 -8.76023e-27)
(1.01275 -0.00415013 5.28181e-26)
(0.970698 -0.00093041 -5.31973e-27)
(0.967305 -0.00432756 4.4448e-26)
(1.00909 -0.00103521 0)
(1.00669 -0.00429452 0)
(1.00418 -0.00160111 7.81917e-28)
(1.00045 -0.00390088 4.21335e-26)
(0.99796 -0.00199946 2.98006e-31)
(0.99555 -0.00337597 -3.8083e-26)
(0.994123 -0.00211171 0)
(0.992681 -0.00283859 0)
(0.991983 -0.00197219 1.34201e-26)
(0.991305 -0.00228761 0)
(0.991061 -0.00169596 0)
(1.00406 -0.00100423 0)
(1.00426 -0.00113106 -1.87084e-26)
(1.00485 -0.00144304 -1.56931e-26)
(1.00536 -0.00123313 -2.35869e-26)
(1.00651 -0.00198988 0)
(1.00744 -0.00127857 0)
(1.00919 -0.0026796 0)
(1.0108 -0.00125494 -2.49928e-26)
(1.01302 -0.00344674 0)
(1.01413 -0.00119938 -2.95539e-27)
(1.01272 -0.00406429 1.98043e-26)
(0.970722 -0.000956021 -6.53315e-27)
(0.967302 -0.00418253 3.39618e-26)
(1.0092 -0.000989704 2.19209e-26)
(1.00678 -0.00413718 3.62578e-26)
(1.00418 -0.00147787 0)
(1.00044 -0.00375733 -3.3688e-26)
(0.997885 -0.00183174 -4.12928e-26)
(0.995456 -0.00324416 0)
(0.993993 -0.00194195 0)
(0.992522 -0.00270994 0)
(0.991807 -0.00182321 1.30878e-26)
(0.991108 -0.00215742 0)
(0.990856 -0.00156447 0)
(1.00418 -0.00111114 1.67002e-27)
(1.00439 -0.00120119 -1.18863e-26)
(1.00498 -0.00152678 5.27522e-27)
(1.0055 -0.00127457 0)
(1.00665 -0.00205754 3.52412e-26)
(1.00761 -0.00130371 1.2665e-26)
(1.00934 -0.00272089 0)
(1.01098 -0.0012811 -1.19029e-26)
(1.01316 -0.00344349 -3.14744e-28)
(1.01427 -0.00124242 -1.07959e-26)
(1.01267 -0.00400765 -2.03691e-27)
(0.970723 -0.00100061 -1.11644e-26)
(0.967276 -0.00407817 4.7882e-26)
(1.00929 -0.000974785 4.29416e-28)
(1.00685 -0.00401716 -3.44914e-28)
(1.00416 -0.00139132 2.11565e-26)
(1.00043 -0.00364459 7.9941e-28)
(0.997805 -0.00170061 -3.44725e-27)
(0.995363 -0.00313837 0)
(0.993861 -0.00180168 -2.91598e-26)
(0.992369 -0.00260272 -2.51524e-26)
(0.991632 -0.00169282 0)
(0.990913 -0.00204232 3.45349e-26)
(0.990647 -0.00143815 1.52909e-26)
(1.00427 -0.00121267 0)
(1.0045 -0.00126326 -9.9432e-27)
(1.0051 -0.00160132 -6.99909e-27)
(1.00564 -0.00131044 -2.21985e-27)
(1.00679 -0.00211557 0)
(1.00777 -0.00132696 1.73336e-25)
(1.00948 -0.00275673 -4.79185e-26)
(1.01115 -0.00131112 -2.47937e-26)
(1.0133 -0.00344825 2.17561e-27)
(1.01441 -0.00129806 1.38234e-26)
(1.01262 -0.00398457 2.43769e-27)
(0.970705 -0.00106883 -3.39423e-26)
(0.967232 -0.00401473 1.37916e-26)
(1.00936 -0.000990215 1.11376e-28)
(1.0069 -0.00393132 -1.91272e-26)
(1.00414 -0.00133687 -1.31727e-26)
(1.0004 -0.00355954 1.80762e-27)
(0.997718 -0.00160219 -3.68336e-27)
(0.995271 -0.00305678 0)
(0.993727 -0.00168971 -1.93703e-26)
(0.992219 -0.00251701 -1.98325e-26)
(0.991453 -0.00158251 0)
(0.99072 -0.00194447 1.07198e-26)
(0.99043 -0.00132067 -1.57857e-26)
(1.00435 -0.00130445 -5.52141e-27)
(1.00461 -0.00131466 7.566e-27)
(1.0052 -0.0016642 -1.86549e-26)
(1.00578 -0.00133884 -1.7037e-27)
(1.00692 -0.00216282 2.44854e-26)
(1.00794 -0.0013471 1.90409e-25)
(1.00962 -0.00278687 -1.8416e-26)
(1.01134 -0.00134271 -6.13734e-27)
(1.01343 -0.00346078 3.99903e-27)
(1.01455 -0.00136447 2.9893e-26)
(1.01257 -0.00400051 5.33561e-27)
(0.970664 -0.00116647 2.42492e-26)
(0.967172 -0.00399444 -3.02669e-27)
(1.0094 -0.00103677 0)
(1.00693 -0.00387649 -1.1702e-26)
(1.00409 -0.00130984 -6.36144e-27)
(1.00037 -0.00349905 9.86152e-28)
(0.997614 -0.00153277 0)
(0.99518 -0.00299738 1.92993e-27)
(0.993578 -0.00160477 2.83981e-27)
(0.99207 -0.00245242 -1.45654e-26)
(0.991258 -0.00149386 -2.12272e-26)
(0.990518 -0.001866 7.40334e-27)
(0.990189 -0.00121653 0)
(1.00439 -0.00137622 -2.73299e-27)
(1.0047 -0.0013498 7.06383e-27)
(1.00528 -0.00170935 -5.82144e-27)
(1.00591 -0.00135689 0)
(1.00702 -0.00219567 0)
(1.0081 -0.00136153 -4.19157e-26)
(1.00974 -0.00280833 2.11035e-26)
(1.01151 -0.00137052 1.31278e-26)
(1.01355 -0.0034784 1.03324e-26)
(1.0147 -0.00143825 -2.82766e-27)
(1.01253 -0.00408153 -2.1742e-26)
(0.970609 -0.00131107 0)
(0.967111 -0.00402323 0)
(1.00941 -0.00111471 0)
(1.00695 -0.00384818 0)
(1.00403 -0.00130372 -1.49584e-27)
(1.00035 -0.00346095 0)
(0.99751 -0.0014907 0)
(0.995104 -0.0029598 1.68317e-27)
(0.993436 -0.00154894 0)
(0.991941 -0.0024108 0)
(0.991075 -0.00143249 0)
(0.990338 -0.00181244 6.70227e-27)
(0.989959 -0.00113621 0)
(1.00441 -0.00142834 0)
(1.00484 -0.00137208 -1.3002e-27)
(1.00536 -0.00173993 -3.64576e-27)
(1.00613 -0.00136758 -5.88712e-28)
(1.00712 -0.00221785 5.51821e-27)
(1.00838 -0.0013716 -7.20637e-26)
(1.00987 -0.00282242 3.81551e-27)
(1.01183 -0.00139158 3.90226e-30)
(1.01372 -0.00349518 2.32024e-33)
(1.01503 -0.00149538 -5.42825e-31)
(1.01259 -0.0042092 -3.3611e-26)
(0.970442 -0.00150222 0)
(0.967005 -0.00410836 -2.34783e-26)
(1.0093 -0.00123132 -2.92923e-26)
(1.00695 -0.00383824 -3.95231e-28)
(1.00387 -0.0013101 -1.20924e-27)
(1.00034 -0.0034372 0)
(0.997296 -0.00146689 0)
(0.995026 -0.00293681 0)
(0.993174 -0.00151448 0)
(0.991776 -0.00238523 0)
(0.990756 -0.00139243 0)
(0.990074 -0.00177814 4.67935e-27)
(0.98956 -0.00107853 0)
(1.07457 -0.0957798 1.87327e-26)
(1.12321 0.128132 7.10188e-26)
(1.01513 0.146807 3.00234e-25)
(1.11605 -0.0297651 -3.47543e-26)
(1.17931 0.0332695 -1.13132e-26)
(1.13466 0.118245 -5.81962e-26)
(1.1041 0.0353197 -1.43198e-26)
(1.15854 -0.0665069 -1.57301e-25)
(1.1808 0.0196774 -4.65313e-26)
(1.06047 0.0704789 -9.03875e-26)
(1.09568 -0.109787 2.20599e-25)
(1.15199 -0.0750642 0)
(1.01007 0.0652888 7.44283e-30)
(1.02991 -0.108236 -1.6067e-25)
(1.0869 -0.112079 1.57305e-25)
(0.984438 0.0346131 0)
(0.55327 0.0162251 -9.29814e-26)
(0.514041 -0.0353059 1.55124e-25)
(0.989299 -0.0713688 8.01776e-25)
(1.02281 -0.105197 -2.39912e-25)
(0.981428 -0.101055 1.92854e-25)
(0.909506 0.00301725 4.37492e-26)
(1.00011 0.139159 4.37856e-25)
(0.961222 0.0671844 1.02011e-24)
(1.04417 -0.0480645 -1.28493e-25)
(1.07018 -0.0857581 5.37332e-27)
(1.00147 -0.0965465 -2.48921e-25)
(1.07929 0.241189 0)
(0.950295 0.227177 -2.43162e-25)
(1.11729 0.11684 0)
(1.07826 0.0652075 1.23188e-26)
(1.04193 0.0751559 -1.39799e-24)
(1.06692 -0.0199824 1.2936e-25)
(1.10877 -0.0272832 -3.32356e-26)
(1.0778 -0.0796309 6.29486e-27)
(1.10243 -0.0651332 -5.99176e-27)
(1.13291 -0.0806801 5.5293e-27)
(1.10732 -0.121315 -7.59815e-27)
(1.19753 0.100503 8.00439e-26)
(1.16659 0.171595 3.03736e-26)
(1.16951 0.0317809 5.08185e-27)
(1.1085 0.0227967 -4.0192e-25)
(1.08865 0.0568488 1.48942e-25)
(1.06577 0.0126405 2.74259e-25)
(1.0992 0.0317238 1.25607e-26)
(1.11005 -0.0188993 -2.70921e-28)
(1.11589 0.00551954 2.20526e-30)
(1.14244 0.0166338 -3.3837e-26)
(1.14705 -0.0262984 -6.66014e-28)
(1.2103 -0.0242501 2.17873e-27)
(1.21865 0.0461993 -4.14144e-26)
(1.15269 -0.0540403 -1.78174e-25)
(1.10472 -0.026384 5.81749e-26)