/*--------------------------------*- C++ -*----------------------------------*\
| =========                 |                                                 |
| \\      /  F ield         | OpenFOAM: The Open Source CFD Toolbox           |
|  \\    /   O peration     | Version:  5.x                                   |
|   \\  /    A nd           | Web:      www.OpenFOAM.org                      |
|    \\/     M anipulation  |                                                 |
\*---------------------------------------------------------------------------*/
FoamFile
{
    version     2.0;
    format      ascii;
    class       volScalarField;
    location    "400";
    object      xf;
}
// * * * * * * * * * * * * * * * * * * * * * * * * * * * * * * * * * * * * * //

dimensions      [0 0 0 0 0 0 0];

internalField   nonuniform List<scalar> 
6584
(
0.211947
0.211947
0.211947
0.211947
0.211947
0.211947
0.211947
0.211948
0.211948
0.211948
0.211948
0.211948
0.211948
0.211948
0.211948
0.211948
0.211948
0.211947
0.211947
0.211947
0.211947
0.211947
0.211947
0.211947
0.211716
0.211716
0.211716
0.211716
0.211716
0.211716
0.211717
0.211717
0.211718
0.211718
0.211718
0.211718
0.211718
0.211718
0.211718
0.211718
0.211717
0.211717
0.211717
0.211716
0.211716
0.211716
0.211716
0.211715
0.211484
0.211485
0.211485
0.211485
0.211485
0.211485
0.211486
0.211487
0.211488
0.211603
0.211603
0.211603
0.211603
0.211603
0.211603
0.211488
0.211487
0.211487
0.211486
0.211485
0.211485
0.211485
0.211485
0.211484
0.211253
0.211253
0.211254
0.211254
0.211254
0.211254
0.211255
0.211257
0.211258
0.211372
0.211372
0.211371
0.211371
0.211372
0.211372
0.211373
0.211256
0.211256
0.211255
0.211255
0.211254
0.211254
0.211254
0.211253
0.211022
0.211022
0.211023
0.211023
0.211024
0.211024
0.211024
0.211024
0.211141
0.211141
0.21114
0.211138
0.211138
0.211139
0.211141
0.211141
0.211141
0.211026
0.211025
0.211024
0.211024
0.211023
0.211023
0.211022
0.210791
0.210792
0.210792
0.210792
0.210793
0.210794
0.210794
0.210909
0.210908
0.210907
0.210964
0.210961
0.210961
0.210963
0.210909
0.210911
0.210911
0.210797
0.210795
0.210794
0.210793
0.210793
0.210792
0.210792
0.210561
0.210561
0.210561
0.210562
0.210563
0.210564
0.210565
0.210679
0.210678
0.210676
0.210727
0.210751
0.210747
0.210725
0.210735
0.210682
0.210683
0.21057
0.210566
0.210565
0.210563
0.210562
0.210562
0.210561
0.21033
0.21033
0.210331
0.210332
0.210333
0.210334
0.210337
0.21045
0.210449
0.210449
0.210495
0.210505
0.210513
0.210506
0.210457
0.210456
0.210343
0.210338
0.210336
0.210334
0.210333
0.210331
0.210331
0.2101
0.2101
0.210101
0.210102
0.210103
0.210105
0.210109
0.210222
0.210223
0.210225
0.210271
0.21028
0.210291
0.210286
0.210235
0.210232
0.210117
0.21011
0.210107
0.210105
0.210103
0.210101
0.2101
0.209869
0.20987
0.209871
0.209872
0.209874
0.209877
0.209881
0.209995
0.209997
0.210004
0.210052
0.21007
0.210087
0.210072
0.210016
0.210009
0.209892
0.209883
0.209878
0.209875
0.209873
0.209871
0.20987
0.209639
0.20964
0.209641
0.209643
0.209645
0.209648
0.209654
0.209768
0.209772
0.209782
0.209835
0.20986
0.209885
0.20986
0.209797
0.209786
0.209666
0.209656
0.20965
0.209646
0.209643
0.209641
0.20964
0.209409
0.20941
0.209411
0.209413
0.209416
0.20942
0.209426
0.209541
0.209547
0.209558
0.209615
0.209643
0.209675
0.209644
0.209576
0.209563
0.20944
0.209428
0.209422
0.209417
0.209413
0.209411
0.209409
0.209178
0.209179
0.209181
0.209183
0.209187
0.209191
0.209198
0.209313
0.209321
0.209333
0.20939
0.209416
0.209451
0.209422
0.209353
0.209338
0.209213
0.209201
0.209193
0.209187
0.209183
0.209181
0.209179
0.208948
0.208949
0.208951
0.208954
0.208957
0.208962
0.208969
0.208973
0.209091
0.209102
0.209156
0.209173
0.131187
0.209185
0.209194
0.209127
0.209112
0.208986
0.208972
0.208964
0.208957
0.208953
0.20895
0.208948
0.208718
0.208719
0.208721
0.208724
0.208728
0.208732
0.208739
0.208741
0.208859
0.20887
0.208923
0.208906
0.185733
0.208948
0.208901
0.208898
0.208763
0.208755
0.208741
0.208733
0.208728
0.208723
0.208719
0.208716
0.208487
0.208489
0.208491
0.208494
0.208498
0.208502
0.208508
0.208511
0.208628
0.20864
0.208635
0.208671
0.186571
0.208658
0.20867
0.208668
0.208534
0.208525
0.208511
0.208502
0.208496
0.208491
0.208488
0.208485
0.208257
0.208259
0.208261
0.208264
0.208268
0.208272
0.208278
0.208281
0.208288
0.20841
0.208405
0.208122
0.196894
0.208423
0.208439
0.208437
0.208303
0.208295
0.20828
0.208271
0.208264
0.208259
0.208256
0.208253
0.208026
0.208028
0.20803
0.208034
0.208038
0.208041
0.208048
0.208052
0.208059
0.208062
0.208174
0.207727
0.196797
0.208189
0.208095
0.208084
0.208072
0.208064
0.208049
0.20804
0.208033
0.208027
0.208024
0.20802
0.207796
0.207798
0.2078
0.207804
0.207808
0.207811
0.207818
0.207822
0.207829
0.207832
0.207784
0.19533
0.202193
0.207848
0.207864
0.207853
0.207841
0.207833
0.207818
0.207808
0.207801
0.207795
0.207792
0.207788
0.207565
0.207567
0.20757
0.207573
0.207577
0.207581
0.207589
0.207593
0.2076
0.207603
0.207519
0.195125
0.201972
0.207613
0.207632
0.207622
0.20761
0.207602
0.207586
0.207576
0.207569
0.207563
0.207559
0.207555
0.207335
0.207337
0.207339
0.207343
0.207348
0.207352
0.207359
0.207364
0.207371
0.207373
0.207257
0.194916
0.201747
0.207379
0.207401
0.207391
0.207379
0.20737
0.207355
0.207345
0.207337
0.207331
0.207327
0.207323
0.207104
0.207107
0.207109
0.207113
0.207118
0.207122
0.20713
0.207135
0.207142
0.207144
0.206995
0.194704
0.201519
0.207145
0.20717
0.207161
0.207147
0.207139
0.207123
0.207113
0.207105
0.207099
0.207095
0.20709
0.206874
0.206876
0.206879
0.206883
0.206888
0.206892
0.206901
0.206906
0.206914
0.206914
0.206736
0.194491
0.20129
0.20691
0.206939
0.20693
0.206916
0.206908
0.206892
0.206881
0.206873
0.206866
0.206862
0.206858
0.206643
0.206646
0.206649
0.206653
0.206658
0.206663
0.206672
0.206677
0.206685
0.206684
0.206478
0.194275
0.201059
0.206676
0.206709
0.206699
0.206685
0.206677
0.20666
0.206649
0.20664
0.206634
0.20663
0.206625
0.206413
0.206415
0.206418
0.206423
0.206428
0.206433
0.206443
0.206448
0.206457
0.206455
0.206222
0.194058
0.200826
0.206441
0.206478
0.206469
0.206454
0.206445
0.206428
0.206417
0.206408
0.206401
0.206397
0.206392
0.206183
0.206185
0.206188
0.206193
0.206198
0.206204
0.206214
0.206219
0.206228
0.206226
0.205964
0.193842
0.200594
0.206207
0.206247
0.206238
0.206223
0.206214
0.206197
0.206185
0.206176
0.206169
0.206164
0.206159
0.205952
0.205955
0.205958
0.205963
0.205968
0.205974
0.205985
0.20599
0.206
0.205996
0.205704
0.193626
0.200364
0.205974
0.206017
0.206008
0.205993
0.205983
0.205965
0.205953
0.205944
0.205937
0.205932
0.205927
0.205722
0.205725
0.205728
0.205733
0.205739
0.205745
0.205756
0.205762
0.205771
0.205767
0.205445
0.19341
0.200133
0.205741
0.205787
0.205778
0.205762
0.205752
0.205734
0.205722
0.205712
0.205705
0.2057
0.205695
0.205492
0.205494
0.205498
0.205503
0.205509
0.205515
0.205527
0.205533
0.205543
0.205537
0.205187
0.193193
0.199901
0.205508
0.205557
0.205548
0.205531
0.205521
0.205503
0.20549
0.20548
0.205473
0.205468
0.205463
0.205261
0.205264
0.205268
0.205273
0.205279
0.205286
0.205298
0.205305
0.205315
0.205308
0.20493
0.192975
0.199669
0.205275
0.205327
0.205318
0.205301
0.205291
0.205272
0.205258
0.205248
0.20524
0.205235
0.20523
0.205031
0.205034
0.205038
0.205043
0.20505
0.205057
0.205069
0.205076
0.205087
0.205078
0.204673
0.192757
0.199437
0.205042
0.205097
0.205088
0.20507
0.20506
0.20504
0.205027
0.205016
0.205008
0.205003
0.204998
0.204801
0.204804
0.204808
0.204813
0.20482
0.204828
0.204841
0.204848
0.204859
0.204849
0.204417
0.192538
0.199204
0.204809
0.204866
0.204858
0.20484
0.204829
0.204809
0.204795
0.204784
0.204776
0.204771
0.204766
0.204571
0.204574
0.204578
0.204583
0.20459
0.204599
0.204612
0.204619
0.204631
0.204619
0.204162
0.19232
0.198971
0.204576
0.204636
0.204627
0.204609
0.204598
0.204577
0.204563
0.204552
0.204544
0.204538
0.204533
0.20434
0.204343
0.204348
0.204353
0.204361
0.20437
0.204383
0.204391
0.204402
0.204389
0.203906
0.192101
0.198738
0.204343
0.204406
0.204397
0.204378
0.204367
0.204346
0.204332
0.20432
0.204312
0.204306
0.204301
0.20411
0.204113
0.204118
0.204123
0.204131
0.204141
0.204155
0.204163
0.204174
0.20416
0.20365
0.191882
0.198505
0.20411
0.204176
0.204167
0.204148
0.204136
0.204115
0.2041
0.204088
0.204079
0.204073
0.204068
0.20388
0.203883
0.203888
0.203893
0.203902
0.203912
0.203926
0.203935
0.203946
0.20393
0.203394
0.191663
0.198272
0.203877
0.203946
0.203937
0.203917
0.203905
0.203883
0.203868
0.203856
0.203847
0.203841
0.203836
0.210307
0.210314
0.210507
0.210096
0.210111
0.210288
0.209886
0.20991
0.210086
0.209671
0.209702
0.209885
0.209445
0.209481
0.209675
0.209203
0.11464
0.128933
0.209245
0.209452
0.210535
0.210747
0.210537
0.210751
0.210326
0.210311
0.210511
0.210392
0.2105
0.210317
0.210336
0.210502
0.210106
0.210097
0.210284
0.210201
0.210124
0.210263
0.210007
0.210249
0.210112
0.210124
0.210282
0.209889
0.209887
0.210071
0.209991
0.209733
0.209859
0.207889
0.209018
0.20991
0.209913
0.210071
0.20967
0.20967
0.20986
0.20978
0.209599
0.20965
0.20887
0.208159
0.209702
0.209701
0.209861
0.208967
0.209209
0.20948
0.209481
0.209646
0.208773
0.208883
0.208965
0.137763
0.115041
0.168249
0.208995
0.209214
0.21028
0.210384
0.21039
0.21038
0.210252
0.210501
0.210394
0.21026
0.210385
0.210394
0.210383
0.210278
0.209885
0.210097
0.210174
0.20993
0.209295
0.210224
0.209963
0.209088
0.209993
0.210186
0.210081
0.209783
0.210269
0.210092
0.210212
0.209657
0.209722
0.209965
0.209008
0.209157
0.209263
0.209005
0.208148
0.207815
0.209986
0.209586
0.209544
0.209772
0.209598
0.210011
0.208934
0.209093
0.209171
0.208905
0.209205
0.208926
0.209781
0.209538
0.209561
0.209535
0.209534
0.209807
0.209186
0.209186
0.209109
0.209181
0.208896
0.208963
0.209551
0.209465
0.209593
0.209127
0.208842
0.209182
0.209136
0.208523
0.208755
0.210418
0.210399
0.210507
0.21042
0.210489
0.209446
0.209445
0.209643
0.209559
0.209464
0.20953
0.204946
0.203591
0.209246
0.209255
0.209425
0.210494
0.210426
0.210506
0.210397
0.210421
0.209539
0.209592
0.209753
0.142813
0.15282
0.185445
0.191065
0.153304
0.165361
0.203335
0.201041
0.209565
0.209451
0.209343
0.191742
0.195167
0.209326
0.209201
0.209365
0.21063
0.210618
0.210518
0.210517
0.210618
0.21063
0.210412
0.210437
0.210416
0.210494
0.210424
0.210452
0.210106
0.210149
0.208513
0.208575
0.208659
0.208549
0.20897
0.201167
0.209213
0.206017
0.205102
0.205317
0.206155
0.208838
0.209589
0.210335
0.208096
0.210094
0.207668
0.210318
0.210158
0.210421
0.210439
0.210404
0.209803
0.210322
0.210331
0.209587
0.209547
0.210139
0.210121
0.209479
0.209531
0.209854
0.210141
0.21018
0.210091
0.210129
0.209846
0.210193
0.210246
0.210286
0.210193
0.210233
0.210174
0.209077
0.209084
0.209084
0.209065
0.206972
0.207089
0.209483
0.209942
0.209979
0.209892
0.209929
0.20947
0.209698
0.21004
0.210078
0.209991
0.210028
0.209687
0.144076
0.209012
0.15688
0.14586
0.169824
0.157515
0.209034
0.208782
0.147212
0.208811
0.209139
0.209117
0.209529
0.209842
0.20988
0.209792
0.20983
0.209539
0.177248
0.184232
0.209149
0.180387
0.170665
0.188514
0.181454
0.209159
0.166512
0.176186
0.20893
0.203723
0.205156
0.201434
0.203444
0.208939
0.200492
0.194449
0.195633
0.130341
0.19556
0.193966
0.153715
0.205949
0.2061
0.210474
0.209217
0.209207
0.209416
0.209329
0.209283
0.209367
0.164742
0.207907
0.20819
0.210475
0.209373
0.209453
0.209531
0.140103
0.142033
0.102064
0.193528
0.193053
0.144211
0.14789
0.205215
0.205901
0.0965379
0.210555
0.21056
0.210503
0.210499
0.210559
0.210555
0.21019
0.210231
0.210191
0.210032
0.210059
0.210205
0.209776
0.210018
0.209979
0.210071
0.210031
0.209794
0.208179
0.208839
0.208763
0.208161
0.195245
0.193195
0.208822
0.206244
0.20685
0.208394
0.208294
0.13572
0.210454
0.210433
0.210499
0.210286
0.210172
0.210091
0.21034
0.210354
0.210397
0.210299
0.21034
0.210326
0.209972
0.210124
0.210084
0.210177
0.210137
0.210002
0.20978
0.204245
0.207675
0.201443
0.20212
0.209397
0.208013
0.208387
0.210038
0.209256
0.2097
0.209958
0.210145
0.210159
0.210055
0.210077
0.209811
0.209966
0.209927
0.209691
0.209045
0.199205
0.197172
0.209176
0.200452
0.201247
0.196842
0.197386
0.209012
0.207676
0.207436
0.20954
0.209927
0.209945
0.209846
0.209878
0.209519
0.209742
0.210027
0.210048
0.209951
0.209969
0.209638
0.209179
0.20571
0.206279
0.20523
0.204766
0.209024
0.209598
0.20974
0.209779
0.209687
0.209727
0.20959
0.209193
0.193971
0.189301
0.199301
0.197871
0.209192
0.159367
0.161269
0.209167
0.200851
0.199739
0.157062
0.158826
0.197779
0.195774
0.210447
0.210474
0.210458
0.19342
0.204441
0.194848
0.195813
0.195554
0.204268
0.210464
0.210452
0.210482
0.210439
0.210454
0.143898
0.14728
0.141869
0.140512
0.188152
0.149354
0.147788
0.153553
0.149802
0.188868
0.15629
0.158676
0.202461
0.202069
0.193454
0.159568
0.155648
0.148179
0.150009
0.210385
0.210406
0.210432
0.210371
0.210397
0.210374
0.210042
0.210195
0.208247
0.208776
0.208756
0.208194
0.201695
0.206288
0.20589
0.206705
0.206416
0.201593
0.204994
0.204678
0.205775
0.205204
0.205698
0.198835
0.200052
0.196656
0.198229
0.205562
0.192065
0.192892
0.209064
0.210274
0.210184
0.210364
0.2103
0.209317
0.209715
0.209549
0.210123
0.209785
0.210353
0.210407
0.210376
0.210331
0.210273
0.210276
0.210193
0.210295
0.210228
0.210325
0.210361
0.210248
0.210312
0.210355
0.210329
0.210287
0.203037
0.20371
0.209724
0.198148
0.195319
0.204881
0.198703
0.191057
0.1882
0.194433
0.192293
0.209434
0.202357
0.202861
0.207715
0.207071
0.209468
0.208248
0.206322
0.205617
0.206955
0.206501
0.21006
0.208474
0.208717
0.209313
0.209669
0.210113
0.210137
0.209908
0.20982
0.210084
0.210106
0.199648
0.199541
0.209055
0.182503
0.182455
0.171007
0.18113
0.181344
0.184726
0.182166
0.18142
0.199277
0.200187
0.20915
0.183413
0.180195
0.187518
0.184372
0.173841
0.170531
0.178915
0.175462
0.209025
0.197842
0.198915
0.207326
0.207339
0.209905
0.209921
0.209525
0.209493
0.209883
0.209899
0.210001
0.210021
0.209731
0.20965
0.209975
0.209994
0.146593
0.150746
0.198926
0.200471
0.196912
0.198374
0.146876
0.164951
0.202499
0.199505
0.200884
0.202114
0.162319
0.190208
0.191022
0.186747
0.189896
0.151458
0.194943
0.196516
0.1915
0.194085
0.151712
0.205314
0.205588
0.209171
0.203686
0.204399
0.204524
0.203646
0.204446
0.209039
0.204547
0.20502
0.18
0.138859
0.140053
0.146447
0.13952
0.181011
0.142096
0.16993
0.140567
0.171564
0.20247
0.207043
0.206797
0.207339
0.207125
0.202636
0.199635
0.199971
0.162211
0.164333
0.151586
0.156252
0.199109
0.198238
0.210543
0.210558
0.210731
0.209335
0.209227
0.209076
0.210522
0.210525
0.210489
0.210482
0.210523
0.210521
0.210628
0.210623
0.210522
0.210286
0.210245
0.21021
0.210015
0.209749
0.209705
0.207969
0.208958
0.209862
0.209823
0.209627
0.206786
0.206578
0.208156
0.206392
0.20664
0.209211
0.210327
0.210341
0.210299
0.209951
0.210066
0.210276
0.210369
0.21034
0.210363
0.210204
0.209455
0.209901
0.209144
0.209659
0.209611
0.209963
0.209939
0.209946
0.209792
0.210175
0.210189
0.210118
0.209682
0.209914
0.209875
0.200412
0.199593
0.209119
0.208103
0.207108
0.206984
0.207739
0.209573
0.209813
0.20982
0.209762
0.209923
0.209931
0.209826
0.209832
0.20961
0.208726
0.201743
0.200855
0.209503
0.209823
0.209835
0.209518
0.209632
0.209673
0.136424
0.136208
0.202008
0.20118
0.20916
0.136942
0.136667
0.206897
0.20699
0.208693
0.210427
0.210426
0.141957
0.141241
0.142444
0.152068
0.153833
0.138916
0.140024
0.149263
0.147648
0.163727
0.199196
0.198801
0.201381
0.162639
0.160215
0.193918
0.210567
0.210563
0.210504
0.210398
0.210403
0.21041
0.21042
0.210345
0.210357
0.210441
0.210467
0.210453
0.209965
0.209941
0.210074
0.210171
0.21011
0.210071
0.208395
0.208637
0.207025
0.207139
0.208722
0.20841
0.206412
0.206738
0.202129
0.202179
0.20358
0.203389
0.201171
0.202327
0.202491
0.209212
0.206755
0.207074
0.209395
0.208568
0.209684
0.209546
0.210262
0.2102
0.209963
0.206269
0.205768
0.209203
0.208248
0.20691
0.210431
0.210415
0.210379
0.210382
0.210321
0.210357
0.209972
0.210302
0.21033
0.208797
0.209205
0.21019
0.205096
0.204487
0.209428
0.209581
0.210234
0.210248
0.210227
0.210128
0.210204
0.210219
0.209109
0.199535
0.199595
0.206945
0.207173
0.20988
0.209887
0.209709
0.209674
0.209865
0.209872
0.14539
0.156047
0.174348
0.175339
0.16334
0.164125
0.144675
0.202324
0.201897
0.208754
0.151964
0.150382
0.160876
0.160838
0.148705
0.162537
0.16291
0.149353
0.149816
0.209802
0.209813
0.209499
0.209538
0.20978
0.209791
0.175613
0.201173
0.2017
0.200062
0.200614
0.173936
0.204371
0.207122
0.207395
0.207263
0.207197
0.204594
0.201861
0.204115
0.203838
0.199904
0.199346
0.20059
0.138177
0.140617
0.140879
0.138276
0.196613
0.167734
0.163932
0.170874
0.16864
0.193441
0.189775
0.190199
0.200378
0.201423
0.206301
0.210468
0.210476
0.210459
0.139944
0.140472
0.1605
0.159144
0.101445
0.146359
0.141991
0.142192
0.140386
0.141288
0.147403
0.0965062
0.19751
0.198982
0.210531
0.210526
0.210487
0.209833
0.209792
0.210023
0.209991
0.210094
0.210172
0.210048
0.210074
0.208085
0.208898
0.20525
0.20548
0.205432
0.205218
0.208154
0.206407
0.206273
0.194801
0.191184
0.191032
0.191903
0.191723
0.194226
0.210148
0.210224
0.210234
0.210201
0.210215
0.210122
0.2092
0.209888
0.209557
0.209434
0.209801
0.209954
0.209962
0.207197
0.207203
0.207976
0.207563
0.209801
0.209807
0.209556
0.209909
0.209916
0.209752
0.209625
0.209839
0.209845
0.205187
0.206081
0.205776
0.206272
0.206211
0.205057
0.13608
0.13623
0.137733
0.137256
0.1577
0.145744
0.145331
0.191403
0.191473
0.197165
0.1927
0.193561
0.191193
0.191808
0.196451
0.210443
0.210436
0.210438
0.210443
0.210466
0.210469
0.210479
0.210451
0.210458
0.210458
0.194556
0.199722
0.199424
0.200584
0.200134
0.194891
0.196885
0.198325
0.197722
0.199191
0.198885
0.196319
0.21046
0.210465
0.210455
0.210407
0.210379
0.210442
0.210432
0.141937
0.150512
0.143393
0.14355
0.141448
0.140979
0.160192
0.161219
0.148508
0.13875
0.138217
0.154707
0.141545
0.140857
0.141513
0.161387
0.144422
0.14105
0.199456
0.200019
0.202808
0.197857
0.198033
0.197435
0.197542
0.201695
0.198636
0.198871
0.148483
0.138533
0.139434
0.137904
0.137883
0.149009
0.210394
0.210402
0.210395
0.210354
0.210366
0.210384
0.209819
0.210054
0.209909
0.209873
0.209983
0.210017
0.209909
0.209948
0.208316
0.208702
0.205927
0.206057
0.205626
0.205778
0.208747
0.207178
0.207193
0.206188
0.206222
0.208281
0.206098
0.20267
0.202279
0.201369
0.203235
0.203033
0.204853
0.202729
0.202678
0.203364
0.202997
0.204764
0.205634
0.203691
0.203891
0.202915
0.20332
0.205435
0.20255
0.197173
0.2013
0.200983
0.191744
0.192135
0.208955
0.20981
0.209748
0.208816
0.209538
0.210046
0.209906
0.207079
0.206648
0.208676
0.208777
0.209608
0.20802
0.207552
0.210153
0.210233
0.210357
0.210291
0.210047
0.209749
0.210036
0.210259
0.210286
0.210299
0.210246
0.210264
0.210208
0.210146
0.210205
0.210336
0.210314
0.210299
0.21035
0.210325
0.210348
0.210265
0.210281
0.210245
0.21028
0.197444
0.19632
0.203158
0.195402
0.196392
0.193504
0.199215
0.189973
0.18902
0.193662
0.193009
0.20739
0.204464
0.205156
0.203112
0.203761
0.207203
0.20932
0.208189
0.208513
0.205551
0.207423
0.208978
0.203928
0.202894
0.206138
0.198684
0.199389
0.197475
0.198074
0.205932
0.206838
0.202043
0.202544
0.200184
0.20107
0.206677
0.209376
0.209629
0.182872
0.171026
0.17285
0.167192
0.169015
0.182728
0.173667
0.173782
0.17385
0.17765
0.181787
0.15749
0.159109
0.160546
0.157747
0.182909
0.181899
0.164028
0.165529
0.161081
0.16268
0.181657
0.182626
0.181674
0.186794
0.185494
0.172414
0.171167
0.17782
0.176907
0.207061
0.207255
0.20972
0.209894
0.209901
0.209852
0.209859
0.209661
0.146436
0.170642
0.172864
0.154351
0.144626
0.165648
0.168001
0.155533
0.153684
0.19045
0.170711
0.170815
0.188381
0.168625
0.164787
0.170778
0.170241
0.189369
0.159671
0.157528
0.160121
0.161814
0.15023
0.152188
0.156335
0.205447
0.207084
0.206984
0.207208
0.207148
0.205517
0.203917
0.204238
0.204206
0.203567
0.203518
0.203855
0.204504
0.206445
0.206333
0.206821
0.206623
0.204695
0.139044
0.149833
0.150686
0.1487
0.149249
0.139515
0.143902
0.156601
0.158701
0.152117
0.154217
0.141379
0.141795
0.138628
0.139066
0.139927
0.139139
0.141174
0.146512
0.147928
0.140944
0.14375
0.141183
0.20453
0.204353
0.202255
0.199576
0.200353
0.137111
0.138815
0.153428
0.141353
0.13911
0.144726
0.143584
0.155079
0.138479
0.138237
0.190492
0.190735
0.211023
0.211022
0.211139
0.211021
0.21102
0.211138
0.21102
0.21102
0.211139
0.211022
0.211024
0.21114
0.210791
0.210789
0.210906
0.210786
0.210784
0.210963
0.210781
0.210778
0.21096
0.210778
0.210782
0.210961
0.210785
0.210789
0.210965
0.210793
0.210795
0.210909
0.210562
0.210557
0.21073
0.210552
0.210541
0.210723
0.210657
0.210655
0.21075
0.210648
0.210651
0.210746
0.210664
0.210668
0.210726
0.210563
0.210569
0.210681
0.210337
0.21033
0.210499
0.210438
0.210437
0.210493
0.210475
0.210473
0.210502
0.210426
0.210439
0.210524
0.21034
0.210348
0.210458
0.210114
0.210109
0.210274
0.210216
0.210216
0.21027
0.210254
0.210253
0.21028
0.210213
0.210223
0.210302
0.210125
0.21013
0.210239
0.209893
0.20989
0.210054
0.209998
0.21
0.210054
0.210044
0.210044
0.21007
0.210011
0.210016
0.210093
0.209913
0.209914
0.210022
0.20967
0.20967
0.209836
0.20978
0.209784
0.209838
0.209833
0.209834
0.20986
0.209807
0.209807
0.209885
0.209698
0.209696
0.209806
0.209446
0.209446
0.209614
0.209615
0.209616
0.209644
0.209593
0.209589
0.209671
0.209478
0.209476
0.209586
0.209219
0.209217
0.209389
0.209364
0.209368
0.209425
0.209252
0.209251
0.209364
0.208985
0.208979
0.209095
0.208981
0.208971
0.209147
0.209084
0.209005
0.209098
0.138148
0.203866
0.204345
0.209008
0.209024
0.209198
0.209018
0.209024
0.209138
0.208755
0.208749
0.208864
0.208751
0.208738
0.208913
0.208729
0.161526
0.160898
0.18641
0.208754
0.208935
0.20877
0.20879
0.208963
0.208785
0.208792
0.208908
0.20852
0.208512
0.208629
0.20833
0.183175
0.161682
0.196929
0.208396
0.208693
0.20854
0.208557
0.208673
0.210307
0.210334
0.210334
0.21034
0.21035
0.210307
0.210505
0.210476
0.210478
0.210096
0.210122
0.210122
0.210136
0.210135
0.210097
0.210293
0.210252
0.210263
0.209887
0.209913
0.209913
0.209935
0.209935
0.209898
0.210085
0.210047
0.210061
0.209671
0.209699
0.209698
0.209728
0.209731
0.209693
0.209885
0.209847
0.209859
0.209509
0.209503
0.209475
0.209667
0.20964
0.209648
0.209129
0.209255
0.209299
0.101354
0.15245
0.152406
0.182622
0.182815
0.0966929
0.209447
0.209418
0.209423
0.210523
0.210622
0.210626
0.210493
0.210493
0.210484
0.210747
0.210651
0.210647
0.210491
0.210493
0.210567
0.210565
0.210534
0.21075
0.210655
0.210658
0.210325
0.21038
0.210382
0.210394
0.210379
0.210324
0.210491
0.210434
0.210423
0.210407
0.210404
0.210378
0.210497
0.21048
0.210484
0.210329
0.210411
0.210398
0.210391
0.210391
0.210337
0.2105
0.210445
0.210446
0.210107
0.210161
0.210161
0.210176
0.210162
0.210109
0.210269
0.210215
0.210203
0.2102
0.210227
0.210227
0.210148
0.210185
0.210169
0.210275
0.21026
0.210246
0.210222
0.21019
0.210234
0.210119
0.210197
0.210188
0.210176
0.210179
0.210127
0.210284
0.210231
0.210229
0.209892
0.209946
0.209944
0.209966
0.209949
0.209895
0.210055
0.210002
0.209992
0.209992
0.210018
0.210017
0.209746
0.20993
0.209917
0.210015
0.209999
0.209835
0.209912
0.20999
0.209986
0.209966
0.209971
0.209919
0.210075
0.210023
0.210019
0.209674
0.209729
0.209725
0.209753
0.209733
0.209678
0.209841
0.209787
0.20978
0.20978
0.209807
0.209806
0.20962
0.20981
0.20977
0.209808
0.209796
0.209642
0.208818
0.207335
0.207492
0.209699
0.209779
0.209781
0.209754
0.209761
0.209707
0.209867
0.209814
0.209808
0.20897
0.20745
0.207615
0.208595
0.208617
0.209211
0.209481
0.209536
0.209565
0.209537
0.209543
0.209487
0.209653
0.209598
0.209592
0.20879
0.208146
0.208139
0.20816
0.208162
0.208868
0.208915
0.208974
0.209024
0.13625
0.208256
0.20812
0.193119
0.193074
0.116521
0.207805
0.207879
0.165752
0.209055
0.208732
0.20878
0.209018
0.208767
0.209122
0.210296
0.210304
0.210289
0.210398
0.210355
0.210341
0.210362
0.210361
0.210389
0.210366
0.210343
0.21038
0.210486
0.210483
0.210499
0.21039
0.210406
0.210409
0.210269
0.21025
0.210239
0.210384
0.210375
0.210378
0.210392
0.210364
0.210366
0.210369
0.210373
0.210387
0.210289
0.210303
0.210296
0.209913
0.210048
0.210032
0.210152
0.210135
0.210066
0.210148
0.210148
0.210174
0.209888
0.209511
0.209618
0.208259
0.208315
0.209327
0.209689
0.209742
0.20999
0.210187
0.210148
0.210161
0.210064
0.210116
0.210128
0.210237
0.210262
0.210276
0.210137
0.210146
0.210101
0.210237
0.210239
0.2102
0.209664
0.209831
0.209819
0.209904
0.209892
0.209711
0.209939
0.209939
0.209966
0.209021
0.207747
0.20771
0.20812
0.208078
0.209143
0.209233
0.208153
0.208205
0.207689
0.207682
0.209001
0.209985
0.209948
0.209961
0.209765
0.209767
0.209546
0.210036
0.210035
0.209997
0.208962
0.204964
0.204394
0.207307
0.20719
0.209075
0.209184
0.208205
0.208163
0.204218
0.203594
0.208876
0.209197
0.208527
0.208566
0.207668
0.207811
0.208973
0.209783
0.209744
0.209755
0.209541
0.209736
0.209747
0.209664
0.209676
0.20957
0.209524
0.209756
0.209761
0.209758
0.209769
0.209532
0.209833
0.209835
0.209796
0.20919
0.208164
0.208104
0.208424
0.208391
0.209189
0.209124
0.207521
0.207415
0.208039
0.207967
0.209175
0.208908
0.208148
0.208155
0.207664
0.207787
0.208956
0.209539
0.209638
0.209651
0.209577
0.209618
0.209504
0.20962
0.209613
0.209586
0.209092
0.202768
0.202237
0.200935
0.202297
0.209059
0.209178
0.208479
0.208454
0.20866
0.206989
0.206951
0.210416
0.210445
0.210446
0.210444
0.210456
0.210412
0.2105
0.21047
0.210459
0.210485
0.210474
0.210478
0.20953
0.20951
0.209454
0.209622
0.209566
0.209559
0.20956
0.209588
0.209587
0.209494
0.209576
0.209549
0.209631
0.209604
0.209504
0.20478
0.202883
0.203156
0.201115
0.20153
0.203844
0.209253
0.209311
0.209335
0.210484
0.210481
0.210491
0.210413
0.210428
0.210436
0.210457
0.21047
0.210516
0.210411
0.210455
0.210441
0.21045
0.210448
0.21042
0.209563
0.209703
0.209658
0.209756
0.209717
0.20957
0.209725
0.209726
0.209753
0.186472
0.174351
0.173286
0.179924
0.178833
0.190321
0.203084
0.200378
0.200714
0.209559
0.209531
0.209537
0.209406
0.209522
0.209563
0.209463
0.209507
0.209391
0.192387
0.18205
0.181018
0.186457
0.185776
0.194762
0.209274
0.209406
0.209435
0.209348
0.209378
0.209256
0.209394
0.209389
0.20936
0.210632
0.210579
0.210575
0.210585
0.210582
0.210634
0.210509
0.210564
0.210568
0.210533
0.210531
0.210514
0.210634
0.210581
0.210585
0.210575
0.210578
0.210631
0.210439
0.210412
0.210422
0.210463
0.210476
0.210493
0.210429
0.210438
0.210433
0.210468
0.210464
0.210448
0.207149
0.207379
0.208971
0.209214
0.208714
0.208729
0.205925
0.2046
0.204752
0.203409
0.20363
0.205242
0.205737
0.20737
0.20732
0.207448
0.207412
0.205851
0.208854
0.208162
0.20816
0.210275
0.210328
0.210351
0.210298
0.210108
0.210247
0.210214
0.210327
0.210297
0.210429
0.210419
0.210408
0.210424
0.210421
0.210435
0.210313
0.210303
0.210314
0.210339
0.210331
0.210322
0.208762
0.208839
0.209629
0.209509
0.208627
0.208692
0.210008
0.210044
0.210157
0.210101
0.209937
0.209972
0.210004
0.210014
0.209865
0.210154
0.210146
0.210133
0.210173
0.21016
0.210167
0.210103
0.210094
0.210081
0.21012
0.210107
0.210116
0.209838
0.209987
0.209995
0.210216
0.210226
0.210207
0.210259
0.210254
0.210241
0.210281
0.210267
0.210272
0.210206
0.2102
0.210187
0.210227
0.210214
0.210219
0.210155
0.210193
0.210205
0.207916
0.207901
0.20907
0.209092
0.207949
0.207932
0.207871
0.207914
0.209104
0.20905
0.207795
0.207831
0.209778
0.209783
0.209497
0.209954
0.209943
0.209931
0.209968
0.209955
0.209966
0.209905
0.209895
0.209882
0.209919
0.209907
0.209917
0.209464
0.209769
0.209772
0.210053
0.210042
0.21003
0.210068
0.210055
0.210065
0.210003
0.209992
0.20998
0.210017
0.210005
0.210016
0.206782
0.205161
0.208989
0.168758
0.184166
0.185296
0.176174
0.177099
0.158409
0.209055
0.207056
0.206919
0.208844
0.20332
0.202512
0.208284
0.208337
0.209156
0.209088
0.208123
0.208209
0.209737
0.209738
0.209516
0.209855
0.209846
0.209833
0.20987
0.209858
0.209867
0.209804
0.209796
0.209784
0.209821
0.209809
0.209817
0.209545
0.209733
0.209735
0.17818
0.163948
0.163045
0.171988
0.170442
0.183199
0.20772
0.207623
0.209137
0.179057
0.192213
0.193041
0.186208
0.187146
0.171529
0.185478
0.20301
0.203394
0.202164
0.202595
0.184387
0.209168
0.207889
0.207807
0.167503
0.150817
0.150126
0.161936
0.160362
0.174881
0.208126
0.208138
0.208919
0.203943
0.205521
0.205372
0.206389
0.206284
0.204987
0.2052
0.205015
0.203131
0.208947
0.208089
0.208109
0.194904
0.173681
0.171555
0.176206
0.174496
0.195331
0.195936
0.187824
0.187147
0.205883
0.201704
0.202306
0.204894
0.205029
0.206175
0.20927
0.209281
0.20922
0.209396
0.209339
0.209329
0.209312
0.209349
0.20932
0.209407
0.209378
0.209339
0.20108
0.200953
0.163537
0.207944
0.206642
0.206625
0.20672
0.206683
0.208015
0.209409
0.209464
0.209436
0.209521
0.209493
0.20942
0.209503
0.209503
0.209531
0.132775
0.128084
0.10169
0.193114
0.17641
0.172437
0.176667
0.176476
0.193021
0.20569
0.199052
0.197997
0.202128
0.203133
0.205894
0.0964176
0.154292
0.167518
0.210557
0.210536
0.210534
0.210541
0.21054
0.21056
0.210495
0.21053
0.210522
0.21051
0.210508
0.210497
0.210559
0.210538
0.21054
0.210533
0.210534
0.210556
0.210216
0.2102
0.21017
0.210218
0.210212
0.210226
0.210184
0.210198
0.210204
0.210218
0.210166
0.210149
0.209956
0.209943
0.209761
0.210005
0.209991
0.210004
0.209965
0.209978
0.209992
0.210057
0.210044
0.210057
0.210017
0.21003
0.210044
0.209813
0.209984
0.20997
0.207207
0.207242
0.20878
0.208157
0.208152
0.208806
0.206734
0.207504
0.207479
0.207542
0.207525
0.206796
0.208364
0.20337
0.200985
0.203255
0.203333
0.20833
0.135159
0.184396
0.183904
0.210451
0.210467
0.21047
0.21046
0.210463
0.210447
0.210496
0.210479
0.21047
0.210268
0.210259
0.210278
0.210344
0.210358
0.210355
0.210368
0.210363
0.210349
0.210392
0.210378
0.210382
0.210313
0.210308
0.210294
0.210335
0.210322
0.210326
0.210311
0.210317
0.210331
0.210083
0.210065
0.209942
0.21011
0.210099
0.210113
0.210071
0.210085
0.210097
0.210164
0.210156
0.21017
0.210127
0.210142
0.21015
0.210033
0.210117
0.2101
0.209187
0.209357
0.209837
0.205302
0.208161
0.207668
0.208961
0.208666
0.206871
0.201653
0.206138
0.206042
0.206344
0.206238
0.201881