/*--------------------------------*- C++ -*----------------------------------*\
| =========                 |                                                 |
| \\      /  F ield         | OpenFOAM: The Open Source CFD Toolbox           |
|  \\    /   O peration     | Version:  5.x                                   |
|   \\  /    A nd           | Web:      www.OpenFOAM.org                      |
|    \\/     M anipulation  |                                                 |
\*---------------------------------------------------------------------------*/
FoamFile
{
    version     2.0;
    format      ascii;
    class       volScalarField;
    location    "400";
    object      Y;
}
// * * * * * * * * * * * * * * * * * * * * * * * * * * * * * * * * * * * * * //

dimensions      [0 0 0 0 0 0 0];

internalField   nonuniform List<scalar> 
6584
(
0.00632781
0.00632781
0.00632781
0.00632781
0.00632781
0.00632781
0.00632781
0.00632782
0.00632782
0.00632782
0.00632782
0.00632782
0.00632782
0.00632782
0.00632782
0.00632782
0.00632782
0.00632781
0.00632781
0.00632781
0.00632781
0.00632781
0.00632781
0.00632781
0.00632561
0.00632561
0.00632561
0.00632562
0.00632562
0.00632562
0.00632562
0.00632563
0.00632563
0.00632563
0.00632563
0.00632563
0.00632564
0.00632564
0.00632563
0.00632563
0.00632563
0.00632563
0.00632562
0.00632562
0.00632562
0.00632561
0.00632561
0.00632561
0.00632341
0.00632342
0.00632342
0.00632342
0.00632342
0.00632342
0.00632343
0.00632344
0.00632345
0.00632454
0.00632454
0.00632454
0.00632454
0.00632454
0.00632454
0.00632345
0.00632344
0.00632344
0.00632343
0.00632343
0.00632342
0.00632342
0.00632342
0.00632341
0.00632122
0.00632122
0.00632122
0.00632123
0.00632123
0.00632123
0.00632124
0.00632125
0.00632126
0.00632235
0.00632235
0.00632234
0.00632234
0.00632235
0.00632235
0.00632235
0.00632125
0.00632124
0.00632124
0.00632123
0.00632123
0.00632123
0.00632122
0.00632122
0.00631902
0.00631903
0.00631903
0.00631903
0.00631904
0.00631904
0.00631904
0.00631904
0.00632015
0.00632015
0.00632014
0.00632013
0.00632013
0.00632014
0.00632015
0.00632016
0.00632015
0.00631906
0.00631905
0.00631904
0.00631904
0.00631903
0.00631903
0.00631903
0.00631683
0.00631683
0.00631683
0.00631684
0.00631684
0.00631685
0.00631685
0.00631794
0.00631794
0.00631793
0.00631847
0.00631845
0.00631844
0.00631847
0.00631795
0.00631797
0.00631797
0.00631689
0.00631687
0.00631686
0.00631685
0.00631684
0.00631684
0.00631683
0.00631464
0.00631464
0.00631464
0.00631465
0.00631465
0.00631466
0.00631468
0.00631576
0.00631575
0.00631573
0.00631622
0.00631645
0.00631641
0.00631621
0.00631631
0.0063158
0.0063158
0.00631472
0.00631469
0.00631468
0.00631466
0.00631465
0.00631465
0.00631464
0.00631245
0.00631245
0.00631245
0.00631246
0.00631247
0.00631248
0.0063125
0.00631358
0.00631357
0.00631357
0.00631401
0.00631411
0.00631421
0.00631414
0.00631366
0.00631365
0.00631257
0.00631252
0.0063125
0.00631248
0.00631247
0.00631246
0.00631245
0.00631025
0.00631026
0.00631027
0.00631027
0.00631029
0.0063103
0.00631034
0.00631141
0.00631142
0.00631144
0.00631188
0.00631197
0.00631212
0.00631205
0.00631156
0.00631152
0.00631042
0.00631036
0.00631032
0.0063103
0.00631028
0.00631027
0.00631026
0.00630806
0.00630807
0.00630808
0.00630809
0.00630811
0.00630813
0.00630817
0.00630925
0.00630927
0.00630933
0.0063098
0.00630997
0.0063102
0.00631003
0.00630948
0.0063094
0.00630828
0.00630819
0.00630815
0.00630812
0.0063081
0.00630808
0.00630807
0.00630587
0.00630588
0.00630589
0.0063059
0.00630592
0.00630595
0.006306
0.00630709
0.00630713
0.00630722
0.00630773
0.00630799
0.0063083
0.00630802
0.0063074
0.00630729
0.00630613
0.00630603
0.00630598
0.00630594
0.00630591
0.00630589
0.00630588
0.00630368
0.00630369
0.0063037
0.00630372
0.00630375
0.00630378
0.00630384
0.00630493
0.00630499
0.0063051
0.00630564
0.00630595
0.00630633
0.00630597
0.0063053
0.00630516
0.00630398
0.00630387
0.0063038
0.00630376
0.00630372
0.0063037
0.00630368
0.00630149
0.0063015
0.00630152
0.00630154
0.00630156
0.0063016
0.00630166
0.00630276
0.00630283
0.00630295
0.00630351
0.0063038
0.00630423
0.00630387
0.00630318
0.00630302
0.00630182
0.0063017
0.00630163
0.00630157
0.00630153
0.00630151
0.00630149
0.0062993
0.00629931
0.00629933
0.00629935
0.00629938
0.00629942
0.00629949
0.00629953
0.00630065
0.00630075
0.00630129
0.00630151
0.00502406
0.00630171
0.00630171
0.00630103
0.00630087
0.00629965
0.00629953
0.00629945
0.00629938
0.00629934
0.00629931
0.00629929
0.00629711
0.00629712
0.00629714
0.00629717
0.0062972
0.00629724
0.0062973
0.00629732
0.00629844
0.00629854
0.00629908
0.006299
0.00596564
0.0062995
0.00629892
0.00629885
0.00629755
0.00629746
0.00629733
0.00629725
0.0062972
0.00629715
0.00629712
0.00629709
0.00629492
0.00629493
0.00629495
0.00629498
0.00629501
0.00629505
0.0062951
0.00629513
0.00629625
0.00629636
0.00629635
0.00629678
0.00599038
0.00629675
0.00629673
0.00629666
0.00629537
0.00629527
0.00629513
0.00629505
0.00629499
0.00629494
0.00629491
0.00629489
0.00629273
0.00629274
0.00629276
0.00629279
0.00629282
0.00629286
0.00629291
0.00629295
0.00629301
0.00629417
0.00629417
0.00629015
0.00615044
0.00629455
0.00629453
0.00629447
0.00629317
0.00629307
0.00629294
0.00629285
0.00629279
0.00629274
0.00629271
0.00629268
0.00629054
0.00629055
0.00629057
0.0062906
0.00629063
0.00629066
0.00629072
0.00629077
0.00629083
0.00629089
0.00629199
0.00628588
0.00615178
0.00629235
0.00629125
0.0062911
0.00629097
0.00629087
0.00629074
0.00629065
0.00629058
0.00629053
0.0062905
0.00629046
0.00628834
0.00628836
0.00628838
0.00628841
0.00628844
0.00628847
0.00628853
0.00628859
0.00628865
0.0062887
0.00628805
0.00611345
0.00622219
0.00628907
0.00628905
0.00628891
0.00628877
0.00628867
0.00628853
0.00628844
0.00628837
0.00628832
0.00628829
0.00628825
0.00628615
0.00628617
0.00628619
0.00628622
0.00628626
0.00628629
0.00628635
0.00628641
0.00628648
0.00628652
0.00628527
0.0061119
0.00622039
0.00628688
0.00628686
0.00628671
0.00628657
0.00628647
0.00628633
0.00628623
0.00628616
0.00628611
0.00628608
0.00628604
0.00628396
0.00628398
0.006284
0.00628403
0.00628407
0.0062841
0.00628417
0.00628423
0.0062843
0.00628434
0.00628252
0.00611029
0.00621853
0.00628469
0.00628467
0.00628452
0.00628438
0.00628427
0.00628412
0.00628403
0.00628395
0.0062839
0.00628386
0.00628382
0.00628177
0.00628179
0.00628181
0.00628184
0.00628188
0.00628192
0.00628199
0.00628205
0.00628213
0.00628216
0.00627979
0.00610863
0.00621662
0.00628249
0.00628248
0.00628233
0.00628218
0.00628207
0.00628192
0.00628182
0.00628174
0.00628169
0.00628165
0.00628161
0.00627957
0.00627959
0.00627962
0.00627965
0.00627969
0.00627973
0.00627981
0.00627987
0.00627996
0.00627998
0.00627708
0.00610694
0.00621466
0.0062803
0.00628029
0.00628014
0.00627998
0.00627986
0.00627971
0.00627961
0.00627953
0.00627947
0.00627943
0.00627939
0.00627738
0.0062774
0.00627743
0.00627746
0.00627751
0.00627755
0.00627763
0.0062777
0.00627778
0.0062778
0.00627439
0.00610521
0.00621268
0.00627811
0.0062781
0.00627795
0.00627778
0.00627766
0.0062775
0.0062774
0.00627732
0.00627726
0.00627722
0.00627718
0.00627519
0.00627521
0.00627524
0.00627528
0.00627532
0.00627537
0.00627545
0.00627552
0.00627561
0.00627562
0.00627173
0.00610345
0.00621067
0.00627592
0.00627592
0.00627576
0.00627558
0.00627546
0.0062753
0.00627519
0.00627511
0.00627504
0.006275
0.00627496
0.006273
0.00627302
0.00627305
0.00627309
0.00627314
0.00627318
0.00627327
0.00627334
0.00627344
0.00627344
0.00626903
0.00610172
0.00620867
0.00627374
0.00627373
0.00627357
0.00627339
0.00627326
0.00627309
0.00627298
0.0062729
0.00627283
0.00627279
0.00627274
0.00627081
0.00627083
0.00627086
0.0062709
0.00627095
0.006271
0.00627109
0.00627117
0.00627127
0.00627125
0.00626628
0.00610002
0.00620669
0.00627155
0.00627155
0.00627138
0.00627119
0.00627106
0.00627089
0.00627077
0.00627069
0.00627062
0.00627058
0.00627053
0.00626862
0.00626864
0.00626867
0.00626871
0.00626877
0.00626882
0.00626891
0.006269
0.00626911
0.00626907
0.00626355
0.00609831
0.00620469
0.00626937
0.00626937
0.0062692
0.006269
0.00626886
0.00626868
0.00626857
0.00626848
0.00626841
0.00626836
0.00626832
0.00626643
0.00626645
0.00626648
0.00626653
0.00626658
0.00626664
0.00626674
0.00626682
0.00626694
0.00626689
0.00626084
0.00609658
0.00620269
0.00626719
0.00626719
0.00626701
0.00626681
0.00626666
0.00626648
0.00626636
0.00626627
0.0062662
0.00626615
0.00626611
0.00626424
0.00626426
0.0062643
0.00626434
0.0062644
0.00626446
0.00626456
0.00626465
0.00626477
0.0062647
0.00625814
0.00609484
0.00620068
0.00626501
0.00626501
0.00626483
0.00626461
0.00626446
0.00626428
0.00626416
0.00626406
0.00626399
0.00626394
0.00626389
0.00626205
0.00626208
0.00626211
0.00626215
0.00626221
0.00626228
0.00626239
0.00626248
0.00626261
0.00626252
0.00625545
0.00609309
0.00619866
0.00626283
0.00626284
0.00626264
0.00626242
0.00626226
0.00626207
0.00626195
0.00626185
0.00626177
0.00626173
0.00626168
0.00625986
0.00625989
0.00625992
0.00625997
0.00626003
0.0062601
0.00626022
0.00626032
0.00626044
0.00626033
0.00625277
0.00609134
0.00619664
0.00626065
0.00626066
0.00626046
0.00626023
0.00626007
0.00625987
0.00625974
0.00625964
0.00625956
0.00625951
0.00625947
0.00625768
0.0062577
0.00625774
0.00625778
0.00625785
0.00625792
0.00625804
0.00625815
0.00625828
0.00625814
0.00625008
0.00608959
0.00619461
0.00625846
0.00625848
0.00625827
0.00625804
0.00625787
0.00625767
0.00625753
0.00625743
0.00625735
0.0062573
0.00625725
0.00625549
0.00625551
0.00625555
0.0062556
0.00625567
0.00625574
0.00625587
0.00625598
0.00625611
0.00625595
0.00624739
0.00608784
0.00619259
0.00625628
0.0062563
0.00625609
0.00625584
0.00625567
0.00625546
0.00625533
0.00625522
0.00625514
0.00625508
0.00625504
0.0062533
0.00625332
0.00625336
0.00625341
0.00625348
0.00625357
0.0062537
0.00625381
0.00625395
0.00625376
0.00624468
0.0060861
0.00619057
0.0062541
0.00625412
0.0062539
0.00625365
0.00625347
0.00625326
0.00625312
0.006253
0.00625292
0.00625287
0.00625282
0.00625111
0.00625114
0.00625118
0.00625123
0.0062513
0.00625139
0.00625153
0.00625164
0.00625178
0.00625156
0.00624196
0.00608436
0.00618856
0.00625192
0.00625194
0.00625172
0.00625146
0.00625127
0.00625105
0.00625091
0.00625079
0.00625071
0.00625065
0.00625061
0.00631223
0.00631234
0.00631415
0.00631022
0.00631044
0.0063121
0.00630824
0.00630855
0.0063102
0.00630621
0.00630659
0.00630831
0.00630408
0.00630451
0.00630634
0.00630179
0.00488015
0.00497048
0.00630231
0.00630424
0.00631439
0.00631641
0.00631443
0.00631646
0.0063124
0.00631226
0.00631416
0.00631307
0.00631409
0.00631237
0.00631253
0.0063141
0.00631032
0.00631023
0.006312
0.00631121
0.00630922
0.00631157
0.00630706
0.0063114
0.00631044
0.00631052
0.00631203
0.00630825
0.00630824
0.00630999
0.00630923
0.00630122
0.0063032
0.00626275
0.00628615
0.00630854
0.00630853
0.00631003
0.00630617
0.0063062
0.00630799
0.00630723
0.00630205
0.00630143
0.00629461
0.00627447
0.00630658
0.00630652
0.00630803
0.00630301
0.00630333
0.0063045
0.00630443
0.006306
0.00630267
0.00630319
0.00629956
0.00524212
0.00488595
0.00569584
0.00630005
0.00630202
0.00631181
0.00631296
0.00631301
0.00631291
0.00631103
0.00631408
0.00631305
0.00631157
0.006313
0.00631309
0.00631298
0.00631191
0.00630376
0.00630865
0.00631096
0.00630328
0.00628479
0.00631045
0.0063042
0.00628763
0.00630684
0.00631114
0.00630892
0.00630363
0.00631179
0.00630908
0.00631138
0.00630135
0.00630117
0.00630898
0.00627883
0.00628641
0.00628393
0.00627853
0.00627368
0.0062614
0.00630926
0.00630126
0.00630227
0.00630352
0.00630141
0.0063095
0.00628254
0.00628995
0.00628701
0.00628132
0.00630314
0.00629575
0.00630734
0.0063046
0.00630549
0.00630232
0.00630446
0.00630759
0.00629599
0.00629806
0.00629083
0.00629552
0.00630323
0.00630311
0.00630545
0.00630497
0.00630557
0.00629888
0.00629504
0.00629824
0.00629887
0.00630166
0.00630257
0.00631328
0.0063131
0.00631413
0.00631324
0.00631397
0.00630405
0.00630407
0.00630594
0.00630516
0.00630295
0.00630278
0.00623965
0.00620673
0.0063023
0.00630229
0.0063039
0.006314
0.00631327
0.00631414
0.00631311
0.00631335
0.00630272
0.00630215
0.00630698
0.00472646
0.00498385
0.00583883
0.00595727
0.00500092
0.00533336
0.00620033
0.00613996
0.00630531
0.00630488
0.00630415
0.00597067
0.00603695
0.00630403
0.00630315
0.00630343
0.00631531
0.00631519
0.00631423
0.00631424
0.0063152
0.00631531
0.00631311
0.00631349
0.00631323
0.00631402
0.00631333
0.00631363
0.00630871
0.00630967
0.00627615
0.00627735
0.00628776
0.00628542
0.00630258
0.00614104
0.00630413
0.0062647
0.00624334
0.00624769
0.00626711
0.00630302
0.00628829
0.00631241
0.00624034
0.00630441
0.00622652
0.00631217
0.00630628
0.00631322
0.00631348
0.0063128
0.00629504
0.00631236
0.00631245
0.00629305
0.00629189
0.00630867
0.00630822
0.00629563
0.0062967
0.00630435
0.00631071
0.00631108
0.00631023
0.00631059
0.00630427
0.0063107
0.0063117
0.00631208
0.0063112
0.00631158
0.00631034
0.00628241
0.00628283
0.00627936
0.00627891
0.0062451
0.0062474
0.0063001
0.00630886
0.0063092
0.00630841
0.00630874
0.00630002
0.00630265
0.00630976
0.00631011
0.00630931
0.00630965
0.00630252
0.0047466
0.00628601
0.00500987
0.00472817
0.0053502
0.00502897
0.00628705
0.00627617
0.0047542
0.00627743
0.00630101
0.00630051
0.00630333
0.00630795
0.00630829
0.00630748
0.00630783
0.00630359
0.00564542
0.00581245
0.00629316
0.00564739
0.00537566
0.00586273
0.00567792
0.00629383
0.005368
0.0056183
0.00630327
0.00620931
0.00624392
0.00614856
0.00620232
0.00630326
0.00612504
0.0060256
0.00604862
0.00508038
0.00604435
0.00601657
0.00529834
0.00626403
0.00626667
0.00631382
0.00630187
0.00630181
0.00630379
0.00630298
0.00630218
0.0063029
0.0056076
0.00629827
0.00630073
0.00631382
0.00630261
0.00630293
0.00630489
0.00507438
0.00511898
0.00472428
0.00601456
0.00601015
0.00515689
0.00522336
0.00625242
0.0062631
0.00429536
0.0063146
0.00631464
0.0063141
0.00631408
0.00631464
0.0063146
0.00631044
0.0063115
0.0063111
0.00630733
0.00630653
0.00631064
0.00630166
0.00630942
0.00630905
0.00630992
0.00630954
0.00630192
0.00626908
0.00628261
0.00629173
0.00627639
0.00599474
0.00593894
0.00630294
0.00626916
0.00628268
0.00628694
0.00628637
0.00519136
0.00631363
0.0063134
0.00631405
0.00631191
0.00630901
0.00630723
0.00631258
0.00631272
0.00631312
0.0063122
0.00631259
0.00631243
0.00630573
0.00631044
0.00631005
0.00631097
0.00631057
0.00630642
0.00629881
0.00611126
0.00622725
0.00602371
0.00604495
0.00628763
0.0062389
0.00625145
0.00630616
0.006291
0.00630018
0.00630634
0.00631055
0.0063107
0.00630959
0.00630981
0.00630393
0.00630893
0.00630857
0.00630116
0.00628062
0.00596255
0.00589276
0.00628165
0.00599244
0.00601753
0.00588035
0.00589668
0.00627804
0.00626244
0.00625303
0.00630065
0.00630847
0.00630861
0.00630769
0.00630809
0.00630142
0.00630317
0.00630932
0.00630952
0.00630866
0.00630881
0.00630191
0.00630239
0.00624598
0.00625873
0.00622903
0.0062211
0.00629812
0.00630561
0.00630701
0.00630737
0.00630651
0.00630689
0.00630559
0.0062971
0.00599587
0.00588271
0.00610436
0.00607206
0.00629739
0.00542229
0.00545864
0.00629864
0.00613764
0.00611389
0.0053819
0.00541235
0.00606266
0.0060092
0.00631357
0.00631382
0.00631368
0.00593732
0.00622754
0.00597463
0.00600165
0.00599428
0.00622332
0.00631372
0.00631356
0.00631389
0.00631331
0.00631362
0.00476083
0.00484254
0.00508296
0.00507612
0.00589727
0.00521073
0.00517068
0.00529733
0.00522237
0.00591251
0.00509169
0.00515476
0.00617798
0.00616779
0.00600413
0.0054095
0.00533621
0.00522972
0.00526335
0.00631274
0.00631318
0.00631344
0.00631277
0.00631309
0.00631254
0.00630746
0.00631048
0.00627036
0.00628137
0.00629103
0.00627765
0.00615451
0.00626423
0.00625502
0.00627382
0.00626711
0.00615196
0.00623374
0.00622488
0.00625213
0.00623873
0.00625718
0.00608559
0.00611848
0.00602518
0.00606912
0.00625403
0.00590825
0.00592473
0.00627175
0.00631038
0.00630809
0.0063125
0.00631105
0.00627994
0.00629391
0.00628907
0.00630633
0.00629598
0.00631183
0.00631315
0.00631272
0.00631106
0.00630942
0.00631131
0.00630943
0.00631202
0.00631001
0.00631204
0.00631264
0.00631043
0.0063118
0.00631271
0.00631223
0.00631149
0.00607314
0.00609387
0.00629711
0.00590655
0.00582032
0.00612945
0.00592508
0.00569496
0.00561563
0.00579371
0.00572882
0.00628867
0.00605239
0.00606781
0.00622769
0.00620617
0.00628655
0.00624568
0.00617967
0.00615458
0.00620223
0.00618612
0.00630672
0.0062543
0.0062621
0.00629216
0.00629957
0.0063102
0.00631046
0.00630527
0.00630402
0.00630989
0.00631012
0.00597946
0.00597451
0.00628115
0.00550421
0.0055017
0.00518547
0.00546572
0.00546752
0.00556671
0.00549428
0.00547174
0.00595537
0.00598405
0.00628098
0.0054885
0.00540714
0.0055962
0.0055136
0.00525485
0.005172
0.00537586
0.00529215
0.00627819
0.00591059
0.00594408
0.00625467
0.00625124
0.00630829
0.00630842
0.00630049
0.00630084
0.00630813
0.00630825
0.00630908
0.00630926
0.00630304
0.00630206
0.00630886
0.00630903
0.00477126
0.004854
0.00599834
0.00604616
0.00593544
0.00598136
0.00475872
0.0052215
0.00610978
0.00603948
0.00605933
0.00609781
0.0051553
0.00572761
0.00575494
0.00562509
0.00571749
0.0048297
0.00587347
0.00592256
0.0057701
0.0058478
0.00482689
0.00623477
0.00624284
0.00630211
0.00619975
0.00621656
0.00622071
0.0061989
0.00621629
0.00629869
0.00621611
0.00622793
0.00571557
0.00498517
0.00497919
0.00514268
0.00500563
0.00573972
0.00508183
0.00546479
0.00498173
0.00550549
0.00617669
0.00628137
0.00627588
0.00628786
0.00628319
0.00618133
0.00610151
0.00611048
0.00547641
0.00551866
0.00529017
0.00536838
0.00609886
0.0060749
0.00631449
0.00631463
0.00631627
0.00630315
0.00630294
0.00630207
0.00631427
0.00631431
0.00631396
0.00631391
0.00631429
0.00631428
0.00631529
0.00631524
0.0063143
0.00631202
0.00631163
0.00631077
0.00630715
0.00630063
0.00629969
0.00626425
0.00628494
0.00630796
0.0063076
0.00630167
0.00624766
0.00624356
0.00627503
0.00626155
0.00626801
0.00630376
0.00631238
0.00631255
0.00631215
0.00630186
0.00630504
0.00631148
0.0063128
0.0063124
0.00631278
0.00631012
0.00628613
0.00630043
0.00628875
0.00629872
0.00629769
0.00630622
0.00630714
0.00630721
0.00630373
0.00631088
0.00631104
0.00630941
0.00630118
0.00630845
0.00630809
0.00600757
0.00597777
0.00628468
0.00627222
0.00625316
0.00625151
0.00626006
0.00630111
0.0063061
0.00630614
0.0063034
0.00630699
0.00630706
0.00630618
0.00630623
0.00630156
0.00627382
0.00605374
0.00602274
0.00630245
0.00630753
0.00630761
0.00630528
0.006306
0.00630638
0.00505513
0.00505454
0.00616193
0.00614451
0.00629872
0.00505966
0.00505688
0.00628388
0.00628652
0.00630223
0.00631333
0.00631326
0.00471222
0.00476154
0.004775
0.00496115
0.00501972
0.00473545
0.00474766
0.00501653
0.00496951
0.00528731
0.00609111
0.00608099
0.00614933
0.0054661
0.00542184
0.00601308
0.00631472
0.00631467
0.00631412
0.00631285
0.00631302
0.00631318
0.0063133
0.00631213
0.00631234
0.00631352
0.00631378
0.00631363
0.00630519
0.00630471
0.00630803
0.0063101
0.00630857
0.00630772
0.00627335
0.00627856
0.00625757
0.00626059
0.00628929
0.00628251
0.00624461
0.00625145
0.00616541
0.00616672
0.00620388
0.00619879
0.00614093
0.00616998
0.00617376
0.00630387
0.00627058
0.0062776
0.00628215
0.00625545
0.00629222
0.00628788
0.00630958
0.00630781
0.00630039
0.00617918
0.00616213
0.00627684
0.0062456
0.00620123
0.0063134
0.00631324
0.00631245
0.00631231
0.00631053
0.00631148
0.00630031
0.00631114
0.0063118
0.00626463
0.00627787
0.00630983
0.00613997
0.00611948
0.00629457
0.00629774
0.00631153
0.00631168
0.00631122
0.00630955
0.0063112
0.00631137
0.0062842
0.00597465
0.00597683
0.00624529
0.00624865
0.0063066
0.00630666
0.00630277
0.00630235
0.00630648
0.00630654
0.00476599
0.00498622
0.00539794
0.00542588
0.00510847
0.00513093
0.00470421
0.0060759
0.00605953
0.00627499
0.00481999
0.00478641
0.0049928
0.00499683
0.00478142
0.00508506
0.00509585
0.00475951
0.00476678
0.00630737
0.00630744
0.00630257
0.00630401
0.0063072
0.00630728
0.0055176
0.0060913
0.00610751
0.00605692
0.00607413
0.00547174
0.00622533
0.00628455
0.00628912
0.00628778
0.00628626
0.00623067
0.00616015
0.0062173
0.00621042
0.0061088
0.00609489
0.00612686
0.00512346
0.00514886
0.00516031
0.00507335
0.00606419
0.00555483
0.00548889
0.0056089
0.00557025
0.00600697
0.00587717
0.0058827
0.00612724
0.00615468
0.00627156
0.00631374
0.00631383
0.00631362
0.00507635
0.00508974
0.00546972
0.00546388
0.00468124
0.00519429
0.00513274
0.00513154
0.00511384
0.00512533
0.00521351
0.00431502
0.00608264
0.00609745
0.00631437
0.00631432
0.00631396
0.00630241
0.00630153
0.00630724
0.00630485
0.00630758
0.00630949
0.00630663
0.00630719
0.00626699
0.00628376
0.00622675
0.00623165
0.00623179
0.00622649
0.00627561
0.0062406
0.00623885
0.0059824
0.00588879
0.00588755
0.00590549
0.00590177
0.00596666
0.0063085
0.0063105
0.00631064
0.00631012
0.00631038
0.00630794
0.00628986
0.00630455
0.00629654
0.00629372
0.00630383
0.00630728
0.00630737
0.00625289
0.0062541
0.00626914
0.00625588
0.00630602
0.00630606
0.00630085
0.00630686
0.00630692
0.00630329
0.00630176
0.00630627
0.00630632
0.00622943
0.00624589
0.0062392
0.00625144
0.00624936
0.00622782
0.00505596
0.00506255
0.00506979
0.00506365
0.00539264
0.0052041
0.00519673
0.00590484
0.005905
0.0060464
0.00593547
0.00595814
0.00589401
0.00591173
0.00602742
0.0063135
0.00631342
0.00631347
0.00631346
0.00631375
0.00631378
0.00631388
0.00631359
0.00631367
0.00631365
0.00596626
0.00610891
0.00610072
0.00613177
0.00611992
0.00597551
0.0060295
0.00607012
0.00605316
0.00609414
0.00608557
0.00601509
0.00631365
0.00631372
0.00631361
0.00631267
0.006312
0.00631343
0.00631326
0.00471506
0.00492054
0.00478295
0.00477457
0.00508118
0.00507866
0.00537924
0.0054023
0.00518765
0.00474363
0.00472883
0.00504723
0.0048763
0.00488264
0.00485853
0.00522526
0.00488849
0.00480699
0.00609947
0.00611479
0.00618688
0.00605764
0.00606213
0.00604578
0.00604902
0.00615787
0.00607679
0.00608328
0.00523609
0.00508648
0.00510049
0.00507326
0.00507485
0.0052459
0.00631297
0.00631307
0.0063129
0.00631209
0.00631249
0.00631285
0.00630147
0.00630766
0.00630404
0.00630326
0.00630525
0.00630597
0.00630361
0.00630448
0.00627169
0.00627982
0.00623757
0.00623907
0.0062336
0.00623566
0.00629028
0.00626218
0.00626328
0.00623827
0.00624029
0.0062797
0.00623895
0.00617944
0.00616909
0.0061461
0.00619452
0.00618901
0.00623007
0.0061787
0.00617732
0.00619505
0.00618566
0.00622747
0.00624868
0.00620328
0.00620868
0.00618335
0.00619377
0.00624408
0.0061748
0.00603974
0.00615045
0.0061422
0.00589764
0.00590615
0.00626788
0.00629595
0.00629411
0.00626363
0.00628691
0.0063031
0.00629883
0.00620702
0.00619234
0.00626041
0.0062637
0.0062908
0.006238
0.00622276
0.0063056
0.00630794
0.00631172
0.00630949
0.00630258
0.00629318
0.00630208
0.00631097
0.00631167
0.00631188
0.00631086
0.00631121
0.00630973
0.006308
0.0063095
0.00631221
0.00631163
0.00631133
0.00631237
0.00631182
0.00631241
0.00631078
0.00631097
0.00631009
0.00631107
0.00588375
0.00585028
0.00607198
0.00581546
0.00584529
0.00575273
0.0059415
0.00566496
0.00563857
0.00577036
0.0057503
0.00621681
0.00611668
0.00614026
0.00606905
0.00609215
0.00621059
0.00628181
0.006244
0.00625494
0.00615408
0.00621812
0.00627045
0.0061003
0.00606281
0.00617306
0.00591858
0.00594222
0.00587788
0.00589795
0.00616568
0.00619815
0.00602975
0.00604826
0.00596862
0.00599788
0.00619241
0.00629351
0.00629873
0.00551413
0.00521205
0.00525372
0.00512724
0.00516772
0.00550879
0.00525917
0.00527574
0.00527362
0.00536954
0.0054812
0.00490841
0.00494849
0.00497908
0.00491172
0.00551406
0.00548697
0.00505633
0.0050902
0.00499069
0.0050257
0.00547974
0.00546733
0.0054429
0.00557597
0.0055427
0.00522156
0.00519142
0.00534881
0.00532587
0.00624863
0.00624989
0.00630291
0.00630673
0.00630679
0.00630637
0.00630643
0.0063022
0.00477851
0.0053007
0.00535825
0.00494229
0.00470499
0.0051716
0.00523269
0.00489143
0.00485467
0.00573575
0.00523603
0.00523995
0.00567241
0.00518444
0.00508713
0.00524013
0.00522644
0.00570138
0.00497358
0.00493082
0.00502126
0.00506493
0.00480946
0.00482411
0.00492741
0.00623839
0.00627039
0.00626789
0.00627402
0.00627226
0.00624062
0.00620546
0.00621337
0.00621289
0.00619829
0.00619809
0.00620433
0.0062155
0.00625634
0.00625348
0.00626439
0.00626024
0.0062205
0.00497884
0.00515228
0.00517591
0.00511494
0.00513333
0.00497784
0.0050938
0.00530382
0.00534737
0.00520941
0.00525439
0.00504592
0.00507303
0.00489107
0.00490651
0.0048845
0.0048858
0.00498211
0.00505921
0.00509282
0.00494484
0.00500154
0.0049723
0.00622766
0.00622321
0.0061707
0.00609997
0.00612071
0.00508159
0.0051147
0.00532119
0.00513008
0.00509186
0.00518637
0.0051672
0.00534882
0.00507792
0.00507583
0.00588478
0.00588935
0.00631903
0.00631903
0.00632014
0.00631901
0.00631901
0.00632013
0.00631901
0.00631901
0.00632013
0.00631903
0.00631904
0.00632015
0.00631682
0.00631681
0.00631792
0.00631678
0.00631676
0.00631847
0.00631674
0.00631671
0.00631844
0.00631671
0.00631675
0.00631845
0.00631678
0.00631682
0.00631849
0.00631686
0.00631687
0.00631796
0.00631465
0.0063146
0.00631625
0.00631456
0.00631445
0.00631618
0.00631556
0.00631553
0.00631644
0.00631547
0.00631551
0.00631641
0.00631564
0.00631567
0.00631622
0.00631468
0.00631473
0.00631579
0.0063125
0.00631244
0.00631405
0.00631347
0.00631346
0.006314
0.00631383
0.0063138
0.00631409
0.00631339
0.00631351
0.00631431
0.00631257
0.00631263
0.00631367
0.00631039
0.00631034
0.00631191
0.00631135
0.00631135
0.00631187
0.00631172
0.00631172
0.00631197
0.00631139
0.00631148
0.00631222
0.00631054
0.00631057
0.0063116
0.00630828
0.00630826
0.00630982
0.00630928
0.0063093
0.00630981
0.00630972
0.00630972
0.00630997
0.00630949
0.00630952
0.00631025
0.00630853
0.00630851
0.00630954
0.00630616
0.00630617
0.00630774
0.00630722
0.00630725
0.00630777
0.00630774
0.00630774
0.00630799
0.00630758
0.00630755
0.00630829
0.00630649
0.00630645
0.00630748
0.00630403
0.00630404
0.00630564
0.00630568
0.00630569
0.00630595
0.00630556
0.00630549
0.00630626
0.0063044
0.00630434
0.0063054
0.00630186
0.00630187
0.0063035
0.00630341
0.0063034
0.00630394
0.00630225
0.00630221
0.00630328
0.00629964
0.0062996
0.00630071
0.00629963
0.00629958
0.00630124
0.00630067
0.00629943
0.00630026
0.00518296
0.0062312
0.00623757
0.00630006
0.0063001
0.00630175
0.00630003
0.00630005
0.00630113
0.00629745
0.00629742
0.00629851
0.00629745
0.00629737
0.00629903
0.00629734
0.0055955
0.00557931
0.00598464
0.00629782
0.00629949
0.00629783
0.00629789
0.00629952
0.00629782
0.00629785
0.00629894
0.00629526
0.00629521
0.00629632
0.00629265
0.00593078
0.00560013
0.00614962
0.00629544
0.00629725
0.00629565
0.00629569
0.00629679
0.00631222
0.00631248
0.00631249
0.00631259
0.00631268
0.00631228
0.00631414
0.00631387
0.00631388
0.00631021
0.00631046
0.00631047
0.00631067
0.00631067
0.00631031
0.00631215
0.00631177
0.00631186
0.00630824
0.00630849
0.00630849
0.00630879
0.00630882
0.00630847
0.0063102
0.00630985
0.00630997
0.00630621
0.00630647
0.00630647
0.00630684
0.00630691
0.00630655
0.00630835
0.006308
0.00630807
0.00630478
0.00630476
0.00630449
0.0063063
0.00630605
0.00630609
0.00630054
0.00630193
0.00630269
0.00467934
0.00538052
0.00538645
0.0058379
0.00583946
0.00432699
0.00630423
0.00630396
0.00630397
0.00631428
0.00631523
0.00631526
0.006314
0.006314
0.00631391
0.00631641
0.0063155
0.00631547
0.00631399
0.00631401
0.00631472
0.0063147
0.00631441
0.00631645
0.00631555
0.00631558
0.00631239
0.00631292
0.00631293
0.00631306
0.0063129
0.00631238
0.00631397
0.00631343
0.00631333
0.00631321
0.00631317
0.0063129
0.00631406
0.0063139
0.00631393
0.00631248
0.00631325
0.00631313
0.00631305
0.00631305
0.00631254
0.00631409
0.00631356
0.00631357
0.00631033
0.00631084
0.00631083
0.00631099
0.00631084
0.00631034
0.00631186
0.00631135
0.00631124
0.00631121
0.00631146
0.00631146
0.00630968
0.00631078
0.00631057
0.00631187
0.00631171
0.00631133
0.00631076
0.00631006
0.00631113
0.0063105
0.00631123
0.00631115
0.00631102
0.00631105
0.00631056
0.00631204
0.00631155
0.00631152
0.00630828
0.00630879
0.00630877
0.00630899
0.00630882
0.00630831
0.00630983
0.00630932
0.00630924
0.00630923
0.00630947
0.00630948
0.00630131
0.00630729
0.00630717
0.00630826
0.00630805
0.0063027
0.00630855
0.00630928
0.00630926
0.00630903
0.00630909
0.0063086
0.00631007
0.00630958
0.00630953
0.00630621
0.00630673
0.00630669
0.00630698
0.00630677
0.00630625
0.0063078
0.00630728
0.00630723
0.00630724
0.00630749
0.00630749
0.00630176
0.00630748
0.00630712
0.00630638
0.00630631
0.00630151
0.00629348
0.00626821
0.00627153
0.00630653
0.00630729
0.00630733
0.00630703
0.00630709
0.00630658
0.0063081
0.0063076
0.00630753
0.00630289
0.00628602
0.00628977
0.00629712
0.00629775
0.00630349
0.00630447
0.00630499
0.0063053
0.00630496
0.00630503
0.0063045
0.00630607
0.00630555
0.00630548
0.00630277
0.00630081
0.00630085
0.00629996
0.00630018
0.00630314
0.00629884
0.00629915
0.00630011
0.00520281
0.00628608
0.00628474
0.00601242
0.00601575
0.00491693
0.00629742
0.00629805
0.00563091
0.00630061
0.00630053
0.00629983
0.00630178
0.0063008
0.00630117
0.00631202
0.00631217
0.00631202
0.00631309
0.00631268
0.00631254
0.00631275
0.00631274
0.006313
0.00631277
0.00631224
0.00631286
0.00631393
0.0063139
0.00631405
0.00631299
0.00631316
0.0063132
0.00631169
0.00631124
0.00631107
0.00631299
0.0063129
0.00631293
0.00631307
0.00631281
0.00631283
0.00631285
0.00631289
0.00631302
0.00631209
0.00631222
0.00631212
0.00630438
0.00630875
0.0063085
0.00631033
0.00631008
0.00630792
0.00631071
0.00631071
0.00631096
0.00630209
0.00628973
0.00629313
0.00625045
0.00625208
0.00628568
0.00629533
0.00629689
0.00630493
0.00631115
0.00631079
0.00631091
0.00630863
0.00630982
0.00631
0.00631135
0.00631182
0.00631196
0.00631013
0.00631025
0.0063092
0.00631162
0.00631164
0.00631127
0.00630127
0.00630653
0.00630645
0.00630707
0.00630697
0.00630116
0.00630873
0.00630874
0.00630898
0.00627946
0.00623813
0.00623653
0.00625442
0.00625286
0.00628579
0.00628313
0.00624739
0.0062489
0.00623545
0.00623482
0.00627816
0.00630928
0.00630893
0.00630903
0.00630628
0.00630625
0.00630215
0.00630973
0.00630973
0.00630939
0.00628374
0.00616602
0.00614665
0.00623969
0.00623549
0.00628903
0.00628759