/*--------------------------------*- C++ -*----------------------------------*\
| =========                 |                                                 |
| \\      /  F ield         | OpenFOAM: The Open Source CFD Toolbox           |
|  \\    /   O peration     | Version:  5.x                                   |
|   \\  /    A nd           | Web:      www.OpenFOAM.org                      |
|    \\/     M anipulation  |                                                 |
\*---------------------------------------------------------------------------*/
FoamFile
{
    version     2.0;
    format      ascii;
    class       volScalarField;
    location    "400";
    object      YSat;
}
// * * * * * * * * * * * * * * * * * * * * * * * * * * * * * * * * * * * * * //

dimensions      [0 0 0 0 0 0 0];

internalField   nonuniform List<scalar> 
6584
(
0.00431405
0.00431405
0.00431405
0.00431405
0.00431405
0.00431405
0.00431405
0.00431405
0.00431405
0.00431405
0.00431405
0.00431405
0.00431405
0.00431405
0.00431405
0.00431405
0.00431405
0.00431405
0.00431405
0.00431405
0.00431405
0.00431405
0.00431405
0.00431405
0.00431405
0.00431405
0.00431405
0.00431405
0.00431405
0.00431405
0.00431405
0.00431405
0.00431405
0.00431405
0.00431405
0.00431405
0.00431405
0.00431405
0.00431405
0.00431405
0.00431405
0.00431405
0.00431405
0.00431405
0.00431405
0.00431405
0.00431405
0.00431405
0.00431405
0.00431405
0.00431405
0.00431405
0.00431405
0.00431405
0.00431405
0.00431405
0.00431405
0.00431405
0.00431405
0.00431405
0.00431405
0.00431405
0.00431405
0.00431405
0.00431405
0.00431405
0.00431405
0.00431405
0.00431405
0.00431405
0.00431405
0.00431405
0.00431405
0.00431405
0.00431405
0.00431405
0.00431405
0.00431405
0.00431405
0.00431405
0.00431405
0.00431405
0.00431405
0.00431405
0.00431405
0.00431405
0.00431405
0.00431405
0.00431405
0.00431405
0.00431405
0.00431405
0.00431405
0.00431405
0.00431405
0.00431405
0.00431405
0.00431405
0.00431405
0.00431405
0.00431405
0.00431405
0.00431405
0.00431405
0.00431405
0.00431405
0.00431405
0.00431405
0.00431405
0.00431405
0.00431405
0.00431405
0.00431405
0.00431405
0.00431405
0.00431405
0.00431405
0.00431405
0.00431405
0.00431405
0.00431405
0.00431405
0.00431405
0.00431405
0.00431405
0.00431405
0.00431405
0.00431405
0.00431405
0.00431405
0.00431405
0.00431405
0.00431405
0.00431405
0.00431405
0.00431405
0.00431405
0.00431405
0.00431405
0.00431405
0.00431405
0.00431405
0.00431405
0.00431405
0.00431405
0.00431405
0.00431405
0.00431405
0.00431405
0.00431405
0.00431405
0.00431405
0.00431405
0.00431405
0.00431405
0.00431405
0.00431405
0.00431405
0.00431405
0.00431405
0.00431405
0.00431405
0.00431405
0.00431405
0.00431405
0.00431405
0.00431405
0.00431405
0.00431405
0.00431405
0.00431405
0.00431405
0.00431405
0.00431405
0.00431405
0.00431405
0.00431405
0.00431405
0.00431405
0.00431405
0.00431405
0.00431405
0.00431405
0.00431405
0.00431405
0.00431405
0.00431405
0.00431405
0.00431405
0.00431405
0.00431405
0.00431405
0.00431405
0.00431405
0.00431405
0.00431405
0.00431405
0.00431405
0.00431405
0.00431405
0.00431405
0.00431405
0.00431405
0.00431405
0.00431405
0.00431405
0.00431405
0.00431405
0.00431405
0.00431405
0.00431405
0.00431405
0.00431405
0.00431405
0.00431405
0.00431405
0.00431405
0.00431405
0.00431405
0.00431405
0.00431405
0.00431405
0.00431405
0.00431405
0.00431405
0.00431405
0.00431405
0.00431405
0.00431405
0.00431405
0.00431405
0.00431405
0.00431405
0.00431405
0.00431405
0.00431405
0.00431405
0.00431405
0.00431405
0.00431405
0.00431405
0.00431405
0.00431405
0.00431405
0.00431405
0.00431405
0.00431405
0.00431405
0.00431405
0.00431405
0.00431405
0.00431405
0.00431405
0.00431405
0.00431405
0.00431405
0.00431405
0.00431405
0.00431405
0.00431405
0.00431405
0.00431405
0.00431405
0.00431405
0.00431405
0.00431405
0.00431405
0.00431405
0.00431405
0.00431405
0.00431405
0.00431405
0.00431405
0.00431405
0.00431405
0.00431405
0.00431405
0.00431405
0.00431405
0.00431405
0.00431405
0.00431405
0.00431405
0.00431405
0.00431405
0.00431405
0.00431405
0.00431405
0.00431405
0.00431405
0.00431405
0.00431405
0.00431405
0.00431405
0.00431405
0.00431405
0.00431405
0.00431405
0.00431405
0.00431405
0.00431405
0.00431405
0.00431405
0.00431405
0.00431405
0.00431405
0.00431405
0.00431405
0.00431405
0.00431405
0.00431405
0.00431405
0.00431405
0.00431405
0.00431405
0.00431405
0.00431405
0.00431405
0.00351301
0.00431405
0.00431405
0.00431405
0.00431405
0.00431405
0.00431405
0.00431405
0.00431405
0.00431405
0.00431405
0.00431405
0.00431405
0.00431405
0.00431405
0.00431405
0.00431405
0.00431405
0.00431405
0.00431405
0.00431405
0.00431405
0.00431405
0.00431404
0.00408776
0.00431405
0.00431405
0.00431405
0.00431405
0.00431405
0.00431405
0.00431405
0.00431405
0.00431405
0.00431405
0.00431405
0.00431405
0.00431405
0.00431405
0.00431405
0.00431405
0.00431405
0.00431405
0.00431405
0.00431405
0.00431405
0.00431405
0.00431404
0.00410508
0.00431405
0.00431405
0.00431405
0.00431405
0.00431405
0.00431405
0.00431405
0.00431405
0.00431405
0.00431405
0.00431405
0.00431405
0.00431405
0.00431405
0.00431405
0.00431405
0.00431405
0.00431405
0.00431405
0.00431405
0.00431405
0.00431405
0.00431161
0.00421465
0.00431405
0.00431405
0.00431405
0.00431405
0.00431405
0.00431405
0.00431405
0.00431405
0.00431405
0.00431405
0.00431405
0.00431405
0.00431405
0.00431405
0.00431405
0.00431405
0.00431405
0.00431405
0.00431405
0.00431405
0.00431405
0.00431405
0.00431031
0.00421697
0.00431405
0.00431405
0.00431405
0.00431405
0.00431405
0.00431405
0.00431405
0.00431405
0.00431405
0.00431405
0.00431405
0.00431405
0.00431405
0.00431405
0.00431405
0.00431405
0.00431405
0.00431405
0.00431405
0.00431405
0.00431405
0.00431363
0.00420237
0.00426764
0.00431404
0.00431405
0.00431405
0.00431405
0.00431405
0.00431405
0.00431405
0.00431405
0.00431405
0.00431405
0.00431405
0.00431405
0.00431405
0.00431405
0.00431405
0.00431405
0.00431405
0.00431405
0.00431405
0.00431405
0.00431405
0.00431325
0.00420283
0.00426791
0.00431404
0.00431405
0.00431405
0.00431405
0.00431405
0.00431405
0.00431405
0.00431405
0.00431405
0.00431405
0.00431405
0.00431405
0.00431405
0.00431405
0.00431405
0.00431405
0.00431405
0.00431405
0.00431405
0.00431405
0.00431404
0.00431288
0.00420323
0.00426813
0.00431403
0.00431405
0.00431405
0.00431405
0.00431405
0.00431405
0.00431405
0.00431405
0.00431405
0.00431405
0.00431405
0.00431405
0.00431405
0.00431405
0.00431405
0.00431405
0.00431405
0.00431405
0.00431405
0.00431405
0.00431404
0.00431252
0.00420361
0.00426831
0.00431403
0.00431405
0.00431405
0.00431405
0.00431405
0.00431405
0.00431405
0.00431405
0.00431405
0.00431405
0.00431405
0.00431405
0.00431405
0.00431405
0.00431405
0.00431405
0.00431405
0.00431405
0.00431405
0.00431405
0.00431403
0.00431218
0.00420396
0.00426847
0.00431402
0.00431405
0.00431405
0.00431405
0.00431405
0.00431405
0.00431405
0.00431405
0.00431405
0.00431405
0.00431405
0.00431405
0.00431405
0.00431405
0.00431405
0.00431405
0.00431405
0.00431405
0.00431405
0.00431405
0.00431403
0.00431186
0.00420428
0.0042686
0.00431401
0.00431405
0.00431405
0.00431405
0.00431405
0.00431405
0.00431405
0.00431405
0.00431405
0.00431405
0.00431405
0.00431405
0.00431405
0.00431405
0.00431405
0.00431405
0.00431405
0.00431405
0.00431405
0.00431405
0.00431402
0.00431155
0.00420458
0.00426872
0.00431401
0.00431405
0.00431405
0.00431405
0.00431405
0.00431405
0.00431405
0.00431405
0.00431405
0.00431405
0.00431405
0.00431405
0.00431405
0.00431405
0.00431405
0.00431405
0.00431405
0.00431405
0.00431405
0.00431405
0.00431401
0.00431121
0.00420489
0.00426884
0.004314
0.00431405
0.00431405
0.00431405
0.00431405
0.00431405
0.00431405
0.00431405
0.00431405
0.00431405
0.00431405
0.00431405
0.00431405
0.00431405
0.00431405
0.00431405
0.00431405
0.00431405
0.00431405
0.00431405
0.004314
0.00431085
0.00420522
0.00426897
0.004314
0.00431405
0.00431405
0.00431405
0.00431405
0.00431405
0.00431405
0.00431405
0.00431405
0.00431405
0.00431405
0.00431405
0.00431405
0.00431405
0.00431405
0.00431405
0.00431405
0.00431405
0.00431405
0.00431405
0.00431399
0.00431049
0.00420553
0.00426909
0.00431399
0.00431405
0.00431405
0.00431405
0.00431405
0.00431405
0.00431405
0.00431405
0.00431405
0.00431405
0.00431405
0.00431405
0.00431405
0.00431405
0.00431405
0.00431405
0.00431405
0.00431405
0.00431405
0.00431405
0.00431398
0.00431015
0.00420583
0.00426921
0.00431399
0.00431405
0.00431405
0.00431405
0.00431405
0.00431405
0.00431405
0.00431405
0.00431405
0.00431405
0.00431405
0.00431405
0.00431405
0.00431405
0.00431405
0.00431405
0.00431405
0.00431405
0.00431405
0.00431405
0.00431396
0.00430981
0.00420613
0.00426932
0.00431398
0.00431405
0.00431405
0.00431405
0.00431405
0.00431405
0.00431405
0.00431405
0.00431405
0.00431405
0.00431405
0.00431405
0.00431405
0.00431405
0.00431405
0.00431405
0.00431405
0.00431405
0.00431405
0.00431405
0.00431395
0.00430948
0.00420641
0.00426943
0.00431397
0.00431405
0.00431405
0.00431405
0.00431405
0.00431405
0.00431405
0.00431405
0.00431405
0.00431405
0.00431405
0.00431405
0.00431405
0.00431405
0.00431405
0.00431405
0.00431405
0.00431405
0.00431405
0.00431405
0.00431393
0.00430915
0.00420669
0.00426953
0.00431397
0.00431405
0.00431405
0.00431405
0.00431405
0.00431405
0.00431405
0.00431405
0.00431405
0.00431405
0.00431405
0.00431405
0.00431405
0.00431405
0.00431405
0.00431405
0.00431405
0.00431405
0.00431405
0.00431405
0.00431392
0.00430882
0.00420697
0.00426964
0.00431396
0.00431405
0.00431405
0.00431405
0.00431405
0.00431405
0.00431405
0.00431405
0.00431405
0.00431405
0.00431405
0.00431405
0.00431405
0.00431405
0.00431405
0.00431405
0.00431405
0.00431405
0.00431405
0.00431405
0.0043139
0.00430849
0.00420725
0.00426974
0.00431396
0.00431405
0.00431405
0.00431405
0.00431405
0.00431405
0.00431405
0.00431405
0.00431405
0.00431405
0.00431405
0.00431405
0.00431405
0.00431405
0.00431405
0.00431405
0.00431405
0.00431405
0.00431405
0.00431405
0.00431388
0.00430815
0.00420754
0.00426985
0.00431395
0.00431405
0.00431405
0.00431405
0.00431405
0.00431405
0.00431405
0.00431405
0.00431405
0.00431405
0.00431405
0.00431405
0.00431405
0.00431405
0.00431405
0.00431405
0.00431405
0.00431405
0.00431405
0.00431404
0.00431386
0.00430779
0.00420783
0.00426996
0.00431395
0.00431405
0.00431405
0.00431405
0.00431405
0.00431405
0.00431405
0.00431405
0.00431405
0.00431405
0.00431405
0.00431405
0.00431405
0.00431405
0.00431405
0.00431405
0.00431405
0.00431405
0.00431405
0.00431405
0.00431405
0.00431405
0.00431405
0.00431405
0.00431405
0.00431405
0.00431405
0.00345981
0.00348281
0.00431405
0.00431405
0.00431405
0.00431405
0.00431405
0.00431405
0.00431405
0.00431405
0.00431405
0.00431404
0.00431405
0.00431405
0.00431405
0.00431405
0.00431405
0.00431405
0.00431405
0.00431405
0.0043128
0.00431381
0.00431131
0.00431368
0.00431405
0.00431405
0.00431405
0.00431405
0.00431405
0.00431405
0.00431405
0.00430873
0.00430948
0.00428223
0.00429767
0.00431405
0.00431405
0.00431405
0.00431405
0.00431405
0.00431405
0.00431405
0.00431064
0.00430963
0.00430517
0.00429079
0.00431405
0.00431405
0.00431405
0.00431233
0.00431192
0.00431405
0.00431405
0.00431405
0.0043136
0.00431329
0.00431404
0.0036689
0.00346289
0.00391359
0.00431405
0.00431405
0.00431389
0.00431405
0.00431405
0.00431404
0.00431338
0.00431405
0.00431404
0.00431375
0.00431404
0.00431405
0.00431405
0.00431394
0.00430978
0.0043125
0.00431405
0.00430884
0.00429705
0.00431307
0.00430942
0.00429864
0.0043112
0.00431405
0.00431261
0.00430958
0.0043139
0.00431268
0.00431405
0.00430949
0.00430879
0.00431405
0.00429387
0.00429962
0.00429652
0.00429362
0.00429022
0.00428134
0.00431405
0.0043086
0.00430986
0.00430954
0.00430867
0.00431405
0.00429784
0.00430338
0.00430006
0.00429694
0.00431174
0.004306
0.00431405
0.00431213
0.00431336
0.00430993
0.004312
0.00431405
0.0043082
0.00431021
0.00430405
0.0043078
0.00431322
0.00431249
0.00431342
0.00431369
0.00431405
0.00431158
0.00430982
0.00431043
0.00431148
0.00431374
0.00431364
0.00431405
0.00431405
0.00431405
0.00431395
0.00431405
0.00431405
0.00431405
0.00431405
0.00431405
0.00431263
0.0043119
0.00426904
0.00424622
0.00431405
0.00431405
0.00431405
0.00431405
0.00431396
0.00431405
0.00431405
0.00431405
0.00431177
0.00431079
0.00431405
0.00333983
0.00348433
0.00401755
0.00409274
0.00349428
0.00369497
0.00424183
0.00420076
0.00431405
0.00431372
0.00431386
0.00410121
0.00414298
0.00431387
0.00431394
0.00431405
0.00431405
0.00431405
0.00431405
0.00431405
0.00431405
0.00431405
0.0043139
0.00431405
0.00431398
0.00431405
0.004314
0.00431405
0.00431217
0.00431278
0.00429113
0.00429191
0.00430019
0.00429855
0.00431177
0.00420118
0.00431277
0.00428675
0.00427162
0.00427431
0.00428808
0.00431345
0.0042973
0.00431397
0.00426499
0.0043083
0.00425566
0.00431389
0.00430954
0.00431396
0.00431405
0.00431369
0.00430186
0.00431398
0.004314
0.00430224
0.0043015
0.00431211
0.00431185
0.00430383
0.00430452
0.00430977
0.00431402
0.00431403
0.004314
0.00431401
0.00430975
0.00431347
0.00431404
0.00431405
0.00431403
0.00431404
0.00431326
0.00429658
0.00429691
0.00429379
0.00429354
0.00427048
0.00427202
0.00430807
0.004314
0.004314
0.00431401
0.004314
0.00430806
0.00430921
0.004314
0.004314
0.004314
0.004314
0.00430916
0.00335108
0.00430041
0.00349944
0.00334174
0.00370118
0.0035104
0.00430119
0.00429317
0.00335623
0.0042941
0.00430997
0.00430958
0.0043109
0.00431401
0.00431401
0.00431402
0.00431402
0.00431111
0.00389287
0.0040008
0.00430587
0.00388856
0.00371694
0.00402892
0.00390833
0.00430641
0.00371669
0.00387532
0.00431297
0.00424767
0.00427167
0.00420627
0.00424287
0.00431287
0.00419071
0.00413488
0.00414978
0.00357327
0.00414765
0.00412911
0.00366973
0.00428665
0.00428817
0.00431403
0.00431405
0.00431405
0.00431405
0.00431405
0.00431358
0.00431351
0.00385854
0.00431213
0.00431328
0.00431404
0.00431314
0.00431272
0.00431405
0.00356711
0.00359382
0.00337217
0.00412825
0.00412601
0.00361551
0.00365383
0.00427902
0.00428612
0.00312111
0.00431405
0.00431405
0.00431405
0.00431405
0.00431405
0.00431405
0.00431338
0.00431404
0.00431403
0.00431139
0.00431036
0.00431329
0.00430878
0.00431397
0.00431396
0.00431398
0.00431397
0.00430887
0.00428644
0.00429536
0.00430307
0.00429221
0.00410477
0.00406829
0.0043135
0.00428955
0.00429939
0.00430482
0.00430503
0.00363955
0.00431405
0.00431402
0.00431405
0.00431385
0.0043119
0.0043108
0.00431404
0.00431405
0.00431405
0.00431405
0.00431405
0.00431403
0.00431085
0.004314
0.00431398
0.00431402
0.004314
0.00431124
0.00430595
0.00418044
0.00425752
0.00412409
0.00413771
0.00429882
0.0042653
0.00427357
0.00431062
0.00430083
0.00430676
0.00431097
0.00431379
0.00431381
0.00431361
0.00431364
0.00430967
0.00431397
0.00431397
0.00430903
0.00429521
0.00408535
0.00404023
0.00429513
0.00410406
0.00412015
0.00403223
0.00404264
0.00429315
0.00428243
0.00427573
0.0043083
0.00431362
0.0043136
0.00431356
0.00431371
0.00430916
0.00430941
0.00431358
0.0043136
0.00431359
0.00431358
0.0043089
0.00431109
0.004272
0.00428086
0.00426017
0.00425482
0.00430776
0.00431311
0.00431403
0.00431402
0.00431403
0.00431403
0.00431318
0.00430921
0.00411656
0.0040421
0.004186
0.0041649
0.00430949
0.00376872
0.00379072
0.00431096
0.00420772
0.00419222
0.00374476
0.00376274
0.00414966
0.00411428
0.00431403
0.00431404
0.00431404
0.00406721
0.0042606
0.00409148
0.00410927
0.00410435
0.00425767
0.00431405
0.004314
0.00431405
0.00431386
0.00431404
0.00335849
0.00340397
0.00356861
0.00356731
0.00405471
0.00364259
0.00361757
0.003694
0.00364984
0.00406441
0.00354815
0.0035859
0.00422655
0.00421962
0.00412231
0.00375935
0.0037166
0.00365766
0.00367711
0.00431378
0.00431403
0.00431404
0.00431394
0.00431402
0.00431368
0.00431143
0.00431322
0.00428728
0.00429455
0.00430255
0.0042931
0.00421016
0.004285
0.00427853
0.0042918
0.00428703
0.00420846
0.00426376
0.00425763
0.00427651
0.0042672
0.00428138
0.00416492
0.00418696
0.00412479
0.00415393
0.00427915
0.00404835
0.00405903
0.00428619
0.00431252
0.00431109
0.00431378
0.00431293
0.00429173
0.00430162
0.00429845
0.00430993
0.004303
0.0043132
0.00431402
0.00431388
0.00431264
0.00431156
0.00431332
0.00431215
0.00431389
0.00431243
0.00431362
0.0043139
0.00431268
0.0043135
0.00431403
0.00431379
0.0043134
0.00415571
0.00416905
0.00430484
0.004047
0.00399213
0.00419222
0.00405883
0.00391358
0.0038645
0.00397534
0.00393472
0.00429947
0.00414248
0.0041523
0.00425706
0.00424274
0.00429678
0.00426917
0.00422533
0.00420884
0.00424016
0.00422957
0.00431095
0.00427544
0.00428056
0.00430158
0.00430638
0.00431371
0.00431377
0.00431028
0.00430969
0.00431365
0.0043137
0.00409649
0.00409316
0.0042956
0.00379615
0.00379448
0.0036062
0.00377274
0.00377332
0.00383399
0.0037899
0.00377596
0.00408028
0.00409867
0.00429473
0.00378687
0.00373778
0.00385259
0.00380211
0.00364713
0.00359846
0.00371903
0.00366918
0.00429321
0.00405156
0.00407303
0.0042771
0.00427454
0.00431365
0.00431363
0.00430823
0.00430873
0.0043137
0.00431366
0.00431357
0.00431358
0.00430936
0.00430896
0.00431357
0.00431357
0.0033651
0.00341117
0.00410974
0.00414141
0.00406831
0.00409852
0.00335825
0.00362335
0.00418394
0.00413758
0.00415018
0.0041759
0.00358408
0.00393446
0.00395182
0.00387017
0.00392806
0.00339854
0.00402788
0.00405985
0.00396148
0.00401129
0.00339712
0.00426424
0.00426982
0.00431085
0.00424044
0.00425182
0.00425477
0.00423987
0.00425163
0.0043082
0.00425145
0.00425955
0.00393845
0.00350665
0.00349901
0.00360072
0.00351961
0.00395406
0.00356706
0.00377787
0.0034992
0.00380353
0.00422534
0.00429723
0.00429328
0.00430197
0.00429856
0.00422852
0.00417486
0.00418083
0.00380141
0.00382753
0.00369232
0.00373692
0.00417383
0.00415781
0.00431405
0.00431405
0.00431405
0.00431405
0.00431398
0.00431399
0.00431405
0.00431405
0.00431405
0.00431404
0.00431405
0.00431405
0.00431405
0.00431405
0.00431405
0.00431405
0.00431404
0.00431352
0.00431134
0.00430687
0.00430627
0.00428322
0.00429687
0.00431398
0.00431398
0.00431004
0.00427248
0.00426971
0.00429121
0.00428283
0.00428739
0.00431234
0.00431401
0.00431405
0.00431405
0.00430717
0.00430921
0.00431359
0.00431398
0.00431385
0.00431404
0.00431292
0.00429663
0.00430623
0.00429936
0.00430565
0.00430498
0.00431082
0.00431197
0.00431198
0.00430961
0.00431385
0.00431388
0.0043128
0.00430912
0.00431397
0.00431398
0.00411507
0.00409554
0.00429833
0.00428919
0.00427618
0.00427508
0.00428046
0.00430854
0.00431195
0.00431194
0.0043095
0.00431194
0.00431196
0.00431193
0.00431192
0.00430873
0.00429143
0.00414549
0.00412503
0.00431014
0.0043136
0.00431358
0.00431356
0.00431404
0.00431403
0.00355655
0.00355626
0.00422358
0.0042122
0.00431111
0.00355924
0.00355756
0.00430033
0.00430249
0.00431371
0.00431397
0.00431391
0.00333184
0.0033583
0.00336595
0.00347124
0.00350536
0.00334323
0.0033504
0.00350775
0.00347939
0.00366644
0.00416808
0.00416137
0.00420709
0.00379223
0.00376654
0.00412796
0.00431405
0.00431405
0.00431405
0.00431376
0.00431389
0.00431399
0.00431402
0.00431352
0.00431363
0.00431405
0.00431405
0.00431404
0.00430976
0.00430947
0.00431174
0.00431304
0.004312
0.00431146
0.00428926
0.0042927
0.00427946
0.00428155
0.00430128
0.00429651
0.00427055
0.00427524
0.00421743
0.00421829
0.00424366
0.00424018
0.00420108
0.00422048
0.00422302
0.00431247
0.0042892
0.00429418
0.00429314
0.00427519
0.00430023
0.0042973
0.00431183
0.00431067
0.0043056
0.00422404
0.00421266
0.00428983
0.00426864
0.00423863
0.00431404
0.00431403
0.00431358
0.00431341
0.0043122
0.00431281
0.00430542
0.00431292
0.00431333
0.00428222
0.00429105
0.00431277
0.00419789
0.00418429
0.00430315
0.0043052
0.00431398
0.004314
0.00431369
0.00431285
0.00431391
0.00431394
0.00429796
0.00409348
0.00409481
0.00427064
0.00427284
0.00431191
0.00431191
0.00430926
0.00430908
0.0043119
0.00431191
0.00336194
0.00348594
0.00372915
0.00374624
0.00355692
0.00356994
0.00332845
0.00416029
0.00414935
0.0042923
0.00339413
0.00337529
0.0034925
0.00349462
0.00337143
0.00354353
0.00354967
0.00336024
0.00336408
0.00431365
0.00431363
0.00431026
0.00431152
0.0043137
0.00431368
0.00380593
0.00417229
0.00418319
0.00414924
0.00416077
0.00377707
0.00425873
0.00429981
0.0043029
0.00430227
0.00430111
0.00426243
0.00421411
0.00425289
0.00424816
0.0041798
0.00417057
0.00419175
0.00359774
0.00361206
0.00361924
0.00356796
0.00416019
0.00384408
0.00380548
0.00387625
0.00385317
0.00412299
0.00402755
0.00403121
0.00419285
0.00421139
0.00429172
0.00431403
0.00431403
0.00431399
0.00356891
0.00357701
0.00379956
0.00379823
0.00334731
0.00363686
0.00360231
0.00360139
0.00359197
0.00359833
0.00364799
0.00313163
0.00416299
0.00417288
0.00431405
0.00431405
0.00431405
0.00430801
0.00430745
0.00431136
0.00430925
0.00431113
0.00431239
0.00431055
0.00431089
0.00428505
0.00429611
0.00425854
0.00426186
0.00426202
0.00425839
0.00429164
0.00426772
0.00426655
0.00409668
0.00403567
0.00403482
0.00404653
0.0040441
0.00408638
0.00431159
0.00431297
0.00431302
0.00431279
0.00431292
0.00431125
0.00430009
0.00430971
0.00430423
0.00430233
0.00430964
0.00431199
0.00431201
0.00427593
0.00427679
0.00428704
0.00427764
0.00431197
0.00431196
0.0043084
0.00431193
0.00431194
0.00430946
0.00430883
0.00431191
0.00431191
0.00426046
0.00427169
0.00426709
0.00427555
0.00427409
0.00425938
0.00355719
0.00356119
0.00356526
0.00356162
0.00375104
0.00364263
0.00363835
0.00404576
0.00404594
0.00413886
0.00406581
0.00408058
0.00403896
0.0040504
0.0041263
0.00431401
0.00431399
0.00431402
0.00431397
0.00431403
0.00431404
0.00431405
0.00431402
0.00431403
0.00431401
0.00408603
0.00418034
0.00417484
0.00419572
0.00418774
0.0040921
0.0041275
0.00415439
0.00414311
0.00417043
0.00416469
0.00411802
0.00431402
0.00431404
0.00431403
0.00431353
0.00431311
0.00431396
0.00431388
0.00333329
0.00344804
0.00337054
0.00336604
0.0035685
0.00356792
0.00373791
0.00375207
0.00362803
0.00334715
0.00333887
0.00352168
0.003428
0.00343307
0.00341642
0.00362851
0.00343167
0.00338415
0.00417378
0.00418405
0.00423262
0.004146
0.00414895
0.00413819
0.00414031
0.00421289
0.0041586
0.00416296
0.00366146
0.0035766
0.00358452
0.00356887
0.00356997
0.00366715
0.00431393
0.00431396
0.00431385
0.0043134
0.00431369
0.00431389
0.00430721
0.00431153
0.00430905
0.00430855
0.00430968
0.00431014
0.00430864
0.0043092
0.00428815
0.00429353
0.00426583
0.00426684
0.00426317
0.00426455
0.004302
0.00428267
0.00428345
0.00426617
0.00426758
0.00429455
0.00426674
0.00422697
0.00421994
0.00420453
0.00423725
0.00423348
0.00426122
0.00422628
0.00422536
0.00423732
0.00423098
0.00425943
0.00427411
0.00424303
0.00424673
0.00422946
0.00423655
0.00427091
0.00422371
0.00413442
0.00420835
0.00420276
0.00404147
0.00404698
0.00428347
0.00430269
0.00430147
0.0042807
0.00429644
0.00430749
0.00430462
0.00424267
0.00423284
0.00427895
0.00428114
0.00429959
0.00426353
0.00425325
0.00430891
0.00431047
0.00431305
0.00431143
0.00430694
0.0043005
0.00430654
0.00431313
0.0043136
0.0043137
0.00431313
0.00431333
0.00431233
0.00431113
0.00431212
0.0043137
0.0043133
0.00431314
0.00431373
0.0043134
0.00431379
0.00431288
0.00431292
0.00431235
0.00431304
0.00403246
0.00401113
0.00415434
0.00398835
0.00400722
0.00394874
0.00406932
0.00389495
0.00387863
0.00396067
0.00394813
0.00424978
0.00418273
0.00419837
0.00415135
0.00416653
0.00424565
0.00429359
0.00426791
0.00427528
0.00420753
0.00425047
0.00428591
0.00417161
0.00414686
0.004221
0.00405385
0.00406899
0.00402795
0.00404069
0.00421615
0.00423749
0.0041257
0.00413775
0.004086
0.00410495
0.00423371
0.00430246
0.00430584
0.00380218
0.00362101
0.00364563
0.0035713
0.00359497
0.00379887
0.0036493
0.00365874
0.00365759
0.0037148
0.0037816
0.00344535
0.00346814
0.00348499
0.00344705
0.00380165
0.00378538
0.00353009
0.00354973
0.00349225
0.00351238
0.0037809
0.00377407
0.00375932
0.0038402
0.00381984
0.00362753
0.00360985
0.00370287
0.00368921
0.00427294
0.00427365
0.00430931
0.00431192
0.00431192
0.00431191
0.0043119
0.00430902
0.003369
0.00367037
0.00370504
0.00346096
0.00332876
0.00359374
0.0036298
0.00343444
0.00341366
0.00393962
0.00363308
0.00363552
0.00389971
0.00360323
0.00354674
0.00363574
0.00362778
0.00391791
0.00348121
0.00345681
0.00350696
0.00353199
0.00338714
0.00339575
0.00345359
0.00426673
0.00428874
0.00428699
0.00429131
0.00429007
0.00426828
0.00424431
0.00424967
0.00424942
0.00423951
0.00423938
0.00424358
0.00425104
0.00427895
0.00427696
0.00428455
0.00428166
0.00425446
0.00350161
0.00360037
0.00361522
0.00357627
0.00358821
0.00349957
0.00357193
0.00369234
0.00371856
0.00363564
0.00366269
0.00354366
0.00356111
0.00344193
0.0034515
0.00343562
0.00343774
0.00349831
0.00354169
0.00356225
0.00347398
0.00350745
0.00349154
0.00426004
0.00425696
0.00422126
0.00417386
0.00418765
0.00357242
0.00359187
0.00370993
0.00360056
0.00357911
0.00363241
0.00362153
0.00372569
0.00357028
0.00356888
0.00403262
0.00403566
0.00431405
0.00431405
0.00431405
0.00431405
0.00431405
0.00431405
0.00431405
0.00431405
0.00431405
0.00431405
0.00431405
0.00431405
0.00431405
0.00431405
0.00431405
0.00431405
0.00431405
0.00431405
0.00431405
0.00431405
0.00431405
0.00431405
0.00431405
0.00431405
0.00431405
0.00431405
0.00431405
0.00431405
0.00431405
0.00431405
0.00431405
0.00431405
0.00431405
0.00431405
0.00431405
0.00431405
0.00431405
0.00431405
0.00431405
0.00431405
0.00431405
0.00431405
0.00431405
0.00431405
0.00431405
0.00431405
0.00431405
0.00431405
0.00431405
0.00431405
0.00431405
0.00431405
0.00431405
0.00431405
0.00431405
0.00431405
0.00431405
0.00431405
0.00431405
0.00431405
0.00431405
0.00431405
0.00431405
0.00431405
0.00431405
0.00431405
0.00431405
0.00431405
0.00431405
0.00431405
0.00431405
0.00431405
0.00431405
0.00431405
0.00431405
0.00431405
0.00431405
0.00431405
0.00431405
0.00431405
0.00431405
0.00431405
0.00431405
0.00431405
0.00431405
0.00431404
0.00431404
0.00431405
0.00431405
0.00431405
0.00431405
0.00431405
0.00431405
0.00431405
0.00431405
0.00431405
0.00431405
0.00431405
0.00431405
0.00431405
0.00431404
0.00431404
0.00431405
0.00431405
0.00431405
0.00431405
0.00431405
0.00431405
0.00431405
0.00431405
0.00431405
0.00431405
0.00431404
0.00431404
0.00431405
0.00431405
0.00431405
0.00431405
0.00431405
0.00431405
0.00431405
0.00431405
0.00431405
0.00431405
0.00431405
0.00431405
0.00431405
0.00431405
0.00431405
0.00431405
0.00431405
0.00431405
0.00431405
0.00431405
0.00431405
0.00431405
0.00431331
0.0043133
0.00360386
0.00426465
0.00426886
0.00431405
0.00431405
0.00431405
0.00431405
0.00431405
0.00431405
0.00431405
0.00431405
0.00431405
0.00431405
0.00431405
0.00431405
0.00431404
0.00387852
0.0038674
0.00410104
0.00431405
0.00431405
0.00431405
0.00431405
0.00431405
0.00431405
0.00431405
0.00431405
0.00431405
0.00431405
0.00431405
0.0043125
0.00408386
0.00388175
0.00421338
0.00431398
0.00431405
0.00431405
0.00431405
0.00431405
0.00431405
0.00431405
0.00431405
0.00431405
0.00431405
0.00431405
0.00431405
0.00431405
0.00431405
0.00431404
0.00431404
0.00431405
0.00431405
0.00431404
0.00431403
0.00431405
0.00431405
0.00431405
0.00431404
0.00431404
0.00431405
0.00431405
0.00431403
0.00431404
0.00431403
0.00431403
0.00431405
0.00431404
0.00431404
0.00431405
0.00431405
0.00431404
0.00431405
0.00431404
0.00431404
0.00431405
0.00431405
0.00431405
0.00431405
0.00431405
0.00431405
0.00431405
0.0043133
0.0043136
0.00431405
0.00334644
0.0037502
0.0037544
0.00400314
0.00400419
0.00313797
0.00431405
0.00431405
0.00431405
0.00431405
0.00431405
0.00431405
0.00431405
0.00431405
0.00431404
0.00431405
0.00431405
0.00431405
0.00431405
0.00431405
0.00431405
0.00431405
0.00431405
0.00431405
0.00431405
0.00431405
0.00431405
0.00431405
0.00431405
0.00431405
0.00431405
0.00431405
0.00431405
0.00431405
0.00431405
0.00431405
0.00431404
0.004314
0.00431405
0.00431405
0.00431405
0.00431405
0.00431405
0.00431405
0.00431405
0.00431405
0.00431405
0.00431405
0.00431405
0.00431405
0.00431405
0.00431405
0.00431405
0.00431405
0.00431405
0.00431405
0.00431405
0.00431405
0.00431405
0.00431405
0.00431405
0.00431405
0.00431303
0.00431377
0.00431371
0.00431399
0.00431397
0.00431373
0.00431326
0.00431282
0.00431354
0.00431405
0.00431405
0.00431405
0.00431405
0.00431405
0.00431405
0.00431405
0.00431405
0.00431405
0.00431405
0.00431405
0.00431405
0.00431405
0.00431405
0.00431405
0.00431405
0.00431405
0.00431405
0.00431404
0.00431404
0.00431405
0.00430871
0.00431272
0.00431273
0.00431289
0.00431283
0.00430923
0.00431405
0.00431405
0.00431405
0.00431405
0.00431405
0.00431405
0.00431405
0.00431405
0.00431405
0.00431405
0.00431405
0.00431405
0.00431405
0.00431405
0.00431405
0.00431405
0.00431405
0.00431405
0.00431404
0.00431404
0.00431405
0.00431018
0.00431399
0.00431399
0.00431293
0.00431297
0.00430976
0.00430436
0.00428692
0.00428924
0.00431405
0.00431405
0.00431405
0.00431405
0.00431405
0.00431405
0.00431405
0.00431405
0.00431405
0.00431216
0.00430023
0.00430299
0.00430756
0.00430804
0.00431207
0.00431405
0.00431405
0.00431405
0.00431405
0.00431405
0.00431405
0.00431405
0.00431405
0.00431405
0.00431357
0.00431218
0.00431231
0.004311
0.00431125
0.00431335
0.00431363
0.00431331
0.00431404
0.00364618
0.00430504
0.00430477
0.00412768
0.00413056
0.00347968
0.00431233
0.00431218
0.00387301
0.00431405
0.0043139
0.00431397
0.00431399
0.0043139
0.00431405
0.00431395
0.00431403
0.00431401
0.00431405
0.00431405
0.00431403
0.00431405
0.00431405
0.00431405
0.00431403
0.00431371
0.00431398
0.00431405
0.00431405
0.00431405
0.00431402
0.00431404
0.00431405
0.00431379
0.0043135
0.00431343
0.00431404
0.00431403
0.00431404
0.00431405
0.00431405
0.00431405
0.00431405
0.00431405
0.00431405
0.00431403
0.00431403
0.00431399
0.00431011
0.00431305
0.00431297
0.00431363
0.00431354
0.00431208
0.00431405
0.00431404
0.00431404
0.00430808
0.00429971
0.00430197
0.00427401
0.00427505
0.0042976
0.00430342
0.00430443
0.00430987
0.00431404
0.00431404
0.00431405
0.00431245
0.00431326
0.00431334
0.00431374
0.00431401
0.00431402
0.00431339
0.00431342
0.00431272
0.00431405
0.00431405
0.00431404
0.00430935
0.00431287
0.0043129
0.00431274
0.00431275
0.00430886
0.00431405
0.00431404
0.00431404
0.00429433
0.0042668
0.00426569
0.00427839
0.0042773
0.00429916
0.00429603
0.00427208
0.00427303
0.00426491
0.00426443
0.00429333
0.00431403
0.00431403
0.00431405
0.00431261
0.00431255