/*--------------------------------*- C++ -*----------------------------------*\
| =========                 |                                                 |
| \\      /  F ield         | OpenFOAM: The Open Source CFD Toolbox           |
|  \\    /   O peration     | Version:  5.x                                   |
|   \\  /    A nd           | Web:      www.OpenFOAM.org                      |
|    \\/     M anipulation  |                                                 |
\*---------------------------------------------------------------------------*/
FoamFile
{
    version     2.0;
    format      ascii;
    class       volScalarField;
    location    "500";
    object      p;
}
// * * * * * * * * * * * * * * * * * * * * * * * * * * * * * * * * * * * * * //

dimensions      [0 2 -2 0 0 0 0];

internalField   nonuniform List<scalar> 
6584
(
31.7617
30.6015
29.5788
28.9584
28.6835
28.8653
29.4797
30.5514
31.7439
32.8265
32.8165
30.6661
25.5974
17.7972
8.37515
-1.32406
-10.2479
-18.0994
-24.7248
-30.2617
-34.8482
-38.7226
-41.8796
-44.763
31.5288
30.4311
29.3596
28.7245
28.4111
28.5906
29.2356
30.4674
31.914
33.4318
33.8753
32.042
26.8835
18.5974
8.60641
-1.69457
-10.89
-18.8382
-25.4178
-30.8647
-35.3372
-39.1432
-42.1943
-45.1458
31.0259
29.9361
28.7699
28.061
27.6464
27.7939
28.5179
30.1988
32.2283
34.5435
37.3543
37.5142
33.1561
23.9816
12.1553
-3.00639
-12.8564
-20.9805
-27.3871
-32.5305
-36.6841
-40.2475
-43.0696
-45.9642
30.3681
29.2127
27.9038
27.04
26.4319
26.426
27.1752
29.291
32.8422
36.8393
42.7817
46.2606
42.4556
29.8943
13.7792
-0.988274
-16.2256
-24.5195
-30.4914
-35.0537
-38.6808
-41.8218
-44.3139
-47.0071
29.6112
28.3196
26.8134
25.6814
24.7376
24.3246
24.7913
26.922
30.6086
38.3851
49.195
59.7354
57.7133
37.7219
13.2476
-5.69987
-18.3513
-29.9895
-34.9755
-38.4045
-41.2334
-43.7399
-45.8027
-48.1591
28.8055
27.3101
25.5523
24.0175
22.5468
21.2488
20.8949
21.884
26.5129
35.2373
52.0116
82.1328
93.1516
54.8919
7.39098
-16.3118
-28.2215
-37.2193
-40.5907
-42.4225
-44.1939
-45.8651
-47.4124
-49.3081
28.0217
26.2712
24.2315
22.1934
20.0607
17.5751
15.8364
15.5172
16.1645
21.9617
43.607
101.227
184.099
59.0837
-8.07286
-36.9037
-42.6122
-46.5027
-47.0902
-46.8341
-47.3055
-47.9861
-48.9685
-50.3117
27.3379
25.3142
23.0054
20.4417
17.5954
13.8046
10.0558
7.53452
1.60956
-4.28271
-1.531
28.9579
-25.0889
-65.5676
-68.9804
-61.4621
-56.7106
-53.7064
-51.1123
-50.1781
-49.8267
-50.2616
-51.0176
26.8233
24.5533
22.0428
19.0463
15.6024
10.7451
5.0709
-0.197656
-13.0262
-34.4155
-66.2791
-147.303
-251.301
-145.961
-103.712
-80.0783
-65.593
-59.0805
-54.4725
-52.3157
-51.0786
-51.0764
-51.2885
26.5233
24.0799
21.4865
18.2693
14.5476
9.28816
2.64183
-4.43628
-20.3954
-48.7854
-96.3841
-205.73
-358.871
-194.839
-123.757
-91.2425
-70.4376
-61.754
-56.1142
-53.2474
-51.4689
-51.2313
-51.0262
26.4463
23.933
21.3971
18.2291
14.6454
9.80789
3.56814
-3.51431
-17.1293
-39.9638
-77.6329
-151.989
-317.107
-186.216
-119.965
-90.5345
-69.616
-60.9301
-55.5909
-52.7113
-50.8509
-50.6299
-50.1945
26.5598
24.0838
21.7247
18.8405
15.742
11.9393
7.20655
1.73613
-5.93529
-15.9843
-29.9646
-45.1884
-191.194
-134.635
-96.7624
-79.1217
-63.5649
-56.8871
-52.9957
-50.7641
-49.258
-49.2925
-48.8327
26.7996
24.4452
22.3278
19.8558
17.4042
14.825
11.9708
8.8144
7.18355
9.01531
15.8675
44.5853
-56.9421
-71.9136
-66.3601
-62.2173
-54.3777
-50.7929
-48.9002
-47.7426
-46.9021
-47.3463
-47.0442
27.0892
24.9034
23.0308
20.9806
19.1439
17.6172
16.3465
16.9933
16.9881
25.6251
39.4255
80.8207
172.781
23.3632
-24.9021
-40.0449
-45.4536
-44.5227
-44.0383
-44.0814
-44.126
-44.0608
-44.9851
-44.967
27.3584
25.3508
23.6785
21.972
20.5833
19.7084
19.3392
20.5412
22.4189
30.3961
42.5331
62.9555
68.2812
31.2906
-5.36633
-22.9402
-31.6163
-35.5988
-37.6751
-39.2254
-40.3575
-41.0191
-42.4119
-42.7435
27.5556
25.709
24.1715
22.6993
21.565
20.9929
20.916
22.3321
24.1182
29.3221
36.9371
42.3404
37.4403
20.233
1.57248
-13.6324
-24.193
-28.9007
-32.3312
-34.8062
-36.7649
-38.0318
-39.8136
-40.51
27.6513
25.9347
24.4666
23.1281
22.0832
21.581
21.394
22.5938
23.9069
25.9306
28.7106
28.6964
26.7697
15.9426
2.42641
-8.91745
-18.4382
-23.8785
-27.9714
-30.9982
-33.5177
-35.2318
-37.3137
-38.3472
27.6352
26.0139
24.5611
23.2768
22.2004
21.6063
21.1151
21.5999
22.1788
23.0455
22.7708
22.7737
16.3521
10.9222
-0.419431
-8.04191
-14.5624
-20.2901
-24.5217
-27.8412
-30.6851
-32.7098
-34.9912
-36.3175
27.5108
25.9528
24.4768
23.1937
22.0161
21.2565
20.4145
20.3014
19.6782
20.1082
16.0896
17.969
12.9854
3.56046
-0.0985691
-7.4473
-12.754
-17.9206
-21.9238
-25.3087
-28.2833
-30.5044
-32.8972
-34.464
27.2903
25.7701
24.2482
22.9381
21.6315
20.7055
19.5288
19.0568
17.607
17.7215
14.1994
14.1798
10.1137
3.05336
-0.510455
-7.07771
-11.4754
-16.221
-19.9445
-23.2868
-26.2708
-28.6067
-31.0451
-32.8022
26.9902
25.4891
23.9107
22.5625
21.121
20.0538
18.5851
17.8659
15.9273
15.574
12.1828
10.9646
7.43766
2.12178
-1.15633
-6.82518
-10.5561
-14.9639
-18.4061
-21.6646
-24.5899
-26.9887
-29.4267
-31.3304
26.6278
25.1333
23.4955
22.1078
20.5377
19.356
17.6489
16.731
14.4923
13.7535
10.4579
8.85582
5.64198
1.18019
-1.75865
-6.70025
-9.95193
-14.0386
-17.2072
-20.3615
-23.189
-25.6167
-28.0241
-30.0383
26.2198
24.7243
23.0295
21.6061
19.9209
18.6497
16.7597
15.6881
13.2794
12.2785
9.12668
7.32646
4.35255
0.46117
-2.25086
-6.64124
-9.54622
-13.3434
-16.2666
-19.3107
-22.0213
-24.4561
-26.8144
-28.91
25.7811
24.2807
22.5342
21.0814
19.2983
17.9592
15.9355
14.7478
12.254
11.0645
8.05303
6.13339
3.34869
-0.116798
-2.6607
-6.61406
-9.26196
-12.8067
-15.5193
-18.456
-21.0452
-23.4737
-25.7731
-27.9269
25.3247
23.8179
22.0265
20.5508
18.6876
17.2981
15.181
13.9047
11.3785
10.0508
7.17264
5.19522
2.55542
-0.59239
-3.00349
-6.60429
-9.05783
-12.3835
-14.9178
-17.7537
-20.2248
-22.6389
-24.8755
-27.0698
24.8614
23.3483
21.5191
20.0263
18.0999
16.6736
14.4946
13.1508
10.6259
9.19793
6.43821
4.44155
1.92065
-0.979239
-3.2871
-6.60292
-8.90768
-12.0435
-14.4281
-17.1704
-19.5307
-21.925
-24.0992
-26.3197
24.4
22.8811
21.0211
19.5164
17.5415
16.0887
13.872
12.477
9.9746
8.47705
5.82059
3.8298
1.4166
-1.29662
-3.52251
-6.60653
-8.79488
-11.7653
-14.0238
-16.6803
-18.939
-21.3105
-23.4246
-25.6594
23.9475
22.4237
20.539
19.026
17.0155
15.5435
13.3078
11.8744
9.40563
7.86168
5.29965
3.32871
1.00204
-1.56949
-3.7169
-6.60821
-8.70253
-11.5292
-13.6816
-16.2602
-18.4276
-20.7741
-22.8321
-25.0717
23.5097
21.9813
20.0772
18.5581
16.5228
15.0367
12.7959
11.3341
8.90414
7.32931
4.85275
2.90598
0.654371
-1.79697
-3.87666
-6.60747
-8.62392
-11.3247
-13.3867
-15.8935
-17.9791
-20.2986
-22.3048
-24.5416
23.091
21.5576
19.6386
18.1142
16.0627
14.5655
12.3293
10.8462
8.45944
6.86428
4.46493
2.54454
0.359223
-1.98822
-4.00892
-6.60343
-8.55396
-11.1431
-13.1275
-15.5668
-17.5792
-19.8692
-21.8276
-24.055
22.6949
21.1548
19.2246
17.6941
15.6336
14.127
11.9015
10.4013
8.06051
6.45251
4.12381
2.23083
0.105222
-2.15115
-4.11915
-6.59517
-8.48887
-10.9772
-12.8943
-15.2691
-17.2161
-19.4734
-21.3881
-23.5989
22.3248
20.7744
18.8366
17.2967
15.2339
13.7163
11.5087
9.99312
7.6999
6.08276
3.8196
1.95345
-0.117691
-2.29217
-4.2123
-6.58241
-8.42657
-10.8218
-12.6805
-14.9918
-16.8806
-19.1009
-20.9758
-23.1624
21.9823
20.4149
18.4734
16.9179
14.8594
13.3252
11.1453
9.61184
7.37013
5.74393
3.54437
1.70279
-0.316914
-2.41537
-4.29224
-6.56402
-8.36609
-10.6712
-12.4806
-14.7257
-16.5641
-18.7402
-20.5794
-22.7318
21.6749
20.0808
18.141
16.5605
14.5148
12.9562
10.8143
9.25635
7.07215
5.43148
3.29258
1.46698
-0.501279
-2.52429
-4.36283
-6.53991
-8.30906
-10.5239
-12.2951
-14.4693
-16.2672
-18.3905
-20.1999
-22.3066
21.3861
19.7403
17.8156
16.1839
14.1759
12.5648
10.4905
8.88215
6.78389
5.11242
3.05634
1.24429
-0.671604
-2.62093
-4.43225
-6.50178
-8.25583
-10.3596
-12.1123
-14.1915
-15.9655
-18.0108
-19.8009
-21.8347
21.1965
19.5007
17.598
15.9155
13.9518
12.2864
10.2806
8.61916
6.59798
4.87943
2.85156
0.972254
-0.86501
-2.69471
-4.48603
-6.4656
-8.22044
-10.2308
-11.984
-13.9817
-15.751
-17.7274
-19.5129
-21.4803
-131.806
-246.324
-15.3634
-204.66
-384.353
-272.928
-163.575
-355.098
-390.572
-58.5496
-218.249
-340.763
35.7219
-68.1748
-199.298
81.1158
194.105
188.334
31.7374
-51.2743
50.7101
184.594
14.7744
81.1708
-51.8463
-115.491
22.3281
-186.465
88.4252
-227.779
-141.594
-64.9801
-93.6374
-184.644
-129.66
-182.514
-264.419
-220.323
-477.884
-387.722
-353.375
-214.344
-164.813
-86.3144
-150.684
-185.598
-197.942
-276.683
-291.155
-527.361
-535.756
-329.064
-218.078
-222.044
-42.8187
-56.5494
-140.268
-113.501
-137.164
-203.899
-350.318
-448.434
-208.544
-162.848
-208.317
-146.986
-239.444
-72.2739
-87.1982
-144.24
48.8371
-31.8227
69.9778
69.4386
175.908
65.5679
46.6748
35.3185
-211.77
-118.215
-71.9296
-130.649
-228.048
93.7191
-111.662
-380.129
-210.954
-154.56
-201.589
-370.381
-289.894
-268.781
-190.462
-278.667
-300.534
-236.5
-277.831
-529.985
-482.524
-351.062
-467.256
-524.557
-376.774
-463.056
-335.339
-213.027
-270.428
-191.433
-280.466
-218.681
-299.888
-284.88
-453.051
-522.972
-386.725
-520.43
-441.585
-528.039
-524.19
-392.248
-131.186
-60.6574
-212.947
-141.558
-246.187
-343.673
-273.422
-339.874
-245.136
-436.293
-346.598
-291.354
18.7408
65.3676
-51.1246
11.0297
-44.4218
-134.172
-232.55
-145.769
-141.452
113.001
126.337
70.4161
110.228
96.3776
56.1213
-47.9714
-98.3216
82.6652
-72.647
231.358
5.95129
30.0503
-44.3699
-6.99313
8.09922
-51.4455
33.007
-23.7401
20.3179
-26.6174
-69.4487
189.641
-67.7493
70.6394
-173.873
-119.686
-60.4232
-127.366
-99.8168
-100.353
-58.6647
59.3033
82.0367
-52.9307
-14.0879
-31.5146
-84.7649
-122.696
-133.326
-47.6392
84.9416
112.795
-35.9728
39.7883
-5.87363
308.055
197.683
122.874
121.005
196.815
310.021
-110.324
-75.358
-120.224
207.724
-81.858
-35.177
-443.335
-434.508
-542.615
-541.416
-394.63
-402.433
-184.458
-151.811
-192.596
92.2463
40.8109
-25.2151
29.4529
5.6162
-202.864
-182.416
-249.023
-207.995
-252.455
-195.606
-196.285
-78.0847
-32.7309
-95.9871
-191.69
-312.211
-302.866
-292.268
-292.271
-256.928
-258.637
-508.673
-508.014
-503.067
-429.236
-406.283
-449.85
-435.202
-505.229
-425.171
-356.93
-317.417
-397.89
-368.198
-431.378
-255.491
-250.194
-301.089
-298.662
-492.179
-494.966
-492.381
-427.288
-445.266
-396.358
-420.032
-488.495
-536.327
-458.178
-453.102
-449.992
-457.636
-536.797
-105.448
-100.788
-105.696
-147.568
-58.8675
-100.206
-90.73
-183.033
-152.331
-172.698
-292.121
-299.289
-395.508
-359.037
-387.729
-317.778
-348.842
-389.121
30.5382
56.7911
-23.011
-14.9939
-53.2065
23.7908
-9.89574
-14.1274
-8.71089
26.1256
-82.641
-85.2516
-32.6079
-145.943
-91.7935
-95.8815
-90.2207
147.43
164.149
215.817
116.252
141.557
233.329
135.18
96.9113
437.263
36.5273
67.2209
38.14
66.1894
97.5055
68.362
112.716
86.3837
98.2425
284.285
61.5379
15.4901
4.63022
77.507
86.4415
249.023
165.584
161.238
91.2252
102.744
142.507
142.175
217.233
468.289
324.075
220.234
270.268
348.747
478.458
-249.275
-207.505
-225.415
-467.37
-414.748
-409.789
-288.945
-242.532
-235.189
-245.915
-246.347
-290.908
-536.495
-537.706
-369.411
-429.673
118.275
104.718
17.3628
36.7922
79.8397
124.293
101.677
116.179
-1.97488
-54.6757
176.596
-352.533
-382.898
-410.369
-280.631
-231.961
-165.923
-302.495
-249.874
-302.56
-283.181
-240.446
-247.401
-227.636
-240.031
-280.209
-285.798
-308.732
-299.972
-326.985
-325.707
-296.881
-297.254
-290.984
-269.567
-523.622
-493.582
-483.234
-452.63
-444.033
-487.969
-479.222
-517.796
-229.052
-214.899
-247.667
-271.185
-291.064
-309.478
-302.453
-332.032
-328.363
-313.582
-324.85
-291.694
-471.684
-512.612
-509.841
-473
-481.239
-429.3
-434.438
-460.445
-532.396
-494.742
-488.141
-485.954
-491.018
-532.124
-265.563
-275.934
-254.243
-352.701
-339.076
-324.994
-296.454
-274.302
-307.004
-230.388
-263.021
-283.326
40.2015
54.1737
27.9994
77.7766
58.8651
46.7099
161.096
169.401
89.3329
106.08
84.3897
149.086
158.993
138.325
123.939
39.819
327.2
89.524
43.0448
7.615
11.8439
45.2502
2.23534
-0.667378
63.7034
55.8252
268.254
3.51245
25.1611
-83.6073
-75.2028
69.8863
75.1065
69.0017
74.5933
67.5255
86.3586
77.1782
71.7494
-35.4503
-29.4507
-53.8541
-61.4096
96.3586
101.125
89.6058
107.536
123.933
-180.673
-155.324
-77.0492
-235.389
-177.519
-203.929
-463.585
-416.035
-538.647
-541.92
-375.151
-423.533
-177.995
-174.13
-194.189
-147.681
-167.618
-169.514
-229.183
-250.459
-200.744
-221.104
71.1274
91.5461
109.968
51.9568
83.045
64.9587
89.5986
55.2908
-227.7
-199.139
-221.213
-161.183
-190.628
-219.415
-247.33
-258.693
-227.288
-243.223
-148.571
-112.73
-151.136
-163.527
-178.421
-354.923
-375.056
-344.952
-355.921
-306.802
-253.53
-347.715
-321.008
-265.227
-302.503
-344.522
-318.518
-312.321
-286.328
-315.861
-322.389
-310.633
-311.761
-331.844
-330.279
-321.756
-328.591
-297.094
-323.808
-319.04
-281.139
-291.903
-262.49
-276.527
-301.932
-307.831
-294.357
-301.265
-268.401
-289.515
-282.642
-523.087
-493.703
-466.804
-454.396
-488.383
-515.687
-478.475
-468.031
-271.616
-285.914
-266.231
-295.762
-281.143
-316.033
-300.897
-257.485
-237.128
-275.703
-262.222
-332.946
-331.769
-301.055
-336.31
-340.005
-332.48
-337.633
-330.52
-317.676
-337.003
-333.309
-295.224
-327.191
-331.534
-476.849
-504.99
-457.514
-467.523
-504.313
-469.117
-440.457
-451.86
-497.346
-493.963
-534.849
-534.14
-494.563
-495.304
-122.998
-122.271
-118.711
-102.371
-141.566
-124.501
-130.632
-76.0158
-74.3041
-60.7969
-96.8989
-79.8788
-82.3718
-208.338
-191.462
-230.452
-214
-168.212
-163.646
-147.063
-186.073
-169.238
-176.108
-303.279
-283.895
-272.697
-285.398
-302.942
-256.66
-277.012
-308.959
-318.289
-331.646
-308.758
42.8336
48.8858
38.8026
65.0644
52.9021
46.661
67.2802
7.20353
33.3738
12.3501
-123.33
-120.257
-140.935
-91.4968
-113.566
-115.35
-115.066
-122.901
173.454
192.395
130.181
144.772
175.971
145.03
0.221584
-41.6253
3.04859
6.2257
48.8085
77.4029
631.114
470.207
396.338
474.662
529.442
649.395
67.9809
158.215
99.5604
-178.656
-203.213
-243.23
-473.67
-476.217
-481.223
-533.491
-535.766
-179.741
-157.596
-176.237
-450.254
-444.328
-442.834
-247.442
-226.24
-220.036
-180.005
-139.004
-171.736
-252.71
-238.738
-218.24
-241.672
-288.552
-253.675
-243.261
-268.601
-256.634
-525.944
-487.581
-492.249
-486.968
-508.458
-505.776
-521.566
-435.79
-427.084
-451.329
-239.319
-207.224
-188.306
-231.124
-248.003
-232.495
-458.371
-456.44
-452.694
-520.123
-517.216
-499.288
-502.598
-529.628
-512.948
-511.018
-506.215
-509.549
-528.214
-201.941
-210.751
-225.704
-418.966
-405.464
-417.692
-194.786
-185.736
-219.069
168.698
169.425
132.786
113.513
93.9935
168.797
169.103
90.9865
118.883
80.513
-61.1843
-40.4139
-95.1445
-57.8364
-63.4496
-64.5241
-47.1852
-46.4529
-52.1355
-12.6021
-17.8019
-19.3707
-83.6969
-77.156
-77.6356
121.192
105.761
99.7406
183.505
298.765
242.887
-132.921
-150.707
-130.048
-98.5969
-251.388
-232.168
-51.4517
26.7283
43.3491
-455.521
-457.878
-450.589
-427.294
-441.981
-448.534
-546.512
-541.996
-402.168
-394.946
-387.427
-410.423
-416.583
-410.065
-191.463
-196.823
-150.501
-157.027
-157.541
-202.083
-207.506
-213.242
-218.882
-199.133
-211.619
-240.747
-241.551
-247.731
-184.752
-195.007
-217.092
-270.514
-276.029
-252.468
-255.555
-252.6
-55.3165
-101.509
-132.936
-119.149
-111.448
-122.693
-175.869
-284.186
-273.376
-280.328
-272.007
-245.46
-280.089
-280.926
-512.062
-507.398
-394.908
-382.131
-405.719
-447.685
-417.61
-406.803
-238.034
-252.816
-266.596
-486.52
-496.898
-519.127
-518.954
-536.34
-538.064
-519.365
-519.133
-110.647
-111.385
-110.15
-104.351
-146.641
-141.35
-143.104
-189.267
-205.389
-193.318
-202.44
-197.3
-233.329
-229.093
-157.304
-157.343
-151.92
-192.588
-187.972
-382.595
-393.918
-413.016
-371.354
-359.883
-371.19
-30.5143
-29.5204
-19.5773
-51.0955
-40.0974
-36.104
-62.1482
-66.196
-84.4695
-38.7151
-53.1448
-54.6806
-138.896
-137.052
-143.691
-99.5047
-91.6964
-141.954
194.244
196.835
208.234
141.655
130.278
140.533
126.652
154.713
144.429
135.693
216.362
182.093
116.197
133.068
117.735
204.458
389.612
113.382
80.1381
83.1068
196.498
204.908
232.131
94.2879
94.2287
89.494
103.396
98.6772
98.2449
226.931
191.494
181.019
326.775
474.537
419.429
-471.988
-473.135
-470.381
-417.222
-419.132
-412.778
-431.435
-420.322
-536.794
-535.449
-376.237
-380.244
-360.363
-368.452
-436.088
-436.503
-429.976
111.419
116.801
123.856
105.502
111.181
105.904
-391.508
-389.798
-380.829
-406.194
-398.209
-401.254
-523.345
-490.35
-493.381
-493.776
-519.244
-503.55
-501.431
-465.765
-460.163
-465.283
-519.442
-491.785
-495.886
-514.55
-515.878
-514.221
-530.6
-530.88
-512.274
-514.108
-347.108
-347.742
-353.216
-336.14
-341.667
-342.697
170.992
173.381
160.823
164.472
152.968
159.293
155.368
145.544
137.494
133.397
140.561
144.565
128.803
133.051
128.864
23.8631
1.67405
-9.24428
57.5618
271.021
229.377
302.665
111.632
144.408
193.963
21.9117
20.3814
10.7324
39.3933
30.2765
32.14
-14.8731
-12.5542
-22.3195
1.47655
-6.82349
-6.40797
85.9461
102.317
43.8652
-56.3787
-88.2417
-12.9847
-20.282
-90.1787
-70.2697
-69.1819
-76.3047
71.2048
72.9316
64.0381
66.8087
69.8501
-35.0897
-40.8321
-41.3993
-16.4899
-11.1384
-22.7777
-24.0061
-21.8621
-29.2143
-50.9208
-45.4511
-47.0876
-44.0159
-52.82
-29.7569
-36.8841
-69.7264
-69.3965
-61.0623
112.629
113.796
108.456
125.757
119.543
118.088
-188.57
-159.367
-155.219
-224.043
-232.345
-212.184
-459.453
-457.731
-463.955
-469.646
-439.904
-437.606
-450.938
-443.978
-543.239
-543.908
-394.037
-400.165
-384.29
-388.803
-380.972
-388.773
-383.297
-424.942
-420.375
-417.28
-409.447
-176.029
-185.163
-163.305
-163.567
-170.148
-237.213
-238.591
-229.964
-251.215
-246.473
-244.413
-207.446
-208.507
-202.288
-222.213
-213.731
-213.754
-214.64
61.9461
57.144
47.5196
77.9192
66.3437
-217.773
-227.807
-235.349
-233.883
-223.087
-206.865
-216.826
-264.162
-266.377
-273.326
-269.293
-254.66
-252.726
-261.091
-150.503
-134.321
-145.437
-107.257
-186.57
-175.709
-166.793
-365.017
-347.71
-336.726
-370.585
-360.456
-374.469
-378.43
-366.178
-288.408
-290.753
-309.342
-274.483
-289.621
-272.027
-335.904
-321.996
-328.365
-332.564
-319.797
-323.008
-312.223
-315.638
-315.636
-314.211
-313.328
-330.76
-329.514
-322.954
-325.433
-286.714
-292.236
-286.236
-294.243
-293.493
-289.827
-266.306
-279.393
-276.82
-286.331
-282.655
-270.785
-282.97
-285.132
-303.303
-305.397
-304.305
-311.361
-308.057
-305.379
-297.006
-300.336
-296.952
-305.276
-305.391
-299.987
-516.561
-501.18
-291.514
-293.466
-295.941
-282.107
-288.775
-286.739
-311.417
-298.886
-302.902
-306.124
-251.386
-253.999
-260.806
-240.302
-246.639
-244.327
-270.866
-271.773
-276.246
-264.95
-267.994
-266.416
-336.919
-338.717
-335.433
-338.765
-325.073
-320.763
-334.157
-332.872
-480.985
-500.098
-536.457
-518.763
-517.467
-516.251
-518.136
-536.657
-116.059
-121.741
-116.074
-117.147
-137.715
-135.418
-128.459
-215.287
-208.324
-202.573
-207.979
-214.135
-224.863
-230.05
-234.784
-219.983
-224.891
-219.303
-225.685
-221.971
-169.179
-163.092
-162.539
-183.102
-175.285
-297.236
-292.767
-299.498
-279.008
-286.031
-291.126
-293.398
-298.436
-262.012
-262.654
-256.277
-269.676
-323.157
-321.465
-329.297
-306.069
-313.459
-315.867
45.3295
43.8
47.5989
35.9771
40.1074
42.2933
63.0742
58.8523
61.3395
51.5616
55.5619
57.2782
62.1922
4.81056
10.0321
-5.88708
-0.325551
28.1458
26.317
30.9881
15.5768
22.8479
21.7978
-122.171
-130.003
-131.43
-107.245
-131.363
177.585
183.436
135.738
142.667
132.843
150.911
145.864
139.981
150.405
156.971
165.803
152.759
52.1157
68.9839
54.9125
75.7481
84.4632
61.1802
82.4599
62.082
49.5459
51.3773
25.8637
25.3686
29.8954
40.3285
43.2776
48.5784
84.6988
73.5601
104.027
166.513
95.1987
165.823
86.8912
67.61
61.6111
11.2008
21.2826
-0.278689
-15.9767
-6.27802
10.415
9.91873
35.6066
13.6319
40.615
84.2065
99.3747
163.114
142.065
267.249
188.216
150.296
58.0044
24.6918
36.3136
-47.1955
-47.6111
-29.1505
-20.1817
-42.7391
-2.30925
-18.3676
-22.1531
-0.364288
4.54192
7.98759
37.6421
-113.596
-104.977
-51.2971
-127.172
-95.7435
-70.6458
-44.4428
-77.4324
-54.3178
-78.4174
-97.7224
-83.0566
-161.007
-181.207
-166.609
-308.216
-242.282
-195.993
-188.228
-137.257
-119.146
-47.0745
-72.5299
-79.7635
-96.0736
-117.004
-118.245
-205.172
-228.195
-228.758
-360.109
-288.347
-280.809
-193.92
-148.959
-147.551
-28.9741
-37.4585
-65.5384
-67.1923
-78.6699
-92.0294
-139.768
-151.74
-165.923
-274.766
-233.232
-260.444
-150.032
-127.702
-141.801
-2.82658
3.36987
-26.837
-32.0131
-31.6803
-46.3656
-138.432
-129.545
-170.03
-87.0444
-88.2859
-109.019
18.4773
30.2925
11.844
-15.3254
-37.9254
-60.5167
-34.0322
-49.4402
-67.8163
29.0489
35.7616
32.4002
43.9152
62.6078
69.9208
78.0383
95.6469
112.929
125.439
129.101
135.396
32.9291
1.18247
-16.8125
-12.3335
-22.8434
-34.4571
30.3738
35.6474
36.5382
40.3093
45.2694
57.8362
46.6663
46.7398
73.2926
44.0202
31.5791
42.3953
25.3426
10.1511
3.35501
-0.190293
-10.193
-15.3137
32.5238
35.3357
40.0507
32.0574
36.5408
40.3668
31.7981
21.6926
28.3633
18.5415
9.72161
11.0505
-149.615
-129.809
-113.94
-216.082
-240.749
-288.321
0.482712
-37.5772
-48.8081
-227.35
-224.039
-201.549
-375.597
-416.24
-431.392
-302.118
-340.348
-296.377
-179.436
-191.921
-174.04
-367.783
-407.227
-384.273
-434.407
-440.542
-394.113
-61.0112
-75.6962
-72.1954
-236.335
-256.418
-226.831
-375.307
-348.506
-325.19
-85.919
-83.19
-64.1659
-207.932
-186.125
-179.766
114.42
104.665
70.2919
216.308
197.528
180.689
178.27
175.58
213.072
-45.6758
-27.4086
-34.9289
107.436
164.635
93.0318
742.193
640.416
650.287
157.084
191.257
266.137
745.288
776.699
37.7941
61.1681
35.4272
132.668
155.587
76.6429
-65.0352
-44.3076
-35.4762
-61.4423
-52.1394
-78.6336
4.84436
-23.3875
-40.9832
-153.148
-165.778
-223.656
111.613
66.0271
50.1681
-181.051
-123.359
-143.796
-116.21
-122.947
-155.09
-59.461
-90.2524
-90.4175
-115.456
-108.563
-87.5052
-170.539
-132.429
-140.543
-101.276
-119.317
-163.221
-203.909
-193.542
-172.547
-259.764
-246.087
-250.999
-205.868
-214.166
-227.274
-397.446
-406.702
-395.299
-279.177
-250.856
-322.738
-201.802
-230.348
-245.339
-184.512
-209.936
-185.31
-103.336
-111.854
-92.5238
-174.393
-135.051
-124.061
-143.648
-141.767
-180.033
-220.125
-225.312
-202.411
-281.857
-264.099
-259.672
-274.192
-274.514
-291.908
-270.775
-283.21
-355.355
-223.781
-255.008
-246.989
-254.459
-257.691
-225.368
-48.418
-63.9066
-55.372
-93.7115
-74.1897
-54.9991
-109.621
-92.6872
-106.098
-121.835
-136.965
-126.808
-166.45
-148.673
-124.71
-196.063
-187.458
-195.489
-357.138
-365.249
-356.925
-184.095
-220.056
-258.935
-180.09
-198.712
-177.47
-234.298
-217.945
-195.565
-159.906
-166.736
-146.836
-242.547
-235.95
-233.244
-86.1686
-109.831
-121.549
-105.821
-109.753
-87.592
-154.959
-131.851
-125.017
38.9909
47.9463
58.4702
-28.4659
-15.0596
-19.159
75.6179
89.7636
75.3427
102.952
94.2112
77.8236
153.017
133.715
129.362
69.0425
80.6702
100.232
47.691
70.9692
58.0249
81.2195
74.2859
45.2567
-202.256
-187.087
-196.993
-86.0417
-128.583
-167.044
-94.0945
-107.097
-81.2827
-150.611
-180.228
-152.826
62.4879
68.5094
107.504
-127.404
-103.033
-88.8223
-371.619
-381.069
-389.333
-220.458
-237.704
-228.067
-165.122
-202.444
-187.246
-230.703
-216.223
-189.459
-336.022
-320.939
-340.357
-288.11
-272.154
-273.524
-255.241
-259.253
-272.957
-196.983
-219.065
-212.329
-282.001
-288.347
-285.785
-310.063
-309.04
-298.553
-283.66
-281.147
-274.277
-388.384
-410.631
-364.485
-472.301
-465.552
-459.159
-399.048
-368.383
-353.226
-456.705
-450.3
-458.563
-317.13
-350.996
-380.486
-221.988
-212.862
-204.676
-254.347
-248.61
-263.319
-183.525
-203.129
-212.608
-278.388
-287.286
-291.158
-222.153
-227.178
-222.91
-301.803
-311.799
-310.744
-295.068
-298.166
-286.498
-430.23
-414.416
-378.457
-436.02
-438.435
-446.342
-394.707
-440.086
-434.591
-120.853
-122.668
-139.287
-61.3242
-71.2725
-70.3771
-208.322
-211.534
-216.848
-144.832
-161.431
-151.954
-252.323
-255.657
-249.189
-349.113
-342.532
-337.594
-298.74
-267.449
-255.076
-320.507
-312.94
-324.912
-240.232
-252.31
-257.825
-431.019
-426.237
-429.987
-336.856
-348.53
-365.35
-308.64
-338.617
-309.253
26.2219
29.5314
21.8205
69.5533
63.2357
59.1906
-41.5673
-41.0578
-51.2706
13.8033
5.42488
2.93334
-57.1738
-55.4566
-41.9103
-140.162
-120.036
-121.303
-219.905
-216.023
-228.137
-141.258
-174.334
-183.045
-160.504
-164.858
-144.06
123.618
152.205
138.089
150.453
154.57
123.757
77.4422
82.1327
75.6092
84.0637
125.252
128.098
-52.682
-22.2285
-22.0092
-26.3676
-22.1774
-71.6932
51.1675
14.859
0.85808
265.156
208.088
186.067
1.18584
-0.178341
15.3991
-35.8711
-17.4157
-9.43514
-4.3248
-17.6575
-19.261
-16.18
-15.2946
-0.759862
-47.2883
-30.821
-24.6361
24.6682
27.4866
36.4594
-22.5427
-15.109
-15.9865
-4.18185
-19.0749
-4.28903
146.059
159.573
211.35
-104.143
-73.6517
-40.0303
-36.0426
-45.5412
18.4918
-143.405
-70.31
-73.5196
-84.0283
-79.9776
-123.099
-88.4263
-82.4403
-61.978
-115.839
-91.0195
-98.0146
-86.0443
-91.0606
-106.464
62.8647
65.0923
62.0086
83.6433
80.2337
78.2192
-39.4326
-38.1229
-30.371
-123.478
-103.153
-104.141
-96.0374
-97.0255
-130.355
-58.1198
-86.5134
-83.7542
88.924
90.3902
86.8768
115.332
110.707
107.916
-0.562698
-18.4656
-39.2155
17.5448
0.605503
10.2387
-19.7642
-10.4616
4.89215
267.491
316.898
422.439
189.131
278.09
245.183
207.23
278.149
180.628
147.357
182.102
150.684
249.432
293.336
191.497
428.283
334.537
272.74
-73.4976
-144.886
-115.179
86.7663
89.8524
143.012
-65.8722
-31.7066
-43.6235
6.80615
15.8782
-30.3533
-192.79
-173.254
-172.994
-200.028
-202.336
-195.973
84.6135
90.7377
97.3477
44.7242
53.2285
48.7882
-2.58446
-10.3073
-24.4237
18.1816
3.93196
5.1911
-6.72019
-1.67561
11.6197
-209.482
-188.004
-167.635
-207.498
-233.704
-215.669
-179.336
-162.808
-174.472
-61.3524
-83.5887
-98.0361
-62.1317
-73.2323
-43.5332
-325.69
-336.711
-324.628
-289.651
-302.551
-314.724
-300.554
-298.81
-289.637
-294.724
-303.313
-301.755
-264.416
-261.361
-252.38
-262.939
-269.799
-266.93
-487.464
-484.549
-500.274
-422.154
-441.369
-449.063
-425.813
-432.677
-414.478
-445.543
-467.518
-472.443
-455.742
-461.974
-440.869
-508.214
-492.771
-489.877
-414.329
-406.135
-418.464
-344.559
-363.553
-375.919
-336.106
-350.416
-331.607
-388.616
-408.132
-417.322
-387.454
-398.248
-378.948
-437.471
-426.921
-418.872
-260.583
-264.9
-258.482
-246.936
-251.418
-255.793
-312.113
-312.392
-300.394
-298.692
-309.781
-310.9
-475.027
-478.672
-495.778
-433.788
-457.109
-449.465
-470.25
-464.168
-440.026
-404.434
-421.752
-410.908
-441.067
-431.824
-412.57
-483.08
-466.782
-471.079
-457.364
-482.284
-483.565
-476.598
-479.947
-455.839
-453.496
-479.458
-475.476
-483.549
-482.253
-456.258
-102.23
-117.04
-110.548
-64.7521
-64.4666
-58.87
-98.7124
-93.0463
-94.6444
-80.4287
-81.8783
-92.7572
-162.37
-167.116
-183.759
-295.908
-289.653
-286.066
-305.484
-308.896
-302.34
-390.382
-395.8
-401.485
-368.824
-381.597
-371.18
-401.488
-391.753
-378.611
-328.231
-338.298
-327.072
-360.376
-349.424
-338.702
-383.186
-377.54
-382.997
34.8222
36.8538
32.5744
59.1815
56.1526
53.7047
-21.6798
-31.1834
-32.1826
-20.1273
-21.204
-15.8923
-53.5726
-47.824
-47.5114
10.3217
8.72228
17.345
-9.91696
-0.418964
5.5092
-5.4239
-3.33109
-12.4149
-3.33293
-1.74507
-7.18737
27.8862
23.2664
21.6835
-81.8714
-68.7296
-69.7528
-77.7899
-77.4902
-84.6658
-33.4628
-41.4032
-40.2638
-91.596
-99.0351
-99.213
-108.83
-108.09
-95.7157
152.888
166.031
157.193
183.882
169.417
158.117
121.227
124.004
119.608
125.059
139.015
163
103.043
108.999
104.343
61.576
49.3909
55.0151
28.9919
40.2278
58.107
88.5459
77.9508
85.7451
59.605
69.0479
78.1722
106.145
114.304
123.334
91.2706
105.599
97.3798
123.501
109.139
95.5637
42.9234
37.8182
49.0583
12.9435
25.7988
36.5905
15.6942
20.2637
8.31698
224.709
250.357
312.794
169.66
189.884
185.264
172.352
183.498
168.132
147.173
159.499
153.104
166.77
170.507
149.681
295.652
217.256
214.962
428.207
469.088
583.937
323.572
386.497
374.358
336.036
416.897
304.63
302.064
345.749
311.202
400.502
465.364
353.793
597.807
511.229
451.143
-235.092
-240.945
-254.8
-215.337
-227.327
-221.215
-237.353
-232.231
-218.547
-402.321
-415.017
-425.019
-270.709
-267.93
-285.968
-242.065
-255.848
-258.067
-248.41
-252.173
-237.035
-248.047
-261.578
-260.94
-260.2
-260.897
-245.464
-291.809
-273.947
-272.849
-378.044
-372.604
-363.662
24.5411
36.7455
28.684
54.9477
44.9788
31.9303
68.6561
57.1394
67.3992
118.593
127.308
144.446
108.387
117.998
109.995
129.564
119.935
110.386
-9.00527
29.0251
30.2611
33.9062
31.6063
-15.3809
126.028
80.2894
68.0151
-364.541
-373.028
-363.875
-262.985
-240.363
-256.816
-209.454
-224.109
-246.176
-176.942
-201.533
-189.689
-286.603
-303.889
-320.35
-266.653
-286.235
-269.572
-322.9
-303.251
-283.867
-268.227
-270.513
-285.86
-244.658
-257.184
-254.546
-260.416
-258.692
-244.171
-233.609
-245.587
-241.328
-252.201
-248.745
-234.935
-276.742
-262.609
-265.753
-292.817
-290.473
-282.685
-306.303
-298.555
-300.37
-294.483
-296.575
-302.779
-326.215
-314.88
-315.701
-313.545
-314.404
-326.148
-299.058
-308.415
-307.226
-294.845
-290.089
-292.358
-285.844
-287.994
-292.737
-273.276
-279.135
-276.724
-472.828
-468.847
-477.108
-446.106
-458.033
-462.804
-483.89
-498.207
-500.993
-493.259
-496.037
-483.443
-225.987
-238.162
-243.28
-225.71
-231.866
-218.992
-255.644
-242.219
-235.573
-278.417
-282.605
-273.584
-296.661
-289.043
-285.023
-297.363
-293.462
-303.609
-312.858
-312.295
-300.908
-331.824
-318.879
-319.269
-316.694
-317.909
-330.087
-317.334
-303.898
-300.751
-310.158
-307.177
-321.162
-290.536
-301.457
-303.943
-474.869
-490.777
-487.339
-497.282
-494.41
-479.907
-445.128
-439.579
-431.324
-453.163
-445.863
-451.254
-491.485
-506.659
-508.531
-503.048
-505.34
-491.839
-486.816
-503.207
-500.679
-507.426
-505.863
-490.948
-269.306
-262.472
-259.232
-267.982
-264.48
-271.668
-251.269
-257.618
-260.645
-331.33
-335.831
-329.487
-289.331
-301.591
-308.084
-285.315
-292.823
-281.272
-315.686
-304.245
-296.263
-240.238
-246.474
-235.302
-269.597
-257.918
-251.57
-270.569
-264.563
-276.866
43.9439
36.8734
33.3109
44.0012
40.8128
47.8234
25.5459
33.386
40.2856