/*--------------------------------*- C++ -*----------------------------------*\
| =========                 |                                                 |
| \\      /  F ield         | OpenFOAM: The Open Source CFD Toolbox           |
|  \\    /   O peration     | Version:  5.x                                   |
|   \\  /    A nd           | Web:      www.OpenFOAM.org                      |
|    \\/     M anipulation  |                                                 |
\*---------------------------------------------------------------------------*/
FoamFile
{
    version     2.0;
    format      ascii;
    class       volScalarField;
    location    "500";
    object      p_rgh;
}
// * * * * * * * * * * * * * * * * * * * * * * * * * * * * * * * * * * * * * //

dimensions      [0 2 -2 0 0 0 0];

internalField   nonuniform List<scalar> 
6584
(
10.7681
11.4327
12.2355
13.4405
14.991
16.9986
19.4388
22.3362
25.3541
28.2622
30.0777
29.7528
26.5096
20.5349
12.9383
5.06468
-2.03353
-8.05943
-12.8588
-16.5696
-19.3297
-21.3782
-22.7096
-23.7685
10.5335
11.258
12.0106
13.2005
14.7123
16.7184
19.1917
22.2508
25.5231
28.8664
31.1353
31.1275
27.7945
21.334
13.1686
4.69365
-2.67496
-8.79598
-13.5478
-17.1672
-19.813
-21.793
-23.0197
-24.1502
10.0299
10.7593
11.4139
12.5283
13.9386
15.9128
18.4672
21.9791
25.836
29.521
34.1572
36.1425
33.6098
26.2609
16.2603
3.3849
-4.63408
-10.9291
-15.5078
-18.8244
-21.1523
-22.8915
-23.8926
-24.968
9.37171
10.0349
10.5449
11.5016
12.7166
14.5362
17.1156
21.064
26.4462
31.8158
39.5835
44.8877
42.9081
32.1732
17.8902
4.95488
-7.98899
-14.4557
-18.602
-21.3394
-23.143
-24.4631
-25.1362
-26.0107
8.61473
9.14147
9.45366
10.1405
11.0171
12.4276
14.7211
18.679
23.746
33.3578
45.9947
58.3613
58.1647
40.0086
17.3775
0.26482
-10.5592
-19.9157
-23.0782
-24.6843
-25.6926
-26.3802
-26.6245
-27.1625
7.80891
8.13167
8.19212
8.47557
8.82365
9.34605
10.8141
13.1707
19.6267
30.1809
48.5676
80.5279
93.3741
56.9708
11.5419
-10.3335
-20.4203
-27.1384
-28.6878
-28.6993
-28.6519
-28.5049
-28.2339
-28.3114
7.025
7.09257
6.87092
6.65089
6.33647
5.66946
5.75049
6.7982
9.2664
16.8839
40.1256
99.4793
184.207
61.1869
-4.13636
-30.9164
-34.8037
-36.4167
-35.1843
-33.1096
-31.7628
-30.6254
-29.7897
-29.315
6.34113
6.13542
5.6446
4.89887
3.87057
1.89778
-0.0329385
-1.18928
-5.29367
-9.36608
-5.0228
27.1707
-23.0755
-61.623
-62.9892
-53.6501
-46.6233
-41.7997
-37.3873
-34.635
-32.4657
-31.0827
-30.0208
5.82652
5.37443
4.68184
3.50323
1.87733
-1.16201
-5.01828
-8.92342
-19.9315
-39.4998
-69.772
-149.093
-249.283
-142.016
-97.7225
-72.2685
-55.5082
-47.1749
-40.7474
-36.7724
-33.7174
-31.8974
-30.2918
5.52653
4.90105
4.1255
2.72623
0.822459
-2.61911
-7.44749
-13.1618
-27.2992
-53.8681
-99.8757
-207.52
-356.854
-190.896
-117.77
-83.4362
-60.3572
-49.852
-42.3908
-37.7043
-34.1078
-32.0523
-30.0294
5.44956
4.75428
4.03634
2.68622
0.920487
-2.09902
-6.52065
-12.2387
-24.0308
-45.0437
-81.1213
-153.776
-315.093
-182.278
-113.985
-82.7338
-59.5413
-49.0337
-41.8719
-37.17
-33.4898
-31.451
-29.1977
5.56309
4.90512
4.36406
3.29788
2.01741
0.0328372
-2.88129
-6.98642
-12.8343
-21.061
-33.4491
-46.9716
-189.187
-130.706
-90.7893
-71.3285
-53.4975
-44.9975
-39.283
-35.2273
-31.8983
-30.1137
-27.836
5.80294
5.2666
4.96738
4.31346
3.67997
2.91883
1.88374
0.0933077
0.286406
3.9412
12.3867
42.8072
-54.9474
-67.9972
-60.3973
-54.4337
-44.3195
-38.9116
-35.1951
-32.2122
-29.5455
-28.1678
-26.0475
6.09255
5.72488
5.67047
5.43841
5.41984
5.71144
6.26037
8.72992
10.0925
20.5557
35.9544
79.0752
172.808
25.4436
-21.0017
-34.0971
-37.6819
-34.4761
-32.1672
-30.3854
-28.602
-26.7086
-25.8086
-23.9705
6.36178
6.1724
6.31838
6.43006
6.8597
7.80341
9.25549
12.2847
15.5314
25.3473
39.089
61.3372
68.4925
33.3415
-1.25972
-17.0072
-23.4017
-25.5592
-25.8098
-25.5353
-24.8392
-23.6731
-23.2409
-21.7487
6.55902
6.53075
6.81161
7.15791
7.84217
9.08944
10.8363
14.0854
17.2484
24.2824
33.7235
40.7251
37.6537
22.5039
5.67397
-7.7032
-15.9815
-18.8637
-20.469
-21.1164
-21.2493
-20.6901
-20.6467
-19.517
6.65484
6.75671
7.10721
7.58729
8.36134
9.67975
11.3193
14.3531
17.4985
20.8919
25.498
27.3105
27.2113
18.2132
6.52636
-2.99084
-10.2303
-13.8457
-16.1126
-17.312
-18.0047
-17.8925
-18.1471
-17.3546
6.63883
6.83615
7.20216
7.73683
8.48002
9.70847
11.046
13.3636
15.7715
18.4642
19.5587
21.3884
16.7942
13.1921
4.13428
-1.66181
-6.35647
-10.2591
-12.6647
-14.1575
-15.1752
-15.3731
-15.8274
-15.3262
6.51449
6.77541
7.11844
7.65448
8.29693
9.36214
10.3507
12.0682
13.2717
15.5278
13.3353
17.0413
13.8845
6.28628
4.45373
-1.06878
-4.54961
-7.8908
-10.0682
-11.6267
-12.7751
-13.1693
-13.7355
-13.4738
6.2941
6.59301
6.89038
7.39975
7.91353
8.81384
9.46807
10.8249
11.2011
13.1416
11.4457
13.2524
11.0127
5.77858
4.04088
-0.700367
-3.27217
-6.19229
-8.09
-9.60617
-10.7637
-11.273
-11.885
-11.8127
5.9941
6.31236
6.55345
7.02499
7.40423
8.16385
8.52634
9.63484
9.52171
10.9944
9.42918
10.0371
8.33624
4.84641
3.39424
-0.448723
-2.35376
-4.93598
-6.55242
-7.98495
-9.08378
-9.65606
-10.2678
-10.3416
5.63182
5.95692
6.13891
6.57125
6.82203
7.46738
7.59127
8.5005
8.08715
9.17395
7.70424
7.92813
6.54023
3.90435
2.79134
-0.324432
-1.75031
-4.01131
-5.35419
-6.68262
-7.68365
-8.28502
-8.86621
-9.05002
5.22388
5.54823
5.67345
6.07039
6.20629
6.76209
6.70287
7.45833
6.87468
7.69902
6.37298
6.39861
5.25054
3.18496
2.2987
-0.265914
-1.34515
-3.31663
-4.41417
-5.63237
-6.51663
-7.12522
-7.65737
-7.92211
4.78534
5.105
5.17876
5.54643
5.58466
6.07256
5.87948
6.51875
5.84966
6.48515
5.29926
5.20538
4.24645
2.60671
1.88851
-0.239143
-1.06131
-2.7804
-3.66739
-4.77812
-5.54107
-6.14347
-6.61678
-6.93946
4.32904
4.64256
4.67165
5.0166
4.97494
5.41237
5.12558
5.67624
4.97469
5.47175
4.4188
4.26707
3.45298
2.13086
1.54544
-0.229676
-0.857527
-2.3575
-3.06627
-4.07622
-4.72118
-5.30916
-5.71987
-6.08259
3.86584
4.17317
4.16474
4.49293
4.38818
4.78873
4.43982
4.92295
4.22269
4.61925
3.68483
3.51369
2.81841
1.74407
1.26182
-0.228353
-0.707434
-2.0176
-2.57648
-3.49287
-4.02722
-4.59565
-4.94401
-5.33279
3.40453
3.70634
3.66721
3.98361
3.83069
4.20459
3.81793
4.24975
3.57205
3.89943
3.06835
2.90298
2.31527
1.42757
1.02726
-0.231139
-0.593826
-1.73861
-2.17131
-3.00215
-3.43504
-3.9808
-4.26909
-4.6723
2.95219
3.24926
3.18561
3.49388
3.30546
3.66022
3.2543
3.64768
3.00409
3.28553
2.54887
2.40336
1.90219
1.15617
0.834322
-0.231379
-0.500069
-1.50111
-1.82783
-2.58074
-2.92241
-3.44316
-3.67545
-4.08403
2.51447
2.8071
2.72426
3.0266
2.81347
3.15411
2.74292
3.10831
2.50404
2.75459
2.10345
1.98212
1.55601
0.930182
0.676021
-0.2292
-0.420058
-1.29518
-1.5316
-2.21266
-2.47264
-2.96636
-3.14688
-3.55337
2.09584
2.38363
2.28607
2.5833
2.3541
2.68365
2.27734
2.62189
2.06077
2.29102
1.71711
1.62216
1.26234
0.740395
0.545234
-0.223727
-0.348679
-1.1122
-1.271
-1.8846
-2.07146
-2.53572
-2.66853
-3.06613
1.69981
1.98105
1.87249
2.16376
1.92581
2.24634
1.85118
2.17843
1.6633
1.88073
1.37746
1.30993
1.00982
0.578939
0.436457
-0.214012
-0.282153
-0.944941
-1.03636
-1.58562
-1.70705
-2.13865
-2.22778
-2.60947
1.32978
1.6009
1.48478
1.76684
1.52743
1.83786
1.46025
1.77173
1.30416
1.51244
1.07474
1.03403
0.78839
0.439391
0.344786
-0.199815
-0.218413
-0.78809
-0.821186
-1.30694
-1.37021
-1.76484
-1.81414
-2.17227
0.987374
1.24157
1.12199
1.38895
1.15521
1.44947
1.09864
1.39194
0.97583
1.1751
0.800969
0.784855
0.590647
0.317682
0.266295
-0.179951
-0.156503
-0.6361
-0.619908
-1.03951
-1.05234
-1.40284
-1.4165
-1.74106
0.68001
0.90771
0.789893
1.0329
0.81349
1.0831
0.769534
1.03795
0.679314
0.864107
0.550668
0.550518
0.407766
0.210234
0.197182
-0.154379
-0.0980267
-0.487356
-0.43306
-0.781753
-0.754028
-1.05181
-1.03571
-1.31525
0.391283
0.567396
0.464788
0.6577
0.477223
0.694285
0.447525
0.665228
0.39253
0.546512
0.315899
0.329319
0.238924
0.115068
0.129244
-0.114812
-0.0433467
-0.321601
-0.248872
-0.502485
-0.45104
-0.670778
-0.635405
-0.84271
0.201688
0.32793
0.247432
0.390195
0.254864
0.418051
0.239446
0.403761
0.208071
0.315
0.112605
0.0587636
0.046999
0.0427663
0.0769326
-0.0771529
-0.00651454
-0.191421
-0.119127
-0.291334
-0.235148
-0.386007
-0.346083
-0.48761
-133.596
-244.534
-13.5775
-206.45
-382.562
-271.138
-165.363
-353.309
-388.781
-60.3333
-216.467
-338.975
33.9431
-66.4032
-197.517
79.3559
194.016
188.36
33.488
-49.5044
48.9242
184.473
16.5585
82.9223
-55.3393
-117.508
20.3139
-185.527
89.3574
-225.763
-138.103
-61.4902
-97.1295
-186.661
-131.677
-184.305
-265.474
-221.377
-476.912
-386.754
-351.357
-210.855
-161.322
-89.8038
-152.699
-187.615
-199.732
-277.735
-292.209
-526.382
-534.777
-327.05
-214.592
-218.555
-46.3042
-58.5596
-142.282
-115.287
-138.215
-204.951
-349.357
-447.463
-206.537
-159.37
-204.833
-146.051
-238.478
-70.2774
-83.7319
-140.765
49.7607
-30.8933
68.3584
69.3048
175.82
65.6632
48.2657
37.0631
-212.824
-119.268
-73.7195
-131.588
-228.988
92.7848
-112.601
-379.16
-209.987
-152.77
-200.537
-369.356
-290.947
-269.836
-192.253
-279.637
-301.502
-237.44
-278.802
-529.007
-481.548
-349.271
-466.225
-523.526
-375.749
-462.028
-333.548
-214.08
-271.481
-193.222
-281.432
-219.649
-300.856
-285.845
-452.076
-521.995
-384.934
-519.4
-440.556
-527.007
-523.159
-390.458
-132.124
-61.5936
-213.915
-142.496
-245.221
-342.709
-271.637
-338.852
-244.086
-435.266
-345.578
-289.568
17.8071
64.4362
-52.0604
10.0957
-43.4918
-133.238
-231.5
-144.722
-139.674
112.072
125.452
69.485
109.299
97.2757
57.0441
-49.7609
-99.3741
81.6169
-72.1545
231.857
2.46968
28.0451
-46.3795
-8.77438
7.0525
-52.4943
33.5118
-23.2334
22.2936
-23.1669
-65.9859
189.137
-68.2551
71.6854
-172.822
-117.897
-61.4723
-128.417
-101.602
-100.865
-59.1792
58.7932
81.5295
-53.4405
-14.5987
-31.0076
-84.2581
-120.92
-132.28
-46.5973
84.4337
112.287
-34.9316
40.8233
-4.11029
307.991
196.835
121.941
121.935
197.66
310.084
-109.822
-74.4216
-119.668
208.282
-81.3035
-34.2416
-442.373
-433.541
-541.629
-540.43
-393.662
-401.47
-183.522
-151.252
-191.631
92.7512
41.3161
-24.6508
30.0154
6.54312
-203.378
-183.355
-249.599
-208.563
-253.035
-196.545
-196.85
-78.6489
-33.6686
-96.4922
-192.198
-311.245
-301.9
-293.233
-293.237
-257.896
-259.605
-507.714
-507.058
-502.055
-427.841
-404.888
-448.454
-433.806
-504.214
-424.147
-355.535
-316.023
-396.495
-366.804
-430.357
-256.46
-251.163
-302.056
-299.628
-491.224
-494.008
-491.367
-425.894
-443.871
-394.965
-418.638
-487.483
-535.289
-456.782
-451.706
-448.597
-456.24
-535.76
-105.965
-101.725
-106.266
-148.132
-59.4373
-100.771
-91.667
-183.972
-152.9
-173.635
-291.154
-298.323
-394.486
-357.644
-386.336
-316.387
-347.45
-388.096
30.0278
56.2818
-23.9461
-15.561
-53.7734
23.2234
-10.4624
-15.0623
-9.22041
25.6148
-81.7091
-84.6894
-32.0435
-145.388
-91.2342
-94.9491
-89.7229
146.952
163.674
215.697
115.744
141.078
233.434
135.653
97.416
437.521
33.0498
65.1131
36.1353
64.4131
96.4075
67.262
112.806
87.169
99.0779
284.02
60.4938
14.4437
2.84957
77.2323
86.1756
248.927
165.122
160.807
90.9523
102.459
142.94
142.638
217.281
468.217
323.624
219.732
270.765
349.194
478.523
-250.329
-208.899
-226.809
-466.41
-413.936
-408.825
-289.998
-243.926
-236.583
-247.309
-247.741
-291.961
-535.512
-536.722
-368.447
-428.713
118.548
104.988
18.2888
37.3546
80.4288
123.466
100.853
116.04
-2.91202
-55.2401
176.034
-351.569
-382.114
-409.563
-279.579
-230.568
-164.531
-301.101
-248.48
-301.508
-284.234
-241.84
-248.795
-229.03
-241.425
-281.262
-286.764
-309.518
-300.777
-327.774
-326.495
-297.848
-298.061
-291.786
-270.537
-522.651
-492.622
-482.213
-451.434
-442.864
-486.771
-478.025
-516.771
-230.445
-216.292
-248.721
-272.154
-291.863
-310.259
-303.421
-332.823
-329.153
-314.362
-325.634
-292.659
-470.725
-511.642
-508.817
-471.803
-480.041
-428.131
-433.243
-459.425
-531.36
-493.542
-486.942
-484.755
-489.819
-531.089
-264.597
-275.144
-253.446
-351.894
-338.276
-324.027
-295.403
-272.913
-305.613
-229
-261.631
-282.274
39.2687
53.6074
27.4322
77.1838
58.2704
45.7774
160.819
169.128
88.4029
105.487
83.7965
148.8
158.714
138.602
124.209
40.319
327.512
90.0249
43.3324
8.12145
12.1802
45.5763
2.58044
-0.159538
63.199
55.4948
267.925
3.17765
24.6576
-84.1069
-75.7084
69.5915
74.8266
68.4931
74.2588
67.1808
86.0307
76.8478
71.2417
-35.9486
-29.9505
-53.3489
-60.9069
95.8496
100.785
89.2724
107.254
123.661
-180.113
-154.589
-76.3148
-234.652
-176.783
-203.358
-462.629
-415.07
-537.663
-540.936
-374.184
-422.576
-177.416
-173.395
-193.454
-146.946
-166.881
-168.935
-228.453
-249.716
-200.007
-220.374
71.6323
91.8771
110.299
52.2909
83.3735
65.4635
89.8655
55.577
-228.258
-199.876
-221.953
-161.922
-191.366
-219.969
-248.063
-259.435
-228.026
-243.956
-149.139
-113.47
-151.876
-164.039
-178.935
-354.131
-374.276
-343.988
-355.183
-306.066
-252.792
-346.984
-320.271
-264.26
-301.71
-343.733
-319.299
-313.102
-287.294
-316.582
-323.114
-311.386
-312.485
-332.576
-331.013
-322.482
-329.322
-298.061
-324.595
-319.822
-281.87
-292.634
-263.234
-277.264
-302.678
-308.584
-295.091
-302.008
-269.371
-290.315
-283.436
-522.118
-492.751
-465.61
-453.201
-487.369
-514.665
-477.279
-466.836
-272.418
-286.718
-267.2
-296.514
-281.889
-316.754
-301.645
-258.215
-237.857
-276.446
-262.956
-333.736
-332.56
-302.023
-337.045
-340.739
-333.215
-338.369
-331.247
-318.398
-337.736
-334.038
-296.19
-327.976
-332.322
-475.898
-504.024
-456.32
-466.328
-503.291
-468.104
-439.263
-450.666
-496.146
-492.764
-533.813
-533.103
-493.363
-494.104
-123.521
-122.831
-119.448
-103.11
-142.303
-125.237
-131.185
-76.5815
-75.0424
-61.5074
-97.6376
-80.6166
-82.9329
-209.08
-192.196
-231.187
-214.744
-168.795
-164.384
-147.801
-186.804
-169.973
-176.687
-302.477
-283.102
-271.731
-284.66
-302.186
-255.916
-276.28
-308.205
-317.323
-330.852
-307.967
42.3273
48.557
38.4571
64.7214
52.5773
46.1552
66.983
6.6999
33.023
11.8455
-122.764
-119.521
-140.2
-90.7621
-112.83
-114.789
-114.56
-122.387
173.182
192.12
129.907
144.486
176.241
145.308
2.23355
-38.1364
6.52956
7.98653
49.898
78.4756
631.072
469.959
396.073
474.912
529.682
649.428
69.7573
159.295
100.605
-180.049
-204.608
-244.284
-472.701
-475.303
-480.303
-532.51
-534.785
-181.133
-158.988
-177.288
-449.335
-443.414
-441.866
-246.645
-225.45
-219.071
-181.058
-140.397
-173.13
-253.508
-239.532
-219.18
-240.877
-287.759
-252.708
-244.23
-269.396
-257.434
-524.969
-486.657
-491.321
-485.99
-507.371
-504.691
-520.537
-434.621
-425.917
-450.309
-240.372
-208.616
-189.698
-231.914
-248.794
-233.463
-457.395
-455.513
-451.771
-519.148
-516.187
-498.203
-501.512
-528.595
-511.86
-509.93
-505.128
-508.461
-527.181
-202.88
-211.55
-226.498
-417.946
-404.298
-416.524
-193.737
-184.35
-217.682
168.533
169.264
132.195
112.921
93.0638
168.625
168.934
91.5751
119.467
81.4322
-60.6934
-39.9677
-95.6501
-58.2985
-63.9174
-65.0419
-47.69
-46.9025
-52.5913
-13.0583
-18.2572
-19.88
-83.2378
-76.7032
-77.1298
120.86
105.423
99.232
184.425
299.332
243.443
-132.414
-150.157
-129.434
-97.982
-250.763
-231.551
-50.7174
27.4625
43.9076
-454.62
-456.984
-449.632
-426.326
-441.067
-447.621
-545.526
-541.011
-401.253
-394.029
-386.457
-409.465
-415.687
-409.163
-190.847
-196.2
-149.884
-156.406
-156.975
-201.453
-206.871
-212.277
-218.092
-198.339
-212.14
-241.317
-242.175
-248.358
-185.376
-195.63
-217.66
-271.14
-276.662
-253.096
-256.171
-253.178
-56.0262
-102.249
-133.504
-119.654
-111.891
-123.136
-176.373
-283.549
-272.743
-281.119
-272.798
-246.428
-280.726
-281.568
-511.099
-506.445
-393.74
-380.963
-404.695
-446.667
-416.445
-405.637
-239.002
-253.609
-267.395
-485.568
-495.937
-518.036
-517.863
-535.302
-537.026
-518.273
-518.042
-111.169
-111.958
-110.777
-104.977
-147.261
-141.965
-143.663
-190.06
-206.188
-194.257
-203.063
-197.918
-233.969
-229.737
-157.879
-157.97
-152.544
-193.201
-188.582
-381.43
-392.753
-411.999
-370.33
-358.717
-370.024
-31.075
-30.2282
-20.2861
-51.8046
-40.805
-36.6638
-61.5865
-65.4901
-83.7346
-38.0093
-52.4389
-54.1176
-138.337
-136.432
-143.074
-99.0104
-91.2369
-141.434
194.121
196.677
208.071
141.471
129.771
140.192
126.319
154.376
144.088
135.214
216.509
182.251
116.527
133.402
118.239
204.185
389.4
113.099
79.8682
82.8403
196.239
204.674
232.066
94.0022
93.9885
89.2572
103.164
98.4396
97.9575
226.928
191.736
181.281
327.265
474.841
419.743
-471.084
-472.226
-469.417
-416.412
-418.285
-411.92
-430.59
-419.479
-535.812
-534.467
-375.393
-379.394
-359.525
-367.613
-435.124
-435.594
-429.072
111.696
117.027
124.074
105.734
111.413
106.183
-390.717
-388.951
-379.986
-405.336
-397.357
-400.455
-522.372
-489.376
-492.452
-492.852
-518.217
-502.467
-500.348
-464.841
-459.235
-464.31
-518.47
-490.704
-494.803
-513.523
-514.788
-513.132
-529.565
-529.846
-511.185
-513.018
-346.299
-346.886
-352.372
-335.287
-340.811
-341.891
170.835
173.226
160.642
164.296
152.684
159.064
155.136
145.72
137.67
133.671
140.774
144.788
129.015
133.26
129.134
24.3016
2.11514
-8.74601
57.9559
271.342
229.758
303.043
112.018
144.787
194.296
22.2401
20.7679
11.1234
39.7808
30.6618
32.4634
-14.5195
-12.163
-21.9312
1.87294
-6.42452
-6.05557
85.6184
101.928
43.4784
-56.7672
-88.64
-13.3633
-20.6615
-90.6799
-70.7868
-69.6533
-76.7737
70.9146
72.6464
63.6397
66.411
69.5077
-35.5287
-41.2757
-41.8998
-16.899
-11.5439
-23.1843
-24.5107
-22.3056
-29.6518
-50.4761
-44.9978
-46.5798
-43.6098
-52.4133
-29.3641
-36.4844
-69.2234
-68.9506
-60.6207
112.352
113.573
108.229
125.544
119.326
117.814
-187.952
-158.753
-154.667
-223.467
-231.729
-211.563
-458.589
-456.776
-463.06
-468.747
-439.047
-436.755
-450.071
-443.116
-542.254
-542.923
-393.171
-399.296
-383.434
-387.941
-380.003
-387.859
-382.387
-424.042
-419.479
-416.324
-408.581
-175.413
-184.55
-162.732
-162.943
-169.523
-236.48
-237.913
-229.293
-250.523
-245.788
-243.674
-206.709
-207.825
-201.607
-221.545
-213.058
-213.021
-214.006
62.2785
57.5335
47.9092
78.191
66.6229
-218.293
-228.424
-235.969
-234.446
-223.646
-207.485
-217.442
-264.777
-266.998
-274.012
-269.974
-255.399
-253.336
-261.702
-150.961
-134.77
-145.944
-107.66
-187.076
-176.177
-167.259
-364.224
-346.861
-335.876
-369.743
-359.61
-373.685
-377.685
-365.434
-287.673
-290.078
-308.662
-273.801
-288.945
-271.29
-335.178
-321.309
-327.676
-331.835
-320.518
-323.731
-312.972
-316.342
-316.34
-314.909
-314.061
-331.493
-330.247
-323.682
-326.162
-287.442
-292.904
-286.905
-294.917
-294.164
-290.556
-267.05
-280.085
-277.51
-287.008
-283.345
-271.528
-283.614
-285.772
-304.052
-306.094
-304.998
-312.064
-308.757
-306.13
-297.743
-301.019
-297.631
-305.966
-306.077
-300.727
-515.595
-500.229
-292.265
-294.166
-296.643
-282.8
-289.472
-287.488
-312.14
-299.589
-303.599
-306.856
-252.113
-254.669
-261.48
-240.969
-247.306
-245.054
-271.606
-272.459
-276.935
-265.628
-268.676
-267.152
-337.655
-339.452
-336.169
-339.501
-325.798
-321.486
-334.889
-333.603
-480.034
-499.134
-535.42
-517.672
-516.377
-515.161
-517.045
-535.62
-116.584
-122.362
-116.699
-117.718
-138.269
-136.032
-129.075
-215.92
-208.952
-203.313
-208.661
-214.821
-225.605
-230.74
-235.459
-220.673
-225.583
-220.047
-226.327
-222.609
-169.807
-163.722
-163.119
-183.712
-175.901
-296.435
-291.911
-298.643
-278.157
-285.177
-290.328
-292.653
-297.685
-261.278
-261.958
-255.579
-268.947
-322.369
-320.619
-328.448
-305.218
-312.612
-315.081
44.9953
43.4105
47.2132
35.579
39.7135
41.9535
62.7438
58.4612
60.9433
51.1776
55.176
56.9545
61.8983
4.42251
9.64843
-6.28701
-0.719406
27.7916
25.9168
30.5871
15.1947
22.4596
21.4462
-121.549
-129.381
-130.863
-106.746
-130.842
177.433
183.283
135.459
142.448
132.63
150.677
145.632
139.697
150.218
156.787
165.967
152.93
48.9108
66.9241
52.6258
74.145
84.2292
60.7188
82.6824
63.6867
50.9116
53.448
29.0849
28.5785
24.8237
36.395
39.1369
45.1037
82.6085
71.4972
102.402
166.392
94.9645
165.931
88.5235
69.2249
63.7049
14.679
24.7421
3.65532
-10.9048
-1.21264
5.33405
5.97396
31.6687
10.1416
38.6018
82.1049
97.6015
162.039
141.012
267.369
189.056
151.124
60.0071
27.2635
38.8784
-43.2514
-42.5306
-24.074
-25.2662
-46.6867
-6.25551
-21.8603
-25.1914
-3.40164
2.75365
6.42637
36.0819
-111.581
-102.281
-48.6023
-123.227
-90.6623
-65.5645
-49.5265
-81.3789
-58.2652
-81.9101
-100.761
-86.0951
-162.797
-182.771
-168.173
-306.198
-239.585
-193.296
-184.285
-132.178
-114.065
-52.1559
-76.4737
-83.7095
-99.5646
-120.041
-121.283
-206.962
-229.759
-230.322
-358.093
-285.651
-278.113
-189.981
-143.885
-142.474
-34.0524
-41.3987
-69.4813
-70.6798
-81.7032
-95.0637
-141.555
-153.3
-167.484
-272.755
-230.543
-257.752
-146.101
-122.634
-136.729
-7.90185
-0.566681
-30.7762
-33.7957
-33.2366
-47.9225
-136.429
-126.865
-167.346
-83.1246
-83.2277
-103.956
13.4043
26.3591
7.90822
-13.3372
-35.372
-57.9592
-30.1272
-44.3946
-62.7639
23.9881
31.621
28.2465
40.4699
60.5321
67.8291
76.3029
94.5953
111.874
125.469
129.477
135.813
34.9813
4.60927
-13.3671
-8.21926
-17.8172
-29.4198
25.3321
31.5197
32.4069
37.0949
43.1968
55.7614
45.0505
46.4954
73.0456
44.2335
33.1658
43.9856
27.3866
13.3386
6.77744
3.91273
-5.1747
-10.2937
29.3108
33.036
37.7504
30.6713
36.0685
40.1227
32.2399
23.0484
29.949
20.8119
12.9075
14.2361
-151.179
-131.372
-115.731
-214.291
-239.242
-286.813
2.04117
-36.0173
-47.0211
-228.914
-225.603
-203.34
-373.806
-414.732
-429.884
-300.61
-338.84
-294.586
-180.998
-193.483
-175.829
-365.994
-405.719
-382.767
-432.898
-439.034
-392.322
-62.5688
-77.2543
-73.9798
-234.552
-254.916
-225.274
-373.801
-347.001
-323.402
-84.1458
-81.6416
-62.619
-206.376
-184.57
-177.986
113.359
103.568
68.5162
216.244
197.324
180.486
178.423
175.752
213.067
-44.1307
-25.8654
-33.1611
106.389
163.551
91.2552
742.146
640.294
650.148
156.267
190.418
266.011
745.398
776.733
39.5759
62.7216
36.9833
133.73
156.659
78.4153
-68.0738
-47.3461
-38.9691
-63.4591
-54.7237
-81.2182
2.2616
-25.9713
-42.9995
-152.21
-164.984
-222.86
112.431
66.8465
51.1015
-178.354
-120.662
-141.78
-112.719
-119.91
-152.053
-56.4255
-87.216
-86.927
-118.494
-111.601
-90.9977
-172.556
-135.013
-143.127
-103.86
-121.901
-165.238
-205.473
-195.106
-174.338
-260.819
-247.255
-252.167
-207.035
-215.333
-228.328
-396.534
-405.793
-394.333
-276.481
-248.159
-320.721
-198.312
-227.312
-242.302
-181.475
-206.898
-181.819
-106.371
-114.89
-96.014
-176.409
-137.634
-126.642
-146.231
-144.35
-182.049
-221.689
-226.875
-204.201
-282.91
-265.266
-260.838
-275.36
-275.682
-292.961
-268.082
-280.516
-353.339
-220.294
-251.974
-243.957
-251.423
-254.656
-221.88
-51.4492
-66.9388
-58.8586
-95.7235
-76.7681
-57.5764
-112.201
-95.2666
-108.111
-123.395
-138.525
-128.594
-167.502
-150.064
-126.1
-197.228
-188.624
-196.542
-356.178
-364.35
-356.025
-181.41
-217.368
-256.924
-176.61
-195.685
-174.445
-231.267
-214.915
-192.083
-158.97
-165.943
-146.043
-241.638
-235.041
-232.279
-83.6075
-107.266
-119.548
-102.351
-106.736
-84.5786
-151.937
-128.831
-121.545
39.9153
48.7592
59.2823
-27.6485
-14.2429
-18.2304
74.455
88.7128
73.7222
102.815
93.3886
77.0037
152.587
133.288
129.277
69.8264
81.452
100.324
49.2869
71.9834
59.1539
82.2833
75.3092
46.9813
-203.309
-188.254
-198.16
-87.4346
-129.977
-168.098
-95.8846
-108.66
-82.8457
-151.55
-181.024
-153.623
61.5524
67.6878
106.684
-128.229
-103.858
-89.761
-370.652
-380.159
-388.421
-219.548
-236.794
-227.1
-163.56
-200.881
-185.456
-229.65
-215.057
-188.294
-334.854
-319.772
-339.305
-289.163
-273.321
-274.691
-256.409
-260.42
-274.01
-198.774
-220.629
-213.893
-282.97
-289.259
-286.699
-310.972
-309.948
-299.52
-284.575
-282.061
-275.248
-386.876
-409.122
-362.694
-471.271
-464.467
-458.073
-398.024
-367.215
-352.059
-455.621
-449.218
-457.537
-315.339
-349.488
-378.977
-223.041
-214.028
-205.842
-255.514
-249.777
-264.372
-185.314
-204.692
-214.171
-279.354
-288.193
-292.063
-223.062
-228.087
-223.877
-302.77
-312.708
-311.653
-295.973
-299.071
-287.463
-428.722
-412.909
-376.667
-434.936
-437.351
-445.312
-392.916
-438.577
-433.083
-121.79
-123.463
-140.082
-62.1476
-72.096
-71.3136
-209.29
-212.445
-217.758
-145.628
-162.227
-152.892
-251.358
-254.748
-248.28
-348.208
-341.622
-336.628
-297.237
-265.947
-253.291
-319.483
-311.775
-323.746
-239.069
-251.146
-256.774
-429.994
-425.155
-428.904
-335.69
-347.365
-364.328
-306.853
-337.112
-307.749
25.2885
28.7106
20.9994
68.7345
62.4166
58.2588
-42.5028
-41.88
-52.0934
12.982
4.60349
1.9991
-56.2431
-54.6381
-41.0923
-139.369
-119.243
-120.37
-218.855
-214.861
-226.974
-139.874
-172.949
-181.997
-158.725
-163.304
-142.508
122.691
151.616
137.498
149.908
153.988
122.835
76.5115
81.3145
74.7907
84.9803
125.831
128.654
-54.2445
-23.7904
-23.7981
-27.4189
-23.569
-73.0858
49.8345
13.5249
-0.192627
265.594
208.529
186.567
-0.821254
-2.75216
12.8264
-38.4472
-19.9907
-11.4429
-5.87981
-19.2131
-21.0429
-17.2276
-16.6243
-2.08887
-48.6192
-32.1512
-25.684
25.1727
27.9319
36.9056
-22.0941
-14.6583
-15.479
-1.63905
-16.5261
-2.30334
145.554
159.126
210.904
-104.592
-74.0972
-40.5351
-34.9934
-44.1513
19.8794
-142.013
-68.9195
-72.4696
-82.2405
-78.4167
-121.538
-89.4763
-83.8291
-63.3095
-117.229
-92.4085
-99.0648
-87.8292
-92.6193
-108.024
62.3546
64.6386
61.5548
83.1947
79.7859
77.7124
-38.9247
-37.6708
-29.9218
-121.926
-101.603
-102.366
-94.9927
-95.6443
-128.972
-56.7973
-85.1329
-82.7102
88.4155
89.9386
86.4267
114.881
110.257
107.408
0.475965
-17.1467
-37.8947
18.8596
1.92242
11.2764
-17.9986
-8.92052
6.43102
267.059
316.456
422.369
188.211
277.526
244.635
206.642
277.578
179.704
148.285
182.915
151.499
249.984
293.897
192.413
428.346
334.978
273.176
-72.7047
-144.092
-114.242
87.3258
90.557
143.715
-65.2571
-31.091
-43.0683
7.74061
16.6986
-29.5323
-191.997
-172.461
-172.059
-199.063
-201.428
-195.065
85.1186
91.186
97.7958
45.1715
53.676
49.2935
-2.02004
-9.6024
-23.7183
18.885
4.63614
5.75477
-5.79244
-0.859602
12.4349
-210.279
-188.8
-168.574
-208.437
-234.497
-216.465
-179.901
-163.432
-175.095
-61.9753
-84.2119
-98.6004
-63.0699
-74.057
-44.3572
-324.782
-335.804
-323.662
-288.685
-301.643
-313.816
-301.459
-299.715
-290.602
-295.69
-304.22
-302.66
-265.327
-262.271
-253.348
-263.908
-270.711
-267.841
-486.39
-483.476
-499.263
-420.759
-440.088
-447.782
-424.531
-431.395
-413.083
-444.147
-466.236
-471.16
-454.46
-460.692
-439.473
-507.196
-491.694
-488.801
-413.248
-405.053
-417.439
-343.164
-362.272
-374.638
-334.825
-349.135
-330.213
-387.221
-406.851
-416.04
-386.173
-396.967
-377.554
-436.453
-425.842
-417.792
-261.496
-265.813
-259.452
-247.905
-252.329
-256.705
-313.021
-313.3
-301.361
-299.659
-310.688
-311.808
-473.952
-477.596
-494.761
-432.393
-455.827
-448.185
-468.968
-462.886
-438.632
-403.04
-420.471
-409.628
-439.787
-430.544
-411.176
-482.07
-465.71
-470.006
-455.967
-481
-482.281
-475.315
-478.663
-454.443
-452.1
-478.175
-474.194
-482.265
-480.969
-454.863
-103.054
-117.836
-111.485
-65.3234
-65.093
-59.4957
-99.3359
-93.6675
-95.2062
-81.3653
-82.7017
-93.581
-163.307
-167.911
-184.552
-294.998
-288.742
-285.099
-304.52
-307.989
-301.432
-389.303
-394.722
-400.467
-367.432
-380.318
-369.901
-400.208
-390.473
-377.218
-326.84
-337.019
-325.794
-359.097
-348.145
-337.31
-382.161
-376.458
-381.916
34.3131
36.4024
32.1205
58.7292
55.7032
53.1969
-22.5019
-32.0054
-33.1179
-20.6931
-21.8271
-16.5162
-54.1967
-48.4463
-48.0751
9.7575
8.01406
16.6365
-10.6258
-1.12723
4.9455
-6.35843
-4.1527
-13.2369
-3.84
-2.19379
-7.64042
27.4311
22.8129
21.1739
-81.0519
-67.9105
-68.8215
-77.2273
-76.8699
-84.0461
-32.8415
-40.7818
-39.6991
-90.9778
-98.4182
-98.6565
-107.897
-107.269
-94.8959
152.41
165.699
156.857
183.55
169.084
157.639
120.719
123.553
119.158
125.534
139.349
163.33
103.49
109.447
104.847
59.4604
46.8214
52.4494
26.4203
37.6571
56.104
87.4473
76.6264
84.4213
58.2793
67.7229
77.0729
106.464
114.622
123.422
92.0679
106.154
97.9305
124.049
109.709
96.3811
41.8782
36.4911
47.7319
11.6151
24.471
35.545
13.9142
18.7099
6.7626
224.559
250.225
312.722
169.214
189.561
184.946
172.035
183.18
167.698
147.616
159.814
153.4
167.092
170.842
150.134
295.66
217.366
215.092
428.005
468.846
583.899
323.113
386.162
374.031
335.71
416.584
304.165
302.559
346.184
311.639
400.827
465.664
354.246
597.841
511.466
451.342
-236.259
-242.112
-255.854
-216.731
-228.608
-222.496
-238.634
-233.512
-219.942
-401.357
-414.112
-424.115
-271.876
-269.097
-287.02
-243.458
-257.128
-259.348
-249.69
-253.453
-238.429
-249.441
-262.859
-262.22
-261.48
-262.178
-246.858
-292.862
-275.115
-274.016
-377.138
-371.703
-362.7
25.3555
37.5591
29.6092
55.5375
45.6807
32.633
69.3567
57.8407
67.9886
117.767
126.709
143.903
107.792
117.401
109.17
129.423
119.566
110.019
-9.82857
28.2025
29.3248
33.343
30.8982
-16.0898
125.322
79.582
67.4517
-363.637
-372.121
-362.91
-261.818
-239.197
-255.763
-208.061
-222.829
-244.896
-175.664
-200.254
-188.296
-285.209
-302.608
-319.069
-265.373
-284.955
-268.178
-321.848
-302.084
-282.701
-269.394
-271.68
-286.913
-246.053
-258.465
-255.827
-261.696
-259.972
-245.565
-235.003
-246.868
-242.609
-253.482
-250.026
-236.329
-277.795
-263.777
-266.92
-293.725
-291.383
-283.653
-307.097
-299.406
-301.217
-295.342
-297.431
-303.58
-327.005
-315.728
-316.55
-314.392
-315.252
-326.937
-300.025
-309.323
-308.134
-295.65
-290.949
-293.218
-286.701
-288.853
-293.541
-274.246
-280.05
-277.638
-471.748
-467.764
-476.081
-444.909
-456.893
-461.667
-482.692
-497.065
-499.851
-492.119
-494.896
-482.245
-227.38
-239.442
-244.56
-226.989
-233.146
-220.385
-256.698
-243.386
-236.74
-279.329
-283.515
-274.552
-297.454
-289.894
-285.878
-298.206
-294.308
-304.394
-313.767
-313.204
-301.876
-332.615
-319.729
-320.119
-317.544
-318.759
-330.878
-318.115
-304.741
-301.594
-311.003
-308.021
-321.944
-291.501
-302.362
-304.848
-473.672
-489.637
-486.2
-496.14
-493.269
-478.709
-443.991
-438.441
-430.128
-452.137
-444.781
-450.175
-490.286
-505.515
-507.386
-501.905
-504.196
-490.639
-485.617
-502.064
-499.537
-506.281
-504.719
-489.748
-268.398
-261.564
-258.267
-267.192
-263.631
-270.818
-250.416
-256.766
-259.851
-330.363
-334.92
-328.578
-288.167
-300.426
-307.033
-283.925
-291.546
-279.994
-314.408
-302.967
-294.872
-238.849
-245.198
-234.027
-268.32
-256.641
-250.181
-269.517
-263.399
-275.702
43.1237
36.053
32.3778
43.4364