/*--------------------------------*- C++ -*----------------------------------*\
| =========                 |                                                 |
| \\      /  F ield         | OpenFOAM: The Open Source CFD Toolbox           |
|  \\    /   O peration     | Version:  5.x                                   |
|   \\  /    A nd           | Web:      www.OpenFOAM.org                      |
|    \\/     M anipulation  |                                                 |
\*---------------------------------------------------------------------------*/
FoamFile
{
    version     2.0;
    format      ascii;
    class       surfaceScalarField;
    location    "500";
    object      phi;
}
// * * * * * * * * * * * * * * * * * * * * * * * * * * * * * * * * * * * * * //

dimensions      [0 3 -1 0 0 0 0];

internalField   nonuniform List<scalar> 
13181
(
0.000415288
0.412036
0.000410972
0.412519
0.0003718
0.412532
0.000327591
0.412537
0.000250602
0.412592
-7.51343e-05
0.412818
-0.000275312
0.412699
-0.000301847
0.412528
-0.000245144
0.412443
-3.5762e-05
0.41229
0.000348499
0.412117
0.000836819
0.412011
0.00128787
0.412048
0.00155992
0.412229
0.00160414
0.412455
0.00146046
0.412643
0.00119929
0.412763
0.000880909
0.412818
0.000372665
0.413001
-6.31978e-05
0.412951
-0.000624693
0.413054
-0.00085085
0.412719
-0.000892912
0.412557
0.411533
0.000605951
0.411324
0.00165423
0.411471
0.00169229
0.412494
0.0016915
0.412538
0.00144473
0.412839
0.000604372
0.413659
-0.000504955
0.413809
-0.000851992
0.412875
-0.000802324
0.412393
-0.000395407
0.205936
0.205947
0.000381201
0.205668
0.205673
0.00140919
0.205482
0.205501
0.00236196
0.205527
0.205569
0.00293076
0.205804
0.205856
0.00301251
0.206161
0.206212
0.00236778
0.413288
0.00138475
0.413746
0.000408668
0.413794
-0.000617456
0.414027
-0.000972405
0.413306
-0.00099304
0.413075
-0.00103177
0.412757
-3.46376e-05
0.41156
0.411332
-9.85014e-05
0.411251
7.2913e-05
0.4113
0.00100335
0.411563
0.000954452
0.412586
0.00104437
0.412749
0.00114521
0.413558
-0.000295236
0.415249
-0.00124617
0.413826
-0.000687212
0.412703
-0.000868589
0.205805
-0.000556646
0.205445
-0.000161044
0.000383965
-0.000137415
0.205136
0.000483715
-0.000865483
0.205163
0.00122903
-0.0015429
0.205568
0.00177937
-0.00190325
0.20616
0.00190382
0.00182765
0.207465
-0.00144984
-0.00196629
0.207411
0.000120998
0.415452
-0.000441379
0.414356
-0.000371805
0.413957
-0.000425869
0.41336
-0.000484781
0.413134
0.000308827
0.411964
0.00035665
0.411512
0.411424
-0.000339244
0.411358
-0.000427886
0.411388
-0.000398935
0.411534
0.000272995
0.411914
0.000129753
0.412892
0.000210058
0.413477
8.00075e-05
0.415379
-0.000776428
0.414682
-0.00130137
0.207702
-0.00140045
0.206926
0.205598
-0.00115518
-0.205744
0.204851
-0.000635557
-0.205172
0.000956163
0.000148206
0.204025
0.000489804
-0.204663
-0.00121906
0.203947
0.00192564
-0.204654
-0.0024539
0.205375
0.00239336
-0.205314
-0.00162581
0.20753
0.000674095
-0.206579
-4.74698e-05
0.207596
-8.37597e-05
0.0013407
0.207557
-0.00054583
-4.28536e-05
0.207143
0.00106069
0.414636
0.000701025
0.414317
0.000232085
0.413829
0.000760081
0.412606
0.000738625
0.411985
0.00051027
0.41174
0.411585
-0.000400339
0.411473
-0.0005567
0.411545
-0.000740767
0.411718
-0.000757531
0.411931
-0.000383544
0.412518
-0.000439045
0.413533
0.00116981
0.41377
0.00125503
0.206466
0.000753429
0.207378
0.208936
2.0835e-05
0.205957
-0.00116812
-0.205647
0.000858244
0.204826
-0.00157718
-0.20459
0.00134205
0.000916093
0.000214113
-0.203176
0.101011
0.101035
-0.00162949
0.00303716
-0.202976
0.100785
0.100783
-0.00348951
0.00186881
-0.20618
0.103626
0.104175
-0.00234795
0.20753
0.00241314
-0.207596
-0.00204468
0.207931
0.00205852
-0.207945
-0.00197494
0.207601
0.0019315
0.00219566
0.415868
-0.00183983
-0.00158727
0.00132009
0.415193
0.00142317
0.413726
0.00119512
0.412834
0.000840818
0.41234
0.000589673
0.411992
0.411766
-0.000430639
0.411584
-0.000591919
0.411706
-0.000808791
0.411935
-0.00112455
0.412247
-0.00125439
0.412648
-0.00125387
0.413532
-0.000808203
0.414485
-0.00116062
0.206849
-0.00119134
0.207172
0.00055655
-0.208654
0.000925436
0.206248
0.00145209
-0.206381
-0.00131891
-0.10286
-0.000262294
0.103114
8.06287e-06
-0.100484
0.000494871
0.100602
-0.000612455
-0.0997771
-0.000978584
0.0992126
0.00154308
-0.103152
-0.0012408
0.101873
0.00251979
-0.0018381
0.00464511
-0.207831
-0.00200972
0.103325
0.103708
-0.00448191
0.208628
0.00385035
-0.207997
-0.00314431
-0.20806
0.20866
0.00254385
0.002806
0.417475
-0.00230303
-0.00211003
0.00222511
0.415773
0.00173716
0.414214
0.00121356
0.413357
0.000863449
0.41269
0.000602496
0.412253
0.41194
-0.000446875
0.411697
-0.000613716
0.411873
-0.000810291
0.412132
-0.00108604
0.412523
-0.0015007
0.413063
-0.00184705
0.413879
-0.00122998
0.415071
-0.00120232
-0.207208
0.207594
-0.00161606
-0.207191
0.207798
-0.00271335
0.00210654
-0.206705
0.20775
0.00351841
-0.00214634
-0.00241693
-0.102591
0.00219553
0.102637
-0.00224206
-0.0501997
0.000765281
0.0500381
-0.00060375
-0.000520059
-0.0476658
0.0474276
0.000758343
-0.00207852
-0.102686
0.00408628
-0.00145679
0.0504796
0.0516558
-0.00468059
-0.103962
0.104504
0.00413882
-0.00621079
-0.209692
0.210987
0.00491505
-0.00386289
-0.209352
0.210205
0.00300916
0.0032101
0.418856
-0.00227543
-0.00231572
0.00236176
0.416622
0.00157392
0.415002
0.00105938
0.413872
0.000722804
0.413026
0.000493239
0.412482
0.412032
-0.000403215
0.411778
-0.000553789
0.412023
-0.000720371
0.412298
-0.000991695
0.412794
-0.00135289
0.413424
-0.00188689
0.414413
-0.00111824
0.415629
-0.00132694
-0.207988
0.208395
-0.00152567
-0.208578
0.209312
-0.0028071
0.00207265
-0.209185
0.210719
0.00385304
-0.00264345
-0.00274355
-0.104194
0.00383795
0.105067
-0.00471111
-0.0509747
0.00435761
0.0515893
-0.0049722
-0.00645636
-0.0521387
0.0527575
0.00583754
-0.00656434
-0.106557
0.10754
0.00558143
-0.00723288
-0.212691
0.214366
0.00555771
-0.00431183
-0.211226
0.21213
0.00340709
0.00297772
0.420906
-0.00236818
-0.00265967
0.00168467
0.417915
0.00108884
0.415597
0.000702228
0.414258
0.000484479
0.413244
0.000373239
0.412593
0.412083
-0.000350624
0.411839
-0.000422623
0.412095
-0.000532755
0.412408
-0.000661392
0.412923
-0.000840365
0.413603
-0.00108912
0.414662
-0.000884162
0.416062
-0.000638259
-0.208434
0.208727
-0.00117722
-0.210176
0.210682
-0.0022411
0.00173534
-0.212157
0.213104
0.00289664
-0.0020679
-0.00177517
-0.107475
0.00300684
0.10806
-0.00359163
-0.0553458
0.00333537
0.0556871
-0.00367667
-0.0055142
-0.0573223
0.0578207
0.00501575
-0.00504228
-0.110307
0.111122
0.00422669
-0.00495977
-0.21594
0.217131
0.00376878
-0.00286038
-0.212936
0.213541
0.00225483
0.00202791
0.421768
-0.00118699
-0.00170306
0.000941607
0.419001
0.000363478
0.416175
0.000214072
0.414408
0.000143269
0.413315
0.000116748
0.41262
0.412006
-0.000256513
0.411857
-0.000310864
0.41215
-0.000331676
0.412429
-0.000365805
0.412957
-0.000328084
0.413565
-0.000256214
0.41459
-0.000175976
0.415898
8.37836e-05
-0.208979
0.209227
-0.000423463
-0.210932
0.210924
-0.000433403
0.000442188
-0.213526
0.213383
0.000353793
-0.000281018
7.0104e-05
-0.108949
0.000353471
0.108932
-0.000336782
-0.0567824
0.000226461
0.0567641
-0.00020813
-0.00113273
-0.059787
0.059844
0.00107574
-0.00111518
-0.112584
0.11273
0.000968213
-0.000844014
-0.21782
0.217936
0.000728229
-0.000639755
-0.213927
0.214048
0.000517818
0.00038167
0.421605
0.000136461
-0.000355668
0.000506685
0.418876
-0.000204283
0.416886
-0.000387986
0.414591
-0.000240342
0.413167
-0.00014187
0.412521
0.411841
-0.000182141
0.411861
-0.000179437
0.412147
-0.000143411
0.412393
-3.19392e-05
0.412845
0.00010166
0.413431
0.000470297
0.414221
0.000435729
0.415395
0.000537621
-0.209259
0.209203
0.000491928
-0.210677
0.210223
0.00125146
-0.00079744
-0.212738
0.211744
-0.00194463
0.00133794
0.00160024
-0.108056
-0.00201868
0.107556
0.00251896
-0.055471
-0.00240251
0.0551765
0.00269698
0.00308041
-0.0587108
0.0583925
-0.00276214
0.00285376
-0.112091
0.111609
-0.00237146
0.00317177
-0.217508
0.216653
-0.00231611
0.00162103
-0.213861
0.213441
-0.00120082
-0.00124471
0.420604
0.00129847
0.000947556
-0.000541527
0.418173
-0.000129844
0.416475
-0.000973495
0.415435
-0.000682821
0.412876
-0.000418451
0.412257
0.411594
-9.77544e-05
0.41184
-3.17275e-05
0.412081
5.73828e-05
0.412304
0.000223598
0.412679
0.000532865
0.413122
0.00106887
0.413685
0.000792479
0.414805
0.000866588
-0.208909
0.2086
0.00110218
-0.209656
0.209046
0.00216096
-0.00155151
-0.210546
0.209341
-0.00301974
0.00209917
0.00212511
-0.105792
-0.00301628
0.105194
0.00361459
-0.0529098
-0.00317458
0.0525924
0.00349202
0.00498836
-0.055647
0.0552368
-0.00457806
0.00505597
-0.109573
0.108817
-0.00429929
0.00567495
-0.21539
0.213895
-0.00418063
0.00317118
-0.212817
0.212088
-0.00244204
-0.0023301
0.418992
0.00205116
0.00189129
-0.00132667
0.417169
-0.000649287
0.415797
-0.000309452
0.415095
-0.00106686
0.413634
-0.000705759
0.411896
0.411264
-3.65972e-05
0.411809
4.8714e-05
0.411996
0.000158074
0.412195
0.000369963
0.412467
0.000675156
0.412817
0.0012009
0.413159
0.00097166
0.414082
0.000952235
-0.208256
0.207926
0.00130203
-0.208449
0.207929
0.00218879
-0.00166875
-0.208233
0.207344
-0.00286224
0.00193985
0.00181174
-0.103633
-0.00263215
0.10324
0.00302499
-0.0507582
-0.00240899
0.0505904
0.00257678
0.0046393
-0.0523611
0.0519908
-0.004269
0.00504641
-0.1066
0.105958
-0.00440477
0.00592314
-0.212272
0.210931
-0.00458277
0.00359163
-0.211339
0.210619
-0.00287185
-0.00274155
0.417345
0.00218438
0.00220397
-0.00166513
0.416093
-0.000909863
0.415042
-0.00074315
0.414929
-0.00122157
0.414112
-0.000957685
0.411632
0.410875
1.97156e-05
0.41176
8.13132e-05
0.411934
0.000204265
0.412072
0.000371336
0.4123
0.000625402
0.412563
0.000986121
0.412799
0.00142223
0.413646
0.00127685
0.414713
0.000815962
-0.207663
-0.207721
-0.207531
0.207294
0.0015142
-0.206714
0.207221
0.000960225
-0.00146684
-0.102867
0.000202851
0.104099
-0.00143448
-0.0512648
0.00211511
0.0504988
-0.0013492
-0.019582
0.000681608
0.0196706
-0.000770224
0.00167841
-0.050533
0.101658
-0.00348781
0.00144148
-0.0507575
-0.104599
0.00350537
0.1044
-0.00330621
0.00448428
-0.209907
0.209136
-0.00371234
0.00305748
-0.210081
0.209888
-0.00286523
-0.00256976
0.416099
0.00180294
0.00201263
-0.00164285
0.415166
-0.000961372
0.414361
-0.00143876
0.415406
-0.000183023
0.412857
-0.00104748
0.412497
0.410569
5.03246e-06
0.411746
5.02064e-05
0.411889
0.000122085
0.412
0.000218263
0.412204
0.000388524
0.412393
0.000511869
0.412675
6.55928e-05
0.414092
-0.000710117
0.4172
-0.00171083
-0.207829
0.208729
-0.00160987
-0.207864
0.207123
-0.00091263
0.00165387
-0.102818
-0.00025157
0.10271
0.000359608
-0.101523
0.00023674
0.101877
-0.000590531
-0.0449787
0.00189587
0.0926298
-0.0025966
-0.0469504
-0.102986
0.00298755
0.102744
-0.00274527
-0.207584
0.00328012
0.20807
-0.00598466
0.00221844
0.00557992
-0.208714
0.208174
-0.00504027
-0.00629536
0.415692
0.00318957
0.00462667
-0.210576
-0.206637
-0.00501665
0.414821
-0.00404734
0.414197
-0.00316504
0.413478
-0.000664101
0.412905
-0.000183608
0.412376
0.000198752
0.412114
0.411652
-8.04608e-06
0.411752
-1.07073e-05
0.411892
8.23074e-07
0.411988
3.98973e-05
0.412165
5.33772e-05
0.412379
-0.000141242
0.41287
-0.00138994
0.415341
-0.00172274
0.41754
-7.57371e-06
-0.208665
0.207444
-0.00050219
-0.206679
0.206755
1.37372e-05
-8.95834e-05
-0.206055
0.206514
-0.00071108
0.00025242
-0.102653
0.000660333
0.102815
-0.000822648
-0.0940209
0.0013052
0.0945208
-0.00180515
-0.102717
0.00192367
0.206016
-0.00423278
-0.102837
0.00184662
-0.20767
0.0046422
0.207379
-0.00435078
-0.207839
0.00412826
0.207553
-0.00384196
-0.00476055
0.413993
0.00302705
0.00343291
-0.00341027
0.41347
-0.00289847
0.413685
-0.00259365
0.413174
-0.00227582
0.412587
-0.00191458
0.412015
-0.00142733
0.411627
0.411219
-5.85322e-05
0.411802
-6.71764e-05
0.4119
-9.48191e-05
0.412016
-0.000133163
0.412203
-0.000221237
0.412467
-0.000822599
0.413471
-0.00169198
0.41621
-0.000495672
0.416344
-0.000306383
0.414852
-0.207454
-0.207166
-0.00042239
-0.206948
0.207085
-0.000443936
-0.206896
0.207215
-0.000988286
0.000668435
-0.206289
0.00137443
0.206571
-0.0016566
-0.195556
0.00214078
0.196256
-0.00284096
-0.206448
0.00309252
0.206591
-0.00323633
-0.207142
0.00321028
0.207025
-0.00309292
-0.207358
0.00301753
0.207209
-0.00286883
-0.00463816
0.413435
0.0025369
0.00265853
-0.0038734
0.412705
-0.00308492
0.412897
-0.00226867
0.412357
-0.00153902
0.411858
-0.00120778
0.411684
-0.00108185
0.411501
0.411214
-9.55248e-05
0.411874
-0.000154392
0.411959
-0.000239994
0.412102
-0.000324509
0.412288
-0.000586356
0.412729
-0.00167129
0.414556
-0.00174236
0.416281
-0.00089754
0.415499
-0.00125822
0.415213
-0.000911225
0.415213
-0.207251
-0.207303
-0.00100641
-0.207488
0.207727
-0.00114958
-0.206763
0.00148362
0.20668
-0.00140111
-0.196812
0.00185788
0.197445
-0.00249086
-0.20673
0.0022983
0.20686
-0.0024279
-0.0046347
0.413982
-0.207012
-0.207012
0.00226057
0.00241618
-0.00440743
0.413896
-0.20709
-0.207033
-0.00403041
0.413058
-0.00367789
0.412353
-0.00298992
0.412209
-0.00238492
0.411752
-0.00187474
0.411347
-0.00145172
0.411261
-0.00087416
0.410923
0.411468
-0.000136846
0.411965
-0.000242545
0.412065
-0.000334617
0.412194
-0.000454123
0.412407
-0.00066729
0.412942
-0.00150234
0.415391
-0.00122118
0.416
-0.000961032
0.415239
-0.00140284
0.415655
-0.00198419
0.415794
-0.00251127
0.416324
-0.207968
-0.207829
-0.00316904
0.407974
-0.205873
-0.201443
-0.0038157
0.403793
-0.198701
-0.204446
-0.00394666
0.414446
-0.207042
-0.207273
-0.00393006
0.413965
-0.00380223
0.413769
-0.00353538
0.412791
-0.00325351
0.412071
-0.00275637
0.411711
-0.00232131
0.411317
-0.00200084
0.411027
-0.00150653
0.410766
-0.00108848
0.410505
0.411536
-0.000179135
0.412072
-0.000282107
0.412168
-0.000418914
0.412331
-0.000563248
0.412552
-0.000780433
0.413159
-0.00127678
0.415888
-0.00114392
0.415867
-0.00110661
0.415202
-0.00144215
0.41599
-0.00188058
0.416233
-0.00226019
0.416704
-0.00269729
0.408411
-0.00313491
0.404231
-0.00330804
0.414619
-0.00338572
0.414043
-0.00331293
0.413696
-0.00313101
0.412609
-0.00289969
0.41184
-0.00254019
0.411352
-0.00218778
0.410965
-0.00186859
0.410708
-0.00149789
0.410396
-0.0011494
0.410157
0.411552
-0.000220273
0.412191
-0.00036101
0.412308
-0.000513771
0.412483
-0.00067457
0.412712
-0.000839402
0.413324
-0.00105188
0.4161
-0.00109562
0.415911
-0.00117717
0.415283
-0.00145824
0.416271
-0.00181287
0.416587
-0.00208974
0.416981
-0.00239865
0.40872
-0.00271956
0.404552
-0.00285625
0.414756
-0.00295726
0.414144
-0.00291125
0.41365
-0.00278184
0.41248
-0.00261422
0.411672
-0.00234775
0.411085
-0.00206109
0.410678
-0.00177795
0.410425
-0.00145725
0.410075
-0.00115277
0.409852
0.41156
-0.000259077
0.41232
-0.000410703
0.41246
-0.000551414
0.412624
-0.000722154
0.412883
-0.000894266
0.413496
-0.00099564
0.416201
-0.00112375
0.416039
-0.00135163
0.415511
-0.0014489
0.416369
-0.00174012
0.416878
-0.00195931
0.4172
-0.0021658
0.408926
-0.00239428
0.40478
-0.00251735
0.414879
-0.00260418
0.414231
-0.00257847
0.413624
-0.00248979
0.412391
-0.00237288
0.411555
-0.00213751
0.41085
-0.00194762
0.410488
-0.00166819
0.410145
-0.00141315
0.40982
-0.00117044
0.40961
0.411534
-0.000317618
0.412478
-0.000431228
0.412574
-0.000600681
0.412793
-0.0007538
0.413036
-0.00092757
0.41367
-0.00102591
0.4163
-0.00115279
0.416166
-0.00135855
0.415717
-0.00141802
0.416428
-0.00165925
0.41712
-0.00183545
0.417376
-0.00197329
0.409064
-0.00213711
0.404944
-0.00224134
0.414983
-0.00231677
0.414306
-0.00230108
0.413608
-0.00223672
0.412327
-0.00212683
0.411445
-0.00197673
0.4107
-0.00180552
0.410317
-0.00156544
0.409905
-0.00134709
0.409601
-0.00111658
0.409379
0.411538
-0.000328144
0.412617
-0.000490875
0.412736
-0.000640448
0.412943
-0.000795009
0.413191
-0.000966613
0.413842
-0.00103651
0.41637
-0.00116083
0.41629
-0.00134487
0.415901
-0.00148853
0.416572
-0.00158393
0.417215
-0.0017231
0.417515
-0.00181142
0.409152
-0.00192774
0.405061
-0.00201649
0.415072
-0.00208008
0.41437
-0.00207068
0.413599
-0.00202176
0.412278
-0.00193859
0.411362
-0.00179655
0.410558
-0.00165715
0.410178
-0.00149405
0.409742
-0.00130604
0.409413
-0.0011277
0.409201
0.411501
-0.000358588
0.412757
-0.000500251
0.412878
-0.00067251
0.413115
-0.000825966
0.413344
-0.000970473
0.413986
-0.00103291
0.416432
-0.00115702
0.416414
-0.0013207
0.416065
-0.00149089
0.416742
-0.00150751
0.417232
-0.00162241
0.41763
-0.00166413
0.409194
-0.00175585
0.405152
-0.00181722
0.415133
-0.00187998
0.414432
-0.00187497
0.413594
-0.00184193
0.412245
-0.00178059
0.411301
-0.00168379
0.410461
-0.00156939
0.410063
-0.00138764
0.40956
-0.00122478
0.409251
-0.00107139
0.409047
0.411487
-0.000386753
0.412897
-0.000527945
0.413019
-0.00067575
0.413263
-0.000826365
0.413495
-0.00098768
0.414148
-0.00104208
0.416486
-0.00114175
0.416514
-0.00128924
0.416212
-0.00144099
0.416894
-0.00169735
0.417488
-0.00172429
0.417657
-0.00171156
0.409181
-0.00173053
0.405171
-0.00178009
0.415183
-0.00181439
0.414467
-0.0018097
0.413589
-0.00179297
0.412228
-0.0017595
0.411267
-0.00172492
0.410427
-0.00151828
0.409857
-0.00135791
0.4094
-0.00119313
0.409086
-0.00103827
0.408893
0.411468
-0.000413063
0.413035
-0.000552271
0.413158
-0.000674318
0.413385
-0.000843576
0.413664
-0.000975725
0.41428
-0.00104459
0.416555
-0.00112337
0.416593
-0.00125636
0.416345
-0.00150424
0.417142
-0.00172304
0.417707
-0.00180395
0.417738
-0.0018097
0.409187
-0.00185167
0.405213
-0.00190915
0.415241
-0.00194375
0.414501
-0.00193861
0.413584
-0.00191502
0.412205
-0.00185031
0.411203
-0.00178416
0.41036
-0.00170302
0.409775
-0.00158102
0.409278
-0.00147678
0.408982
-0.00133884
0.408755
0.411109
-0.000437824
0.413171
-0.000573994
0.413295
-0.000714524
0.413526
-0.000833957
0.413784
-0.00095938
0.414405
-0.00102035
0.416616
-0.00110438
0.416677
-0.00133333
0.416574
-0.00154686
0.417355
-0.00166937
0.417829
-0.00173108
0.4178
-0.00172217
0.409178
-0.00174854
0.40524
-0.00179252
0.415285
-0.0018224
0.414531
-0.0018193
0.413581
-0.00179884
0.412184
-0.00176095
0.411165
-0.00168254
0.410282
-0.00161255
0.409705
-0.00152584
0.409191
-0.00141196
0.408868
-0.00130968
0.408652
0.410739
-0.000461376
0.413302
-0.000571104
0.413404
-0.000706892
0.413661
-0.000821452
0.413898
-0.000962741
0.414546
-0.00101645
0.41667
-0.00119046
0.416851
-0.00141101
0.416795
-0.00151375
0.417458
-0.00161766
0.417933
-0.00167233
0.417855
-0.0016478
0.409154
-0.00166008
0.405252
-0.00169939
0.415324
-0.00172378
0.414556
-0.00172017
0.413577
-0.00170156
0.412166
-0.00166634
0.41113
-0.00161758
0.410233
-0.00153362
0.409622
-0.00143479
0.409092
-0.00137503
0.408808
-0.00126096
0.408538
0.410378
-0.000461258
0.413406
-0.000611853
0.413555
-0.000719887
0.41377
-0.000852169
0.41403
-0.00094188
0.414636
-0.00112468
0.416853
-0.00131065
0.417037
-0.00139117
0.416875
-0.00148436
0.417551
-0.00157721
0.418026
-0.00161802
0.417895
-0.00158528
0.409121
-0.0015841
0.405251
-0.00161778
0.415358
-0.0016424
0.41458
-0.00163578
0.413571
-0.00162061
0.412151
-0.00158651
0.411095
-0.00154335
0.41019
-0.00146547
0.409544
-0.00139663
0.409023
-0.00129922
0.408711
-0.00121527
0.408454
0.410024
-0.000505273
0.413527
-0.000606012
0.413656
-0.000708781
0.413872
-0.000836407
0.414158
-0.0010787
0.414878
-0.00136871
0.417143
-0.00129847
0.416967
-0.00137146
0.416948
-0.00145454
0.417634
-0.00154098
0.418113
-0.00157658
0.417931
-0.00153343
0.409078
-0.00152561
0.405243
-0.00155499
0.415387
-0.0015716
0.414597
-0.00156872
0.413568
-0.00155435
0.412136
-0.00152013
0.411061
-0.00145868
0.410129
-0.0014296
0.409515
-0.00134414
0.408938
-0.00127383
0.40864
-0.0011954
0.408376
0.409651
-0.00050279
0.41362
-0.000621561
0.413774
-0.000741471
0.413992
-0.000819732
0.414236
-0.00150943
0.415568
-0.00134171
0.416975
-0.00129007
0.416915
-0.00135723
0.417015
-0.00143366
0.417711
-0.00151106
0.41819
-0.00154066
0.417961
-0.00149137
0.409028
-0.00147445
0.405226
-0.00150266
0.415415
-0.00151902
0.414613
-0.00151272
0.413562
-0.00149888
0.412122
-0.00146585
0.411028
-0.00142976
0.410093
-0.00135861
0.409443
-0.00132195
0.408901
-0.00123203
0.40855
-0.00115724
0.408301
0.40928
-0.000543722
0.413728
-0.000613052
0.413844
-0.000727454
0.414107
-0.00121027
0.414719
-0.00153214
0.41589
-0.00136117
0.416804
-0.00128088
0.416835
-0.00134409
0.417079
-0.00141454
0.417781
-0.00148738
0.418263
-0.00150969
0.417983
-0.00145847
0.408977
-0.00143874
0.405206
-0.001462
0.415438
-0.00147654
0.414628
-0.0014712
0.413556
-0.00145801
0.412109
-0.00142275
0.410993
-0.00138926
0.410059
-0.00134138
0.409396
-0.00126325
0.408823
-0.00119655
0.408484
-0.00110169
0.408206
0.408931
-0.000536891
0.413807
-0.000648126
0.413955
-0.000734261
0.414193
-0.00132876
0.415314
-0.00148644
0.416048
-0.00133673
0.416654
-0.00127544
0.416773
-0.00133453
0.417138
-0.00139915
0.417846
-0.00146898
0.418333
-0.00148936
0.418003
-0.00143451
0.408922
-0.00141161
0.405183
-0.00143206
0.415459
-0.00144578
0.414641
-0.00143833
0.413549
-0.0014264
0.412097
-0.00138985
0.410956
-0.00135904
0.410028
-0.0013105
0.409347
-0.0012575
0.40877
-0.00116761
0.408394
-0.00109625
0.408135
0.408557
-0.00054794
0.413878
-0.000635826
0.414043
-0.000715126
0.414272
-0.00117567
0.415774
-0.00141656
0.416289
-0.0013604
0.416598
-0.00126858
0.416682
-0.00133241
0.417201
-0.00138962
0.417903
-0.0014579
0.418401
-0.0014735
0.418019
-0.00141973
0.408869
-0.00139474
0.405158
-0.00141444
0.415478
-0.00142949
0.414657
-0.00141556
0.413535
-0.00140953
0.412091
-0.00138923
0.410936
-0.00134038
0.409979
-0.00128851
0.409295
-0.00121715
0.408699
-0.00116839
0.408345
-0.00107676
0.408043
0.408178
-0.00057804
-0.000666257
-0.000716533
-0.0009537
-0.00109688
-0.00136283
-0.00126555
-0.00133043
-0.00137617
-0.00144393
-0.00145451
-0.00141377
-0.00139187
-0.00140281
-0.0014172
-0.00140102
-0.00139866
-0.00135137
-0.00132934
-0.00127333
-0.00122813
-0.00113079
-0.00108555
0.00368473
-0.0040727
-0.0549578
0.057603
0.00592261
-0.0569782
-0.00322268
-0.0033247
-0.0516844
-0.00714325
0.0523713
0.000636773
-0.000658732
-0.0567604
0.0603066
0.00173627
-0.0601792
-0.000870304
-0.000993315
0.0581538
-0.00298705
-0.00307804
-0.00216508
0.0024448
-0.0557507
0.0590351
-0.00266734
-0.0593827
0.00155157
0.00146338
0.0603716
-0.000537049
-0.000660686
-0.00317581
0.00349621
-0.0532302
0.0556385
-0.00490413
-0.0560918
0.00535751
0.0586627
0.00176542
0.00168748
-0.00255568
0.00276663
-0.0509691
0.0520639
-0.00479874
-0.0524847
0.00521956
0.0054691
0.0551577
0.00222665
-0.00295739
-0.050534
-0.000768044
0.0214454
0.000488259
-0.0107306
-0.010435
-0.000966588
-0.00923397
-0.0101495
0.0501662
-0.00250902
-0.0501089
0.00245165
0.00498734
0.0517159
0.00412963
-0.00460424
-0.0505001
-0.0474084
1.85694e-05
0.0468698
0.00597087
-0.051102
-0.00655327
-0.0500712
-0.00233542
0.0503281
0.00350151
-0.0042378
-0.106738
0.0551018
-0.054756
0.00333888
-0.0514564
0.00388123
0.0519328
0.0138729
0.00556323
-0.0273897
0.013929
-0.00295427
-0.00302117
0.00499051
-0.0241474
-0.00541617
0.024573
0.00536611
-0.0567658
0.110964
0.0057598
-0.109859
-0.00686474
-0.106292
-0.00773109
0.107459
0.0010642
-0.00120056
-0.108813
0.0564512
-0.0564273
0.000612876
0.00301954
0.0554176
0.0564183
0.00223591
-0.00243218
-0.056222
0.0289056
-0.000776038
-0.0288466
0.00144196
-0.000724924
-0.0284165
-0.00247513
0.00237922
0.0285124
0.0148185
0.000480705
-0.0151996
-9.96264e-05
-0.0148497
0.00232687
-0.00255441
0.0150772
0.00162021
-0.0596709
0.113649
0.00220676
-0.113301
-0.00255498
-0.00602339
0.111945
-0.00152852
0.00194885
-0.108477
0.0553294
-0.0555795
-0.00191498
0.000229598
0.0564481
0.0564364
-0.00093624
0.00108377
-0.0565839
0.0294323
0.000618262
-0.0295161
-0.000895017
0.000360502
-0.0294911
-0.000121708
0.000144125
0.0294766
-7.94371e-06
0.0138919
2.22206e-05
-0.0138679
-4.62715e-05
-0.0139018
5.43225e-05
0.0139204
-7.29107e-05
-0.00237421
-0.0590039
0.112908
-0.00195337
-0.113386
0.0024312
-0.00124679
0.113781
-0.00292081
0.00352685
-0.106399
0.0529835
-0.0532814
-0.00287794
-0.0021382
0.0550651
0.0542161
-0.00291714
0.00324741
-0.0545464
0.00227562
0.0272858
-0.0274038
-0.00215761
-0.0282649
0.000984985
-0.00182551
0.0280974
0.00100795
0.0153564
-0.00195023
-0.0157325
0.00232637
-0.0145661
-0.000408099
6.66485e-05
0.0149076
-0.00445972
-0.0560915
0.109812
-0.00464713
-0.110712
0.00554725
0.00346737
0.112294
0.0265226
-0.00362199
-0.0266602
0.00189502
0.0018645
-0.0139087
-0.0017841
0.00182417
0.0138686
-0.00441482
-0.052745
0.106284
-0.00522274
-0.10711
0.00604859
0.00595886
0.108909
0.0242083
-0.00259487
-0.0243115
0.002698
-0.0252804
-0.00329352
0.00344444
0.0251295
-8.72008e-06
-0.000402296
-0.101112
-0.00100387
0.0468521
-0.0464604
0.000612248
0.000508753
0.0216183
-0.00158457
-0.044398
-0.00325006
0.10258
-0.102975
0.00364592
0.00147802
0.0503666
-0.00254324
-0.0283703
0.00249704
-0.00367453
-0.027148
0.00343944
0.0273831
-0.0534694
0.0044555
0.054008
-0.00499409
-0.027221
0.0274938
-0.00199247
-0.0019549
0.0284846
-0.0285634
-0.00124615
-0.00121829
0.00370473
-0.0244637
0.0247957
-0.0040367
0.00378656
-0.00403025
-0.0269773
0.00206849
-0.0149437
-0.00197449
0.00277349
-0.00285474
0.0139542
-0.0548231
0.00679913
-0.00755879
0.0555828
-0.0276433
-0.00274003
0.0279884
0.00516843
0.0149097
0.00206936
-0.0149106
-6.77638e-05
-0.02951
0.000282374
-0.000195711
-0.000788565
0.0013864
0.0291398
-0.000832091
0.00183861
0.0565774
-0.00199769
-0.0143926
0.0145126
-0.0009086
0.0150457
-9.03965e-05
-0.015023
0.0143218
0.0143308
-0.00126516
-0.00137795
-0.000794026
-0.0143746
-2.0264e-05
-0.0139784
9.68724e-05
0.00076911
-0.000301971
0.0143514
-0.0594226
0.00348251
0.059736
-0.00184162
-0.00195437
-0.0149555
0.0146689
0.0010557
0.0152619
0.000103194
-0.0153854
0.0150808
0.00215577
0.000817479
-0.0152923
0.00403615
-0.0590623
-0.00214233
-0.00225413
0.000995136
-0.0284242
-0.00174295
0.000907145
0.000583439
-0.00110801
0.0291425
0.000814437
-0.00127891
0.0562336
0.00148169
-0.0152278
0.0150413
0.000769968
0.0142756
0.00107434
-0.0143548
0.0149946
-7.06291e-05
0.000593397
-0.015203
-0.000699048
-0.0141568
0.000289689
-1.0368e-05
0.0139046
-2.31998e-06
-0.0601558
-0.00120167
0.0599507
0.000756915
0.00064981
-0.0152632
0.0153426
-8.972e-05
0.0147364
-0.000952267
-0.0144832
0.0151994
0.000116807
-6.67223e-05
-0.0151743
-0.000648703
-0.0602957
0.000450417
0.000338241
-0.0272782
-0.00228994
0.0272045
0.00114712
0.00121653
0.0263011
-0.00234968
0.00244941
-0.0264008
0.0141542
0.00110635
-0.0273661
0.0011865
0.00117707
-0.00184682
-0.0139969
0.00193502
-0.00212748
0.00268747
0.0147964
-0.0574262
-0.00433434
0.056985
0.00240321
0.00237231
-0.0151356
0.0148076
-0.00179945
0.0277949
0.00182327
-0.0034271
-0.0280379
0.0150359
-0.000707582
-0.0017188
-0.015367
-0.00408516
-0.0578548
0.00228353
0.00223026
-0.0254336
-0.00209085
0.0253423
0.00218214
0.0247987
-0.00174858
0.0018199
-0.02487
-0.00234441
0.0262342
0.00241125
-0.00213429
0.00223938
-0.0255387
-0.00333312
-0.0254489
0.00350163
-0.00361641
0.0263505
0.00191043
0.00187815
0.00176784
0.0276659
-0.00342292
0.02662
-0.00346896
-0.026773
0.0538053
-0.0051686
-0.0542425
0.00560582
-0.0242894
-0.00106145
0.0242401
0.0011108
0.0244077
2.40853e-05
2.67518e-06
-0.0244345
-0.00167535
0.0247193
0.00175481
-0.00118025
0.00121573
-0.0243249
0.0242338
-0.000793637
-0.024563
0.00112285
-0.00247214
0.00258272
0.0240978
0.00455094
-0.00515119
-0.0528692
-0.0269032
0.00354172
-0.0248113
0.00345635
0.0250597
0.0129048
0.00384302
-0.016934
0.000186122
0.00350146
-0.0111902
-0.00372645
0.0114152
-0.00280769
0.00327189
-0.104097
0.0509828
-0.051177
-0.00236148
-0.00287947
0.0526884
0.0517132
-0.00302902
0.00330383
-0.051988
0.0255176
-0.0256119
-0.00204006
-0.0263537
-0.00224788
0.0262572
0.0121784
-0.0019211
-0.0123573
0.00209998
-0.0125928
-0.00208323
0.00224679
0.0124292
-0.0024951
-0.050547
-0.00398985
0.10395
-0.10436
0.00439917
0.00579949
0.105531
-0.0113598
0.00272652
0.0116802
-0.00304693
0.0133389
0.00301492
-0.00301335
-0.0133405
-0.0245926
0.0249369
0.00464617
0.00524206
-0.0273221
0.00685695
-0.0539916
-0.00768846
-0.0264678
-0.00223559
-0.00218392
0.0271798
-0.00302915
0.0538868
0.00335843
-0.0118144
-0.000203659
0.0120658
-4.77598e-05
0.012732
-0.00067602
0.000217508
-0.0122734
-0.0123291
-0.0011763
0.0122389
0.00126647
0.0124197
-0.0011746
0.00125504
-0.0125002
-0.000491734
0.0131179
0.000105782
-0.00142314
0.012575
0.00122359
-0.0123755
-0.00193001
-0.0124322
0.00176947
-0.00255115
-0.0117266
0.00224138
0.0120364
-0.00511182
0.00556912
0.053348
0.0264638
-0.0034603
0.0254343
-0.00317989
-0.0255875
-0.00109806
0.0122333
0.00128445
0.0120638
-0.000909711
0.000926027
-0.0120802
0.0252887
-0.00314791
0.0244221
-0.00251289
-0.0245041
0.0507228
-0.00386687
-0.0510313
0.00417539
0.000146753
-0.023855
0.000298021
0.0234102
0.00200557
-0.0487927
0.02432
0.0237047
-0.000753029
-0.000484596
0.00340495
-0.00369022
-0.0241784
0.00459798
-0.0238038
-0.00494153
0.0035469
-0.047661
-0.00158325
-0.00217785
0.0235069
0.0243683
-0.0245809
0.0242216
0.000506113
0.0035223
0.00934865
3.38674e-05
-0.02602
0.00572181
0.0265029
-0.00308699
-0.00311774
-0.0134253
0.0129854
0.00396224
-0.0113634
0.011531
0.00333384
0.00403434
-0.0136167
0.00565463
-0.0255596
-0.00611499
-0.0151412
0.00286571
-0.00387961
0.0161551
0.00249455
-0.0147738
-0.00286196
-0.0138149
-3.64683e-05
0.0137559
9.54963e-05
-2.25747e-05
-0.0138299
3.75735e-05
-0.0145958
-0.00222868
0.00265974
0.0141647
-0.0025992
-0.0156215
0.00362496
-0.0136004
-0.00356816
0.0270947
-0.0136594
0.00191557
0.00181774
0.0138066
-0.00139394
-0.0123653
-4.7368e-05
-0.00181094
-0.01365
0.00186053
0.0116256
-0.00153739
-0.0116199
0.00153165
-0.00187315
0.0020084
0.0120431
-0.0125247
0.0124244
-0.00198288
0.0121139
-0.0018164
-0.0122186
0.0246846
-0.00301176
-0.02483
0.00315709
0.00124884
-0.0127609
0.0115196
-7.56307e-06
0.0280803
0.00325586
-0.0278966
-0.00172449
-0.00171499
0.0115123
-0.0123698
0.000916643
-5.91763e-05
-0.0139727
0.00202587
0.0131956
0.00253411
0.00897636
1.81719e-06
0.00315605
0.0283821
-0.00176158
-0.00169631
-0.0016614
-0.0144075
0.00209619
-0.00316105
-0.013518