/*--------------------------------*- C++ -*----------------------------------*\
| =========                 |                                                 |
| \\      /  F ield         | OpenFOAM: The Open Source CFD Toolbox           |
|  \\    /   O peration     | Version:  5.x                                   |
|   \\  /    A nd           | Web:      www.OpenFOAM.org                      |
|    \\/     M anipulation  |                                                 |
\*---------------------------------------------------------------------------*/
FoamFile
{
    version     2.0;
    format      ascii;
    class       volVectorField;
    location    "500";
    object      U;
}
// * * * * * * * * * * * * * * * * * * * * * * * * * * * * * * * * * * * * * //

dimensions      [0 1 -1 0 0 0 0];

internalField   nonuniform List<vector> 
6584
(
(45.0026 -0.00691755 1.64339e-25)
(45.0019 -0.015267 7.99073e-24)
(45.0025 -0.0208868 7.41632e-29)
(45.0026 -0.0286568 -1.45412e-23)
(45.003 -0.0369886 0)
(45.003 -0.0462278 0)
(45.0027 -0.0554525 0)
(45.0009 -0.0614247 1.54702e-23)
(44.9981 -0.0615134 1.56082e-23)
(44.9933 -0.0490409 0)
(44.9882 -0.0155331 5.42342e-24)
(44.9847 0.0368406 -9.3828e-24)
(44.9858 0.0953154 -4.51857e-25)
(44.9911 0.140442 1.12352e-24)
(44.9975 0.160251 3.2429e-25)
(45.0041 0.155253 3.87859e-23)
(45.0071 0.136217 3.44801e-23)
(45.0081 0.112422 2.80153e-24)
(45.0076 0.0884298 2.38087e-23)
(45.0065 0.0672433 1.70621e-23)
(45.0053 0.0499832 0)
(45.0045 0.0351522 0)
(45.0034 0.0248624 2.52297e-23)
(45.0042 0.0110152 1.54328e-23)
(45.0108 -0.014501 -7.78874e-24)
(45.0094 -0.0306813 -3.02646e-23)
(45.0115 -0.0411506 -4.09513e-23)
(45.0126 -0.0568207 0)
(45.0146 -0.073635 -5.80944e-24)
(45.0149 -0.092816 -4.71361e-23)
(45.0133 -0.112983 -2.90853e-23)
(45.0048 -0.127235 4.94856e-23)
(44.9926 -0.130245 -2.78057e-24)
(44.9602 -0.107366 -1.05805e-23)
(44.9214 -0.0391886 -3.18292e-27)
(44.8963 0.0712 0)
(44.9031 0.196305 2.30948e-23)
(44.9405 0.291432 1.27553e-23)
(44.9896 0.332359 -8.69554e-23)
(45.0224 0.319562 -2.3053e-23)
(45.0355 0.276333 -5.29941e-23)
(45.0396 0.225376 -6.89992e-23)
(45.0366 0.17536 -1.76002e-22)
(45.0313 0.132311 -1.44352e-22)
(45.0253 0.0980697 -1.01276e-23)
(45.0212 0.0685361 -4.22441e-24)
(45.0165 0.0494567 0)
(45.0175 0.0228471 1.35024e-23)
(45.0237 -0.0221589 -1.96307e-23)
(45.0229 -0.0451977 0)
(45.0277 -0.0596643 -8.22309e-24)
(45.0314 -0.0831922 -5.32853e-23)
(45.0366 -0.108943 -8.24858e-23)
(45.0389 -0.13992 0)
(45.0362 -0.17599 0)
(45.0177 -0.203901 -1.29522e-23)
(44.982 -0.234531 -5.32838e-24)
(44.9266 -0.159226 4.26198e-24)
(44.8617 -0.0761136 -7.58798e-24)
(44.8114 0.0684302 -1.07858e-23)
(44.8182 0.244814 0)
(44.8856 0.383223 0)
(44.9717 0.445763 1.35542e-24)
(45.0576 0.513413 -9.62481e-23)
(45.0934 0.425065 0)
(45.1016 0.338172 -3.14263e-23)
(45.0922 0.257342 0)
(45.0773 0.191009 -2.33072e-23)
(45.0621 0.140408 -6.14972e-23)
(45.0508 0.0971083 -3.63902e-23)
(45.04 0.0711995 0)
(45.0382 0.0341399 1.04806e-23)
(45.0394 -0.0291447 -1.19601e-23)
(45.0409 -0.0575317 0)
(45.0495 -0.0750769 -1.10253e-23)
(45.0579 -0.105912 0)
(45.0689 -0.140614 0)
(45.0774 -0.185673 0)
(45.0774 -0.243672 -2.84037e-23)
(45.0535 -0.300899 1.59443e-22)
(44.9867 -0.375353 -1.0938e-23)
(44.88 -0.298788 1.26591e-23)
(44.7385 -0.203141 -7.93345e-24)
(44.5958 0.0284967 1.6857e-24)
(44.5842 0.366418 2.0509e-24)
(44.7437 0.630456 0)
(44.9441 0.707675 -1.43408e-22)
(45.0862 0.644129 0)
(45.2041 0.581316 0)
(45.2003 0.448826 2.22163e-22)
(45.1757 0.329195 1.44011e-22)
(45.142 0.238436 -4.76616e-23)
(45.1123 0.172994 -3.2812e-23)
(45.0895 0.118034 0)
(45.0703 0.0874578 1.53679e-23)
(45.0626 0.0433581 1.23557e-23)
(45.0568 -0.0347155 -4.5765e-24)
(45.0621 -0.0663821 -2.77862e-25)
(45.0757 -0.0856457 -1.32106e-24)
(45.0915 -0.122395 -2.06596e-24)
(45.112 -0.164566 2.14715e-24)
(45.1349 -0.22436 1.16338e-22)
(45.1468 -0.308856 -2.1896e-22)
(45.1417 -0.404028 1.91598e-22)
(45.009 -0.446519 1.06675e-23)
(44.87 -0.503873 5.8422e-23)
(44.5938 -0.449435 -8.92416e-24)
(44.2073 -0.108961 1.08711e-23)
(44.1265 0.546177 -1.73684e-24)
(44.5304 1.03516 2.04764e-22)
(44.967 1.08982 0)
(45.2132 0.915986 1.39696e-22)
(45.2903 0.687043 -3.04667e-23)
(45.3398 0.520483 -1.75564e-22)
(45.2871 0.379448 -9.90006e-23)
(45.2235 0.265958 4.11534e-23)
(45.1734 0.190947 -2.22723e-24)
(45.1344 0.127971 -1.22479e-24)
(45.1047 0.095734 1.74157e-23)
(45.0882 0.0490751 -6.47419e-24)
(45.0746 -0.0381604 2.23825e-24)
(45.0849 -0.0704739 -6.01926e-24)
(45.1045 -0.0893835 -2.2617e-25)
(45.1303 -0.129198 0)
(45.1641 -0.173939 -2.62474e-23)
(45.2098 -0.245438 -1.71489e-23)
(45.2459 -0.334787 -8.73773e-23)
(45.2091 -0.439958 -1.80391e-23)
(45.1355 -0.597551 7.28119e-23)
(44.9869 -0.811309 3.30237e-22)
(44.4695 -0.837821 7.25806e-23)
(43.7274 -0.51106 1.15287e-26)
(43.3695 0.686098 -3.18527e-24)
(44.2434 1.61169 3.02902e-23)
(45.1573 1.66388 -3.15837e-22)
(45.4881 1.22855 0)
(45.5248 0.860677 1.86357e-26)
(45.5214 0.555618 3.24014e-23)
(45.421 0.396618 7.72287e-24)
(45.317 0.266261 4.73438e-23)
(45.2409 0.189273 -1.69857e-23)
(45.1816 0.123844 0)
(45.1399 0.0938307 -8.86142e-24)
(45.1121 0.0499878 -1.21225e-23)
(45.0909 -0.0389411 1.11169e-26)
(45.1072 -0.0689539 -2.93676e-24)
(45.1329 -0.084917 3.57989e-24)
(45.1702 -0.123811 1.07063e-24)
(45.2193 -0.164049 1.30872e-24)
(45.2925 -0.239792 -3.84243e-23)
(45.366 -0.323665 -5.42401e-23)
(45.3602 -0.469304 -8.49407e-25)
(45.3885 -0.712272 -1.0454e-23)
(45.3404 -1.11631 5.32254e-23)
(44.7457 -1.56832 0)
(43.1202 -1.7353 4.90351e-23)
(41.1135 0.94095 1.91745e-24)
(44.1203 3.28534 1.4163e-22)
(45.5768 2.31937 -9.06036e-25)
(45.9949 1.47489 0)
(45.8684 0.934103 9.62469e-23)
(45.7357 0.516613 2.11502e-23)
(45.5663 0.363476 1.751e-23)
(45.4136 0.231472 -4.51509e-24)
(45.3074 0.163731 -3.67525e-23)
(45.2256 0.103495 0)
(45.1716 0.0802726 -8.0035e-24)
(45.1312 0.0451228 -7.21177e-24)
(45.1043 -0.036862 -2.56415e-24)
(45.1264 -0.0617637 2.30081e-24)
(45.1573 -0.07214 1.12794e-24)
(45.2053 -0.105464 4.44392e-25)
(45.2691 -0.13307 -1.98561e-24)
(45.3686 -0.199505 1.90669e-23)
(45.4854 -0.255515 6.58443e-27)
(45.5442 -0.414981 -1.10268e-23)
(45.7235 -0.672912 8.33107e-27)
(45.96 -1.15477 -1.2857e-22)
(45.8471 -2.10579 -7.27628e-24)
(44.9827 -4.47467 2.70554e-24)
(45.988 5.81182 2.54225e-23)
(46.8838 2.81505 -2.48676e-23)
(46.7278 1.44483 5.30707e-23)
(46.2907 0.830893 -1.08463e-23)
(45.9461 0.37889 3.52933e-23)
(45.6993 0.268855 3.61942e-23)
(45.4985 0.157702 2.47679e-23)
(45.363 0.112787 -1.07609e-23)
(45.2601 0.066668 0)
(45.1951 0.0548867 0)
(45.1422 0.0341185 -1.16585e-28)
(45.1135 -0.0322028 -4.2986e-25)
(45.1402 -0.04989 -2.7105e-26)
(45.1743 -0.0527228 -1.80182e-25)
(45.2296 -0.0763459 1.98789e-24)
(45.3032 -0.0846883 3.08317e-24)
(45.419 -0.127985 1.22211e-23)
(45.5676 -0.136482 3.37299e-23)
(45.702 -0.264542 0)
(46.0184 -0.423509 0)
(46.5561 -0.713162 0)
(47.2401 -1.48426 -4.2017e-24)
(48.782 -3.28721 6.63981e-25)
(50.6232 4.91156 0)
(48.5776 2.07719 0)
(47.4251 0.942932 0)
(46.6673 0.501637 1.05854e-23)
(46.0968 0.149457 0)
(45.7886 0.116977 -3.85169e-23)
(45.5539 0.0502538 -2.55384e-23)
(45.397 0.0399032 -2.32104e-24)
(45.2784 0.0160371 0)
(45.206 0.0192847 3.4066e-25)
(45.1424 0.0174326 1.58427e-26)
(45.1179 -0.0257249 6.63092e-26)
(45.1473 -0.0353347 -1.09008e-25)
(45.1817 -0.0301186 1.13365e-25)
(45.2389 -0.0420084 5.72632e-25)
(45.314 -0.0291598 -1.33734e-24)
(45.4297 -0.0421762 -8.18245e-26)
(45.5845 -3.70542e-05 -4.3399e-24)
(45.7677 -0.0576864 -1.39505e-25)
(46.1239 -0.0467962 0)
(46.7422 0.00534312 -1.17443e-23)
(47.7725 -0.0786562 1.88381e-29)
(49.9272 -0.18093 -1.61011e-24)
(52.6877 0.977351 -4.19531e-24)
(49.472 0.342481 -1.50505e-23)
(47.7302 0.0915805 -1.15263e-22)
(46.8468 0.0117666 0)
(46.14 -0.124027 -7.49871e-23)
(45.8087 -0.0676268 0)
(45.5663 -0.0752381 -3.83278e-25)
(45.4013 -0.0459386 0)
(45.276 -0.0426528 3.21161e-25)
(45.2012 -0.0230964 -1.5675e-25)
(45.1305 -0.00360144 -1.92552e-24)
(45.1176 -0.0185122 0)
(45.1474 -0.0206476 -4.62445e-25)
(45.1793 -0.00860789 -3.49401e-25)
(45.2328 -0.0096131 -1.20728e-24)
(45.3011 0.0205776 1.6802e-24)
(45.4007 0.0350215 7.43427e-24)
(45.5345 0.113126 1.99619e-23)
(45.719 0.133341 6.84142e-24)
(46.0025 0.292401 0)
(46.4501 0.619499 5.56839e-23)
(47.2623 1.15782 1.59633e-23)
(48.6817 2.47444 -9.31136e-25)
(51.6513 -2.90898 -1.84676e-24)
(49.13 -1.41954 2.54213e-23)
(47.5246 -0.764122 4.93022e-24)
(46.7644 -0.48526 6.66214e-23)
(46.0638 -0.377147 3.31786e-22)
(45.7549 -0.248836 1.84709e-22)
(45.5319 -0.197446 -1.24715e-22)
(45.3737 -0.132657 -8.84364e-23)
(45.2516 -0.10193 6.20212e-24)
(45.1799 -0.0676504 2.72474e-24)
(45.1064 -0.027033 -6.17361e-24)
(45.1139 -0.0116883 1.09248e-25)
(45.1419 -0.0082022 7.21549e-25)
(45.1692 0.00809056 1.04368e-24)
(45.215 0.014752 -7.31496e-25)
(45.2709 0.0544489 -2.34641e-32)
(45.3456 0.0857539 1.08085e-23)
(45.4422 0.176335 3.11205e-23)
(45.5874 0.250376 5.75906e-24)
(45.7391 0.473077 0)
(45.9055 0.884855 -1.78011e-23)
(46.2148 1.64092 -4.25522e-24)
(46.4134 3.22536 -1.88342e-24)
(48.9828 -4.72179 -6.30196e-25)
(47.9514 -2.45035 0)
(46.9637 -1.33212 -1.02966e-22)
(46.4745 -0.849496 8.35924e-23)
(45.8961 -0.561483 4.71766e-22)
(45.6431 -0.394431 3.11912e-22)
(45.4581 -0.297914 0)
(45.319 -0.208868 -7.79989e-23)
(45.2079 -0.154857 -4.31087e-23)
(45.1437 -0.109745 3.93996e-24)
(45.0718 -0.050719 -4.80932e-24)
(45.1082 -0.00613471 0)
(45.133 0.000449655 1.38727e-25)
(45.1549 0.0179633 -1.58197e-25)
(45.1916 0.0280732 -4.26824e-25)
(45.2335 0.0688384 0)
(45.2833 0.104242 -1.18724e-24)
(45.3418 0.186474 5.70863e-24)
(45.4307 0.277412 -7.76678e-26)
(45.4643 0.476311 2.12285e-24)
(45.4016 0.798354 8.23925e-24)
(45.2732 1.3876 1.57229e-24)
(44.5514 2.44268 0)
(46.1893 -4.53702 -1.0279e-24)
(46.6148 -2.58152 8.85607e-24)
(46.3143 -1.51765 4.77827e-23)
(46.0977 -1.02136 5.95143e-24)
(45.6868 -0.659999 2.05045e-22)
(45.5015 -0.487597 2.19251e-22)
(45.3598 -0.366608 0)
(45.2457 -0.266994 -1.16397e-24)
(45.1505 -0.196554 1.7989e-23)
(45.0961 -0.145887 9.85908e-24)
(45.0292 -0.0727667 3.5183e-25)
(45.1022 -0.00234288 0)
(45.1232 0.00478751 0)
(45.1402 0.0208821 0)
(45.1684 0.0305907 0)
(45.1987 0.0658703 1.79351e-25)
(45.2296 0.0953401 5.52556e-25)
(45.2609 0.154854 -1.30822e-23)
(45.2708 0.2355 9.88642e-23)
(45.2714 0.363235 0)
(45.1066 0.52649 0)
(44.8244 0.764358 1.6456e-23)
(43.8732 0.857375 9.29464e-23)
(33.836 -1.25994 -1.79007e-24)
(44.6205 -2.71033 -1.80599e-22)
(45.6688 -2.11033 -3.39675e-23)
(45.7902 -1.41175 -2.36726e-25)
(45.7441 -1.02684 -1.32688e-24)
(45.4809 -0.684302 -5.52789e-23)
(45.3573 -0.528848 8.88663e-24)
(45.2533 -0.402822 1.50943e-25)
(45.164 -0.304508 -7.95526e-23)
(45.0857 -0.225259 0)
(45.0415 -0.174079 3.63674e-24)
(44.9818 -0.0918598 -9.65994e-24)
(45.0972 -0.000412225 0)
(45.1145 0.00517487 -1.12014e-24)
(45.1278 0.0181274 -8.52887e-26)
(45.1497 0.0248557 0)
(45.1722 0.0514585 0)
(45.1927 0.0702962 -3.15577e-23)
(45.2108 0.108042 1.18325e-23)
(45.2121 0.145609 1.49616e-22)
(45.1771 0.21835 1.45367e-22)
(45.0419 0.252728 1.24827e-22)
(44.8113 0.257022 0)
(44.3575 -0.075459 -7.47358e-24)
(40.1283 -1.04226 1.50749e-23)
(44.5792 -1.57917 -1.65433e-23)
(45.2234 -1.41512 1.64573e-23)
(45.4656 -1.17695 -1.7432e-23)
(45.384 -0.839433 3.20202e-23)
(45.3079 -0.657025 -6.26691e-24)
(45.2275 -0.52752 -5.93554e-27)
(45.1507 -0.411912 -1.61399e-25)
(45.0831 -0.323291 0)
(45.0194 -0.24154 -3.43493e-23)
(44.9846 -0.193882 -4.13372e-23)
(44.9327 -0.107341 -1.25612e-23)
(45.0942 -0.000163169 4.71374e-27)
(45.1083 0.00247494 -6.97071e-25)
(45.1193 0.0115208 2.35807e-24)
(45.1372 0.0140242 1.891e-28)
(45.1559 0.0312464 -6.77547e-24)
(45.1723 0.0390388 -2.10117e-23)
(45.1886 0.0559831 -1.0518e-22)
(45.1901 0.068154 -1.90205e-22)
(45.159 0.0905842 -3.04129e-23)
(45.0848 0.0548582 -5.50888e-24)
(44.988 -0.0678608 0)
(44.7828 -0.300208 -4.97188e-24)
(41.0579 -0.821373 -2.80696e-23)
(44.8365 -0.980457 -5.85337e-24)
(45.1272 -1.05068 -5.1904e-24)
(45.2927 -0.949177 -9.04182e-24)
(45.2392 -0.73422 -1.45686e-22)
(45.1789 -0.608861 0)
(45.1205 -0.502951 -2.32667e-23)
(45.0597 -0.403089 -7.73283e-24)
(45.0073 -0.327012 -1.16383e-24)
(44.9554 -0.24739 6.52777e-24)
(44.9283 -0.205604 0)
(44.8843 -0.118984 0)
(45.0935 -0.00127232 3.38107e-26)
(45.1051 -0.00230661 1.50124e-25)
(45.1153 0.00279474 5.49179e-25)
(45.1311 0.000870628 0)
(45.1492 0.0093616 -1.78542e-24)
(45.166 0.00812366 0)
(45.1869 0.00729031 -6.75583e-24)
(45.1989 0.00411595 -1.73388e-23)
(45.2102 -0.0374079 6.78873e-25)
(45.1602 -0.0620824 -3.89976e-24)
(45.1575 -0.186079 1.76928e-23)
(45.0081 -0.421458 -1.84726e-23)
(42.6875 -0.685322 -3.22563e-23)
(44.9493 -0.771312 3.21224e-24)
(45.1196 -0.808664 1.36223e-23)
(45.2039 -0.767171 4.78295e-24)
(45.133 -0.635617 -7.06421e-23)
(45.0839 -0.546162 7.88289e-23)
(45.0342 -0.465776 0)
(44.9828 -0.382677 2.91828e-23)
(44.9402 -0.32033 -2.97694e-24)
(44.8968 -0.24557 7.49312e-24)
(44.875 -0.210844 0)
(44.838 -0.127149 0)
(45.0953 -0.00337795 -1.32286e-25)
(45.1051 -0.0082426 1.86965e-25)
(45.1154 -0.00666047 -1.19506e-24)
(45.1306 -0.012523 -1.50923e-24)
(45.1503 -0.0112816 0)
(45.1701 -0.0187967 0)
(45.1984 -0.030825 9.06221e-23)
(45.2249 -0.0449422 -1.28801e-23)
(45.2578 -0.0905085 8.8804e-24)
(45.26 -0.147841 -3.56135e-23)
(45.2763 -0.234942 0)
(45.0641 -0.384881 2.00241e-24)
(42.9743 -0.614145 -7.53065e-23)
(45.0572 -0.589389 1.86223e-23)
(45.1364 -0.595382 4.73821e-23)
(45.1382 -0.572672 1.06384e-22)
(45.0704 -0.544633 6.37964e-23)
(45.0182 -0.479228 6.65496e-23)
(44.9675 -0.424147 -1.0243e-23)
(44.9201 -0.355788 -6.606e-24)
(44.8825 -0.306973 -1.47195e-23)
(44.8447 -0.238416 -5.32948e-23)
(44.8264 -0.210942 3.21828e-25)
(44.7953 -0.132224 -2.76989e-24)
(45.0993 -0.00614788 -8.84613e-25)
(45.1081 -0.0145987 2.00411e-25)
(45.1191 -0.015888 -1.16625e-24)
(45.1347 -0.024875 -2.51417e-24)
(45.157 -0.0291575 0)
(45.1805 -0.0403309 0)
(45.2165 -0.0590202 8.61192e-23)
(45.2536 -0.0752991 1.12328e-24)
(45.3091 -0.126493 -1.09283e-23)
(45.32 -0.148833 -4.46535e-23)
(45.3833 -0.290954 0)
(44.4434 -0.20784 -7.16882e-23)
(43.9929 -0.514198 9.17962e-24)
(45.1873 -0.410721 9.2717e-24)
(45.1381 -0.518082 9.64837e-24)
(45.1277 -0.47819 -2.62655e-23)
(45.0365 -0.47249 -2.00955e-23)
(44.9734 -0.420753 1.1395e-23)
(44.917 -0.384283 -2.9833e-24)
(44.8699 -0.326882 -5.1171e-23)
(44.8338 -0.290196 -1.64906e-23)
(44.7996 -0.228036 -6.94249e-23)
(44.7829 -0.207308 0)
(44.7567 -0.134774 -9.9195e-24)
(45.1053 -0.00931554 -8.32097e-25)
(45.1135 -0.0208712 -8.49932e-25)
(45.1257 -0.02436 0)
(45.142 -0.0356033 -1.77273e-24)
(45.1673 -0.0439767 0)
(45.1943 -0.0566446 -5.4517e-23)
(45.2373 -0.0800107 -5.30664e-24)
(45.2812 -0.093341 9.0779e-24)
(45.3514 -0.150589 -1.04723e-23)
(45.371 -0.151585 -1.26451e-23)
(45.4227 -0.29205 -1.08718e-23)
(44.5112 -0.203707 -7.95073e-23)
(44.056 -0.434054 3.18356e-23)
(45.2036 -0.338127 -9.14164e-24)
(45.1503 -0.450101 -5.5286e-24)
(45.121 -0.401488 -1.70847e-24)
(45.0123 -0.414416 -1.13964e-23)
(44.941 -0.369739 -1.27106e-23)
(44.8783 -0.34786 -2.87673e-23)
(44.8299 -0.298374 -7.06592e-24)
(44.7932 -0.27216 -4.40337e-24)
(44.761 -0.215968 -2.28089e-23)
(44.7448 -0.2012 -9.81249e-24)
(44.7223 -0.135327 -4.42404e-24)
(45.1129 -0.0126874 0)
(45.1207 -0.0267559 -1.79064e-24)
(45.1343 -0.0318516 -9.45133e-25)
(45.1515 -0.0445317 -1.20192e-24)
(45.1798 -0.0559319 6.04036e-24)
(45.2097 -0.0684399 -5.79507e-23)
(45.2586 -0.095408 0)
(45.3076 -0.103729 -1.30205e-23)
(45.3867 -0.164767 0)
(45.4157 -0.150781 0)
(45.4606 -0.282144 -1.57283e-25)
(44.5603 -0.192367 -1.82725e-25)
(44.1054 -0.378403 1.28174e-23)
(45.2246 -0.286573 -6.48371e-24)
(45.1644 -0.394545 -3.45014e-24)
(45.1169 -0.341172 -2.07093e-24)
(44.9957 -0.366957 2.12824e-24)
(44.9172 -0.325285 -5.5451e-24)
(44.8484 -0.315319 -7.69552e-24)
(44.7979 -0.271398 1.31238e-23)
(44.7594 -0.254109 -4.42244e-24)
(44.7283 -0.203241 0)
(44.7117 -0.193571 1.99033e-28)
(44.6921 -0.13434 0)
(45.1216 -0.0161342 0)
(45.1294 -0.0320933 -2.1502e-24)
(45.1443 -0.0383186 -1.23739e-24)
(45.1624 -0.0517076 2.68333e-24)
(45.1934 -0.0653634 0)
(45.2256 -0.0765587 2.05195e-24)
(45.2794 -0.106273 -3.81906e-23)
(45.3323 -0.108956 -2.49972e-23)
(45.4167 -0.171851 -9.95573e-25)
(45.453 -0.14693 6.27537e-26)
(45.491 -0.269296 1.67967e-23)
(44.5906 -0.180133 -1.05132e-23)
(44.138 -0.335284 1.76843e-23)
(45.2432 -0.247371 -4.64567e-24)
(45.1768 -0.350174 5.55546e-24)
(45.115 -0.293461 -5.00898e-25)
(44.9848 -0.327942 -4.86361e-24)
(44.8996 -0.287106 3.62644e-24)
(44.825 -0.286792 1.00852e-23)
(44.7723 -0.246566 -1.92533e-28)
(44.7314 -0.236808 -2.12373e-24)
(44.7007 -0.190527 -1.43233e-23)
(44.6832 -0.185116 7.39639e-24)
(44.6658 -0.132189 6.84323e-24)
(45.1312 -0.0195792 -1.19101e-24)
(45.1391 -0.0368293 -2.39637e-24)
(45.1552 -0.0438283 -3.10341e-32)
(45.174 -0.0573127 5.75825e-24)
(45.2075 -0.0726694 1.39109e-23)
(45.2415 -0.0818391 1.33369e-24)
(45.2989 -0.113645 -3.65246e-23)
(45.355 -0.110809 -2.21448e-23)
(45.4423 -0.174471 1.24719e-23)
(45.4836 -0.141812 0)
(45.5145 -0.25592 3.34377e-24)
(44.6107 -0.168249 -3.48671e-24)
(44.1607 -0.300846 5.4916e-24)
(45.2578 -0.216402 -3.62921e-24)
(45.187 -0.31396 -1.83075e-29)
(45.1143 -0.255112 -7.07658e-24)
(44.9774 -0.295636 -4.02726e-24)
(44.8864 -0.254558 -8.65516e-25)
(44.8068 -0.262034 5.44648e-24)
(44.7517 -0.224133 -7.9605e-24)
(44.7081 -0.220676 -1.21167e-23)
(44.6774 -0.178249 -6.06365e-24)
(44.6587 -0.176343 -6.3779e-24)
(44.6429 -0.129179 5.97319e-24)
(45.1413 -0.0229809 -1.26743e-32)
(45.1494 -0.0409809 -1.27328e-24)
(45.1666 -0.048501 1.40744e-24)
(45.186 -0.0615918 2.95889e-24)
(45.2215 -0.0782537 9.11613e-28)
(45.2569 -0.0850128 0)
(45.3169 -0.118424 -5.96064e-25)
(45.3753 -0.110554 -1.98662e-23)
(45.4641 -0.174249 1.05824e-23)
(45.509 -0.136157 0)
(45.5331 -0.242783 -9.10795e-29)
(44.6243 -0.157039 2.67154e-24)
(44.1772 -0.272994 -6.02383e-24)
(45.2697 -0.191563 0)
(45.1956 -0.28409 8.15106e-25)
(45.1141 -0.223994 2.03926e-24)
(44.9723 -0.268704 0)
(44.8762 -0.226873 1.72494e-24)
(44.7923 -0.240649 1.80023e-24)
(44.7349 -0.204109 -2.00662e-23)
(44.6887 -0.205899 -5.07955e-24)
(44.6579 -0.166648 5.14582e-24)
(44.6378 -0.167586 -6.55393e-24)
(44.6231 -0.125549 0)
(45.1517 -0.0263267 1.29298e-24)
(45.1599 -0.044604 -1.30965e-24)
(45.1781 -0.0524781 0)
(45.198 -0.0647996 8.06515e-25)
(45.2352 -0.0824835 2.10932e-24)
(45.2715 -0.0866769 4.20713e-25)
(45.3334 -0.121312 0)
(45.3937 -0.109027 -1.92843e-25)
(45.483 -0.172262 8.79368e-24)
(45.5304 -0.13042 0)
(45.5482 -0.230444 2.2444e-24)
(44.6329 -0.146699 1.19968e-24)
(44.1888 -0.250087 -4.09207e-24)
(45.2795 -0.171366 6.02999e-25)
(45.2028 -0.259305 -1.31707e-24)
(45.1142 -0.198564 1.37314e-26)
(44.9687 -0.246127 1.40592e-24)
(44.8683 -0.203353 -5.37289e-25)
(44.7807 -0.222218 1.52531e-26)
(44.7213 -0.186387 -7.26467e-24)
(44.6724 -0.192531 2.64768e-24)
(44.6413 -0.15585 3.05968e-24)
(44.6198 -0.159077 -1.02855e-24)
(44.6059 -0.121484 -4.80254e-25)
(45.1622 -0.0296179 -1.01805e-25)
(45.1705 -0.0477746 -1.61248e-24)
(45.1894 -0.0558962 -2.11728e-25)
(45.2097 -0.0671728 0)
(45.2482 -0.085676 2.56695e-23)
(45.2853 -0.0873012 0)
(45.3484 -0.122856 -1.46217e-23)
(45.4101 -0.106795 0)
(45.4993 -0.169254 7.41256e-24)
(45.5486 -0.124918 3.669e-24)
(45.5601 -0.219122 0)
(44.6377 -0.137423 9.66574e-25)
(44.197 -0.231095 0)
(45.2875 -0.15482 4.91244e-25)
(45.2088 -0.238583 -3.62576e-25)
(45.1144 -0.177666 0)
(44.9661 -0.227119 0)
(44.8619 -0.183411 -4.36395e-25)
(44.7712 -0.206362 6.32315e-25)
(44.7099 -0.170817 0)
(44.6587 -0.18054 0)
(44.6272 -0.145901 2.49524e-24)
(44.6043 -0.150955 4.90469e-25)
(44.5909 -0.117131 -1.99995e-24)
(45.1725 -0.0328634 9.99402e-26)
(45.1809 -0.0505726 8.69904e-26)
(45.2005 -0.0588799 0)
(45.221 -0.0689206 -2.18051e-25)
(45.2605 -0.0880935 1.24347e-23)
(45.2982 -0.0872453 -1.29841e-26)
(45.362 -0.123478 -1.31823e-23)
(45.4249 -0.104248 -3.18599e-25)
(45.5136 -0.165747 0)
(45.5641 -0.119759 4.16511e-24)
(45.5693 -0.208909 0)
(44.6395 -0.129361 0)
(44.2028 -0.215221 0)
(45.2942 -0.141107 3.37026e-24)
(45.2137 -0.221131 4.4977e-24)
(45.1146 -0.16044 0)
(44.9641 -0.211074 -1.46149e-25)
(44.8566 -0.166555 0)
(44.7634 -0.192746 0)
(44.7004 -0.157224 0)
(44.6471 -0.169856 0)
(44.615 -0.136831 -2.21981e-24)
(44.5909 -0.143304 -1.83894e-24)
(44.5777 -0.112618 2.88611e-29)
(45.1825 -0.0360725 0)
(45.1911 -0.0530713 6.31317e-25)
(45.2112 -0.0615337 -9.8547e-25)
(45.2319 -0.0702123 1.34177e-24)
(45.2721 -0.0899469 1.16233e-23)
(45.3102 -0.0867774 2.3504e-23)
(45.3744 -0.123501 0)
(45.4382 -0.10166 0)
(45.5263 -0.162108 7.42394e-25)
(45.5776 -0.11507 -7.84835e-25)
(45.5768 -0.199876 -1.34215e-31)
(44.6391 -0.12239 3.43229e-24)
(44.2065 -0.201778 6.68914e-24)
(45.3 -0.12965 2.7946e-24)
(45.2178 -0.206508 1.22491e-25)
(45.1148 -0.146181 0)
(44.9624 -0.197525 -3.47203e-24)
(44.8522 -0.152302 -4.13781e-24)
(44.7568 -0.18107 0)
(44.6922 -0.145395 -4.02525e-24)
(44.637 -0.160398 -3.5268e-39)
(44.6044 -0.128597 5.45036e-24)
(44.579 -0.136182 3.41016e-24)
(44.566 -0.108028 2.67256e-24)
(45.1922 -0.0392501 -1.29959e-24)
(45.2008 -0.0553303 5.38145e-25)
(45.2214 -0.0639357 -6.30945e-25)
(45.2422 -0.0711838 2.55267e-24)
(45.283 -0.0914001 1.06588e-23)
(45.3214 -0.0860963 4.36826e-23)
(45.3858 -0.123168 0)
(45.4502 -0.0991875 0)
(45.5376 -0.15856 6.55411e-25)
(45.5893 -0.110924 0)
(45.5828 -0.191975 0)
(44.637 -0.116438 0)
(44.2085 -0.190412 0)
(45.3048 -0.120117 -2.30318e-24)
(45.2212 -0.194262 -3.04068e-24)
(45.1149 -0.134384 -2.87881e-24)
(44.9611 -0.186113 -5.62536e-24)
(44.8484 -0.140298 -3.49021e-24)
(44.7512 -0.1711 0)
(44.6851 -0.135165 -9.86506e-25)
(44.6282 -0.152089 0)
(44.595 -0.121174 0)
(44.5685 -0.129622 1.56248e-24)
(44.5555 -0.103435 1.08055e-24)
(45.2013 -0.0423922 -1.09637e-24)
(45.2101 -0.0573938 -6.74126e-25)
(45.231 -0.0661415 -1.32056e-25)
(45.252 -0.071936 9.13928e-26)
(45.2931 -0.0925751 -2.93254e-32)
(45.3318 -0.0853505 2.03849e-23)
(45.3962 -0.122654 0)
(45.4612 -0.0969268 -7.31987e-25)
(45.5477 -0.155245 8.59773e-25)
(45.5998 -0.107346 7.40624e-25)
(45.5877 -0.185139 3.47803e-24)
(44.6337 -0.111438 2.41456e-24)
(44.2091 -0.180854 2.36529e-24)
(45.309 -0.112253 0)
(45.2241 -0.184049 0)
(45.1149 -0.124676 5.54511e-27)
(44.9598 -0.176562 2.34477e-24)
(44.845 -0.130262 1.15479e-29)
(44.7462 -0.162657 -2.04926e-24)
(44.6788 -0.126395 0)
(44.6203 -0.144857 0)
(44.5865 -0.114543 5.87931e-25)
(44.559 -0.123649 0)
(44.5458 -0.0989115 0)
(45.21 -0.0454833 0)
(45.2189 -0.0592817 -1.09821e-24)
(45.2401 -0.0681813 -6.82587e-25)
(45.2612 -0.0725345 -1.17971e-24)
(45.3026 -0.0935636 0)
(45.3416 -0.0846376 0)
(45.4058 -0.122076 0)
(45.4712 -0.0949516 -1.18364e-24)
(45.5569 -0.152272 0)
(45.6091 -0.104346 -1.35028e-25)
(45.5917 -0.179307 1.48399e-24)
(44.6294 -0.107335 9.76062e-25)
(44.2087 -0.172893 1.96109e-24)
(45.3127 -0.105861 3.00156e-24)
(45.2265 -0.175616 2.04507e-24)
(45.1149 -0.116778 0)
(44.9587 -0.168659 -1.92955e-24)
(44.8419 -0.12197 -1.99657e-24)
(44.7417 -0.1556 0)
(44.673 -0.118973 0)
(44.6131 -0.138656 0)
(44.5786 -0.108696 5.47699e-25)
(44.5502 -0.118291 0)
(44.5366 -0.0945279 0)
(45.218 -0.0484851 4.47937e-26)
(45.2272 -0.0609933 -9.09167e-25)
(45.2485 -0.0700567 1.09676e-25)
(45.27 -0.0730218 0)
(45.3115 -0.0944194 3.8575e-25)
(45.3507 -0.0839818 -3.27179e-25)
(45.4146 -0.121513 0)
(45.4806 -0.0932945 -5.47457e-25)
(45.5654 -0.149691 6.73543e-25)
(45.6176 -0.101911 5.95193e-25)
(45.5949 -0.17442 -9.99652e-26)
(44.6244 -0.104068 7.60217e-25)
(44.2074 -0.166376 3.19086e-24)
(45.3159 -0.100798 4.55581e-26)
(45.2287 -0.168778 -2.96807e-26)
(45.1148 -0.110482 1.48156e-24)
(44.9577 -0.162248 2.21877e-26)
(44.839 -0.115249 -1.0914e-25)
(44.7376 -0.149821 0)
(44.6675 -0.112812 -1.26646e-24)
(44.6065 -0.133451 -1.22003e-24)
(44.5711 -0.103637 0)
(44.5419 -0.113589 1.37489e-24)
(44.5277 -0.0903651 3.37255e-25)
(45.2252 -0.0513276 0)
(45.235 -0.0624993 -5.306e-25)
(45.2564 -0.0717474 -1.46071e-25)
(45.2783 -0.0734304 -2.25018e-26)
(45.3197 -0.0951639 0)
(45.3595 -0.083423 8.42676e-24)
(45.4227 -0.121032 -1.78046e-24)
(45.4893 -0.0919706 -4.47379e-25)
(45.5731 -0.147541 -5.63136e-25)
(45.6255 -0.100021 -4.53462e-25)
(45.5976 -0.17043 9.23551e-25)
(44.6187 -0.101583 1.11653e-24)
(44.2054 -0.161206 1.25345e-24)
(45.3188 -0.0969575 3.99713e-26)
(45.2306 -0.163408 -1.27977e-24)
(45.1146 -0.105635 -1.11228e-24)
(44.9567 -0.157216 4.24958e-26)
(44.8362 -0.109973 -1.06265e-25)
(44.7339 -0.145252 0)
(44.6623 -0.107861 -8.71186e-25)
(44.6003 -0.129239 -9.68577e-25)
(44.5639 -0.0993976 0)
(44.5339 -0.109603 4.15343e-25)
(44.5189 -0.0865284 -6.09096e-25)
(45.2319 -0.0539087 -4.18137e-25)
(45.2425 -0.063754 4.72647e-25)
(45.2637 -0.073213 -1.00355e-24)
(45.2866 -0.0737428 -1.60568e-26)
(45.3275 -0.0958027 2.72402e-25)
(45.3682 -0.0829794 8.21554e-24)
(45.4304 -0.120673 -9.07398e-25)
(45.498 -0.0909722 -2.52853e-25)
(45.5803 -0.145828 -4.51227e-25)
(45.6331 -0.0985909 -7.75386e-25)
(45.5998 -0.167217 -8.14919e-25)
(44.6127 -0.0997894 -3.79071e-25)
(44.203 -0.157377 -9.12914e-25)
(45.3215 -0.0942837 0)
(45.2324 -0.159415 -9.32625e-25)
(45.1141 -0.102104 -7.76733e-25)
(44.9558 -0.153469 1.99614e-26)
(44.8332 -0.106028 0)
(44.7303 -0.141825 6.5685e-26)
(44.657 -0.104067 9.52219e-26)
(44.5942 -0.126002 -7.20463e-25)
(44.5564 -0.0960087 -7.52385e-25)
(44.5259 -0.10639 2.77891e-25)
(44.5097 -0.0831404 0)
(45.2372 -0.0559643 -3.06392e-25)
(45.249 -0.0646328 4.18581e-25)
(45.2698 -0.0743192 -3.80057e-25)
(45.2939 -0.0739265 0)
(45.334 -0.0963004 0)
(45.3758 -0.082672 -1.85602e-24)
(45.4367 -0.120472 6.65561e-25)
(45.5056 -0.0903273 -2.83906e-25)
(45.5863 -0.144674 -6.15604e-25)
(45.6398 -0.0976789 -9.52007e-26)
(45.6015 -0.164983 5.64099e-25)
(44.607 -0.0986722 0)
(44.2005 -0.154879 0)
(45.3237 -0.0926453 0)
(45.234 -0.156813 0)
(45.1135 -0.0998375 -1.3571e-26)
(44.9551 -0.151035 0)
(44.8304 -0.10343 0)
(44.7273 -0.139586 5.55744e-26)
(44.6521 -0.101508 0)
(44.5891 -0.123833 0)
(44.5497 -0.09363 0)
(44.5189 -0.104131 2.4539e-25)
(44.5012 -0.0804915 0)
(45.2437 -0.0575089 0)
(45.2589 -0.0652235 -3.02972e-26)
(45.2777 -0.0751353 -8.19542e-26)
(45.3056 -0.0740407 -5.17194e-27)
(45.3422 -0.0967152 7.50699e-26)
(45.3884 -0.082496 -3.14325e-24)
(45.4447 -0.120418 -3.45236e-26)
(45.518 -0.0899128 1.38458e-28)
(45.5937 -0.143818 8.30221e-32)
(45.6499 -0.0965473 -1.39055e-29)
(45.603 -0.162329 6.65633e-25)
(44.6 -0.0976596 0)
(44.1971 -0.154491 4.22251e-26)
(45.3259 -0.0924517 -7.89356e-26)
(45.2366 -0.155346 -3.14459e-25)
(45.1116 -0.0984886 -2.53395e-25)
(44.9549 -0.149561 0)
(44.8252 -0.101792 0)
(44.7238 -0.138192 0)
(44.6439 -0.0998443 0)
(44.5821 -0.122432 0)
(44.5385 -0.092013 0)
(44.5086 -0.102601 1.74636e-25)
(44.487 -0.0785197 0)
(48.4566 -3.62523 9.19167e-25)
(50.4001 5.79251 3.25896e-24)
(45.5805 6.49538 1.42341e-23)
(49.92 -0.5878 -1.57857e-24)
(53.0747 1.63964 -6.16464e-25)
(50.9232 5.36871 -2.70919e-24)
(48.9318 2.24091 -8.62071e-25)
(52.2554 -2.68523 -6.92741e-24)
(53.1747 1.04377 -2.03544e-24)
(46.6954 3.22705 -2.78759e-24)
(49.401 -4.95736 1.0806e-23)
(51.949 -3.10024 0)
(44.7331 2.60039 2.91011e-28)
(46.328 -5.00575 -7.57522e-24)
(49.0046 -5.08946 6.49699e-24)
(43.8747 1.04747 0)
(37.2264 -0.451924 -1.63525e-24)
(33.2639 -1.36259 3.64181e-24)
(44.4342 -3.2135 3.76759e-23)
(45.9856 -4.86283 -1.14929e-23)
(44.4718 -4.24436 7.46714e-24)
(41.1101 0.0550292 1.90662e-24)
(44.9231 6.14178 2.02774e-23)
(43.276 2.92347 4.49921e-23)
(46.9434 -1.75179 -5.23873e-24)
(48.2371 -3.2231 2.62438e-25)
(45.3313 -3.98894 -1.00379e-23)
(48.3424 10.755 0)
(42.6307 9.99989 -1.14705e-23)
(50.1518 5.27937 0)
(48.4579 2.93045 5.31436e-25)
(46.8301 3.34072 -6.194e-23)
(47.7454 -0.451097 5.7881e-24)
(49.6041 -0.522 -1.44696e-24)
(48.5351 -2.92312 3.01832e-25)
(49.5022 -2.17875 -2.7601e-25)
(50.9455 -2.66917 2.54225e-25)
(50.031 -4.53718 -2.84386e-25)
(53.9019 5.13915 2.70549e-24)
(52.2934 7.8449 1.15539e-24)
(52.5998 1.52431 2.47324e-25)
(49.8571 1.05896 -1.79825e-23)
(48.9306 2.56707 6.77043e-24)
(47.4673 0.907045 1.18059e-23)
(48.7619 1.99024 7.61574e-25)
(49.6165 -0.148901 -2.57761e-27)
(49.7042 0.991793 9.75441e-29)
(51.0966 1.63563 -1.52321e-24)
(51.4654 -0.314818 -2.21822e-26)
(54.6539 -2.08733 1.07809e-25)
(54.9258 1.51645 -2.27478e-24)
(51.9107 -2.52706 -8.26568e-24)
(49.7414 -1.151 2.45472e-24)
(49.9723 0.483263 -1.8526e-23)
(46.4892 1.59783 -1.05545e-23)
(46.715 2.94049 1.359e-24)
(48.5359 2.21138 0)
(47.8556 2.97627 0)
(48.2144 4.21282 -5.28424e-25)
(49.6013 3.50776 -7.2932e-26)
(51.1584 -6.00735 -2.22769e-25)
(53.0182 -4.45108 2.30518e-24)
(49.348 -4.60227 4.69645e-28)
(48.4779 -2.60569 3.39705e-23)
(49.5021 -1.61304 2.90542e-23)
(47.1463 -7.07673 -8.82406e-25)
(49.0373 -6.8365 -1.0697e-25)
(46.5097 -4.66905 4.93558e-24)
(46.8871 -2.97179 0)
(48.078 -2.79679 0)
(43.3654 -5.29354 8.74524e-25)
(44.9003 -6.53936 0)
(44.2062 0.0434685 0)
(40.4263 -0.322625 1.65364e-23)
(37.5631 -0.544777 1.00383e-27)
(38.6635 -1.21052 5.91555e-24)
(44.2388 -1.73508 0)
(44.3463 -2.95439 0)
(49.8584 -4.81075 2.04564e-25)
(47.9126 -6.64524 1.40708e-24)
(47.196 -4.42504 8.57985e-24)
(48.0267 -7.06972 4.00366e-25)
(50.0198 -5.01177 9.47548e-25)
(43.0962 -7.49713 1.66972e-23)
(47.5941 -7.36665 1.7757e-24)
(52.1499 8.02751 -1.36329e-25)
(48.7175 10.572 -1.71195e-25)
(48.5065 6.75541 -3.07024e-24)
(48.8642 9.92125 -3.03069e-25)
(51.9855 7.79063 8.08356e-26)
(51.4443 -0.586827 2.31141e-25)
(51.0352 -2.40628 0)
(49.6632 -1.78702 3.79489e-25)
(51.1285 -2.57945 9.25267e-27)
(51.55 -0.489407 8.17926e-28)
(50.2115 -4.71878 -4.59102e-25)
(51.0854 -2.71423 1.0049e-26)
(54.8716 1.7953 -3.28115e-24)
(53.9883 4.94564 6.0451e-24)
(52.4553 3.36154 -5.11649e-25)
(53.935 4.65648 -8.11768e-25)
(54.8927 2.07398 1.54645e-24)
(52.1391 7.61974 1.0454e-24)
(53.8454 4.85552 2.95525e-24)
(52.1496 3.90017 -4.97557e-25)
(49.7796 3.36294 0)
(50.9618 1.89222 -1.28619e-24)
(49.5537 1.34971 2.83262e-25)
(51.1158 2.10142 -1.07498e-25)
(49.7834 3.54705 1.15339e-26)
(51.5634 -0.33977 -7.76305e-28)
(51.183 1.96641 -5.29003e-25)
(53.1265 -4.32196 -5.45399e-25)