/*--------------------------------*- C++ -*----------------------------------*\
| =========                 |                                                 |
| \\      /  F ield         | OpenFOAM: The Open Source CFD Toolbox           |
|  \\    /   O peration     | Version:  5.x                                   |
|   \\  /    A nd           | Web:      www.OpenFOAM.org                      |
|    \\/     M anipulation  |                                                 |
\*---------------------------------------------------------------------------*/
FoamFile
{
    version     2.0;
    format      ascii;
    class       volScalarField;
    location    "200";
    object      p;
}
// * * * * * * * * * * * * * * * * * * * * * * * * * * * * * * * * * * * * * //

dimensions      [0 2 -2 0 0 0 0];

internalField   nonuniform List<scalar> 
6584
(
32.7096
31.6744
30.795
30.3833
30.3645
30.866
31.8628
33.3898
35.105
36.7889
37.4283
35.9296
31.4613
24.1472
15.0588
5.54262
-3.33156
-11.2324
-17.9643
-23.6424
-28.3733
-32.3912
-35.6558
-38.6446
32.4337
31.4756
30.5406
30.1152
30.0529
30.5499
31.5744
33.2624
35.2345
37.3747
38.4868
37.3321
32.8024
25.021
15.3655
5.25471
-3.91407
-11.9329
-18.6364
-24.2406
-28.8662
-32.8275
-35.9867
-39.0621
31.8385
30.8981
29.8584
29.3559
29.1808
29.6372
30.7307
32.8638
35.3998
38.1963
41.7802
42.7146
39.1043
30.5363
19.0982
4.16589
-5.70074
-13.9698
-20.5491
-25.8937
-30.2269
-33.9723
-36.9116
-39.9548
31.0575
30.0541
28.8582
28.1921
27.8058
28.0923
29.1988
31.7617
35.8768
40.3874
47.1375
51.5467
48.6947
36.8918
21.188
6.51833
-8.83434
-17.3529
-23.5802
-28.4074
-32.2525
-35.6108
-38.2341
-41.1025
30.1526
29.0089
27.5991
26.6488
25.9018
25.7522
26.5467
29.1079
33.2154
41.7336
53.3521
65.0599
64.3591
45.3958
21.3724
2.38042
-10.5667
-22.6681
-27.9889
-31.7685
-34.8598
-37.6241
-39.8336
-42.3929
29.1776
27.8191
26.1377
24.7604
23.4528
22.3697
22.3019
23.582
28.7603
38.0542
55.5581
87.0488
100.213
63.6584
16.6004
-7.48117
-19.996
-29.7258
-33.5613
-35.8371
-37.9164
-39.8859
-41.5939
-43.7189
28.2089
26.5779
24.5908
22.6786
20.6697
18.3441
16.8515
16.7934
17.8294
24.081
46.1792
104.761
191.676
70.3576
2.8002
-27.1682
-33.9758
-38.9191
-40.1047
-40.3684
-41.1848
-42.1961
-43.3473
-44.9414
27.3319
25.4037
23.1208
20.6438
17.8739
14.1797
10.6042
8.32577
2.66077
-2.93265
-0.108016
29.1747
-8.77654
-52.7058
-58.5251
-52.5856
-49.2049
-46.8983
-44.8653
-44.2931
-44.2877
-44.8897
-45.9087
26.623
24.4189
21.905
18.949
15.5251
10.6902
5.09527
0.0256733
-12.6439
-33.7352
-65.2342
-146.269
-231.278
-131.808
-93.113
-71.3501
-58.4165
-52.6278
-48.5674
-46.7576
-45.8565
-46.0068
-46.4815
26.1357
23.7241
21.0967
17.8687
14.1031
8.77941
2.0951
-4.86519
-20.8142
-48.9629
-95.6605
-202.417
-337.798
-181.052
-113.974
-83.227
-63.9
-55.8516
-50.6786
-48.1073
-46.6278
-46.514
-46.5562
25.8861
23.3684
20.7686
17.5362
13.8415
8.84111
2.4246
-4.67578
-18.5816
-41.6415
-78.8783
-151.425
-299.102
-175.205
-112.149
-83.8538
-64.0154
-55.7597
-50.7393
-48.0647
-46.4442
-46.3052
-46.0884
25.8493
23.3328
20.8835
17.8838
14.611
10.5511
5.5012
-0.157926
-8.48062
-19.4683
-34.3853
-51.0676
-184.09
-128.674
-91.6659
-74.1599
-59.0861
-52.5598
-48.8069
-46.6611
-45.3154
-45.3841
-45.1035
25.967
23.5394
21.3122
18.6836
16.0103
13.1068
9.83426
6.32894
3.81048
4.20992
9.08415
33.7257
-60.2874
-70.8302
-63.8366
-58.9584
-51.0086
-47.3046
-45.3793
-44.194
-43.4283
-43.859
-43.69
26.1668
23.8811
21.888
19.6554
17.5703
15.6926
13.9228
13.9718
13.2998
20.4352
32.4153
70.3388
151.285
17.4631
-26.2877
-39.2467
-43.5272
-42.0901
-41.3004
-41.1763
-41.1007
-41.0359
-41.9046
-41.9735
26.3797
24.2533
22.4596
20.5617
18.924
17.7145
16.879
17.5144
18.7699
25.7033
36.5134
55.4583
61.5908
27.1747
-7.08235
-22.9917
-30.5636
-33.8751
-35.5572
-36.8529
-37.8006
-38.405
-39.7094
-40.0829
26.5527
24.5763
22.9248
21.2656
19.9022
19.0325
18.566
19.5004
20.789
25.4995
33.2342
38.8027
33.6692
16.0411
-0.265547
-14.0695
-23.5767
-27.6348
-30.6787
-32.8608
-34.608
-35.7787
-37.4539
-38.1526
26.653
24.8024
23.2335
21.7207
20.4786
19.7284
19.228
20.1105
20.8102
22.9275
26.0793
26.0866
22.3395
11.9971
0.544032
-9.48034
-18.1199
-22.9233
-26.67
-29.3904
-31.6946
-33.2858
-35.2538
-36.2581
26.6656
24.9111
23.374
21.9333
20.697
19.9089
19.1898
19.4553
19.9297
19.5781
21.1011
21.8531
11.1878
7.83484
-2.19022
-8.04713
-14.3861
-19.522
-23.4756
-26.493
-29.1361
-31.022
-33.1908
-34.4621
26.5891
24.9022
23.3591
21.9387
20.6376
19.7341
18.7341
18.5143
17.7783
18.8419
11.1285
18.421
13.3404
-0.668361
-0.210596
-7.52528
-12.5859
-17.2759
-21.0578
-24.1583
-26.9554
-29.0295
-31.3173
-32.8089
26.4306
24.7875
23.2147
21.7856
20.3845
19.3601
18.0448
17.6196
15.7449
17.073
11.074
14.4756
10.8237
0.737404
-0.128212
-7.37646
-11.2416
-15.6849
-19.2037
-22.2907
-25.1206
-27.3065
-29.651
-31.3171
26.2022
24.585
22.9695
21.5191
20.003
18.8817
17.2634
16.7285
14.2406
15.056
10.0981
10.7094
7.6334
0.759558
-0.741752
-7.152
-10.2485
-14.5191
-17.7502
-20.7917
-23.5826
-25.8321
-28.1885
-29.989
25.9174
24.3137
22.6501
21.1756
19.543
18.3482
16.4764
15.826
13.036
13.3067
8.86918
8.45415
5.63639
0.189053
-1.39252
-6.98249
-9.60332
-13.6628
-16.611
-19.5887
-22.2969
-24.5789
-26.9168
-28.8183
25.5899
23.9916
22.2797
20.7832
19.0426
17.791
15.7274
14.9597
12.039
11.8979
7.90969
6.93073
4.31025
-0.251683
-1.92035
-6.86683
-9.18376
-13.0172
-15.7168
-18.6201
-21.2232
-23.5176
-25.8174
-27.7932
25.2323
23.6349
21.8778
20.3631
18.5293
17.2324
15.0343
14.1565
11.2064
10.736
7.11471
5.76524
3.29091
-0.62624
-2.36497
-6.78203
-8.90143
-12.5155
-15.0093
-17.8337
-20.3255
-22.6192
-24.8702
-26.8987
24.8559
23.2568
21.4597
19.9306
18.0207
16.6864
14.4014
13.4213
10.5009
9.7633
6.44278
4.8669
2.48581
-0.961966
-2.74456
-6.71943
-8.71011
-12.117
-14.4444
-17.189
-19.5725
-21.8567
-24.0541
-26.1187
24.4701
22.8682
21.0373
19.4968
17.528
16.1617
13.8271
12.7533
9.89565
8.94507
5.85973
4.15104
1.84364
-1.24137
-3.0614
-6.6721
-8.58028
-11.7953
-13.9903
-16.655
-18.9379
-21.2063
-23.3497
-25.4373
24.0829
22.4774
20.6192
19.0693
17.0577
15.6626
13.3072
12.1494
9.37142
8.25751
5.35586
3.58148
1.35833
-1.47109
-3.32488
-6.63688
-8.49272
-11.5315
-13.6219
-16.2083
-18.401
-20.6493
-22.7406
-24.8397
23.7003
22.0907
20.2114
18.6534
16.6129
15.1914
12.8364
11.6047
8.91182
7.67498
4.92999
3.12775
0.962786
-1.69613
-3.54757
-6.60864
-8.42891
-11.3076
-13.3165
-15.8273
-17.9415
-20.166
-22.2094
-24.3109
23.3273
21.7129
19.8181
18.2518
16.1948
14.7483
12.4091
11.1137
8.50447
7.17261
4.55999
2.74356
0.627908
-1.88693
-3.73144
-6.58596
-8.3808
-11.1152
-13.0597
-15.4975
-17.5437
-19.7415
-21.7413
-23.8384
22.9675
21.3473
19.4419
17.8666
15.8027
14.3322
12.0188
10.6682
8.14139
6.73532
4.23517
2.41436
0.34176
-2.04924
-3.88528
-6.56668
-8.34229
-10.9467
-12.84
-15.2071
-17.1949
-19.363
-21.3236
-23.4102
22.6234
20.9957
19.0836
17.4981
15.435
13.9416
11.6594
10.26
7.81312
6.34924
3.94615
2.12829
0.094252
-2.19089
-4.01612
-6.54925
-8.30922
-10.7959
-12.6476
-14.9464
-16.8841
-19.0198
-20.9454
-23.016
22.2973
20.6596
18.7446
17.1459
15.0907
13.5731
11.3281
9.88491
7.51434
6.00399
3.68529
1.87493
-0.125157
-2.31912
-4.12964
-6.53295
-8.27895
-10.6579
-12.4757
-14.7077
-16.6025
-18.7028
-20.5974
-22.6467
21.9889
20.3369
18.4225
16.8065
14.7648
13.2191
11.0192
9.53394
7.2385
5.68888
3.44641
1.64532
-0.322599
-2.43625
-4.22933
-6.51643
-8.2503
-10.5283
-12.3188
-14.4841
-16.3422
-18.4034
-20.2704
-22.2928
21.7069
20.0349
18.125
16.4855
14.4638
12.8856
10.7383
9.20985
6.9911
5.40447
3.22332
1.43124
-0.506985
-2.55678
-4.31946
-6.49798
-8.22149
-10.4029
-12.1732
-14.2712
-16.0998
-18.1181
-19.9615
-21.9511
21.4217
19.7152
17.8185
16.1388
14.1552
12.5241
10.4521
8.85984
6.74048
5.10537
3.01304
1.22435
-0.675772
-2.65394
-4.40508
-6.47306
-8.20031
-10.2749
-12.0371
-14.0552
-15.8626
-17.8259
-19.6501
-21.5942
21.2574
19.516
17.6375
15.9172
13.9772
12.2938
10.2986
8.65321
6.62885
4.95789
2.79628
1.01912
-0.866585
-2.90107
-4.47126
-6.4294
-8.1582
-10.1439
-11.9128
-13.8645
-15.6668
-17.5827
-19.3994
-21.3018
-131.123
-225.625
1.54167
-201.433
-362.103
-251.912
-162.367
-334.776
-368.231
-63.6224
-209.411
-321.388
25.2451
-71.3049
-192.148
70.1505
169.666
164.098
24.7537
-55.4347
51.2725
191.326
30.8229
92.2255
-50.781
-114.68
22.914
-162.793
108.003
-208.019
-126.579
-51.3805
-92.7337
-181.799
-128.581
-180.344
-261.194
-219.883
-451.693
-362.857
-332.329
-199.046
-149.553
-86.8914
-149.879
-182.703
-194.952
-271.1
-285.37
-496.856
-507.055
-310.203
-205.056
-207.025
-46.4418
-61.4592
-140.079
-115.169
-138.768
-202.413
-328.506
-420.509
-199.855
-155.288
-196.408
-146.859
-229.22
-74.7174
-85.7017
-138.301
35.7195
-40.1346
61.0325
66.6992
154.27
64.1881
40.7047
28.6816
-211.703
-120.39
-72.0043
-133.273
-228.119
91.1772
-114.591
-355.277
-187.217
-135.065
-178.531
-345.525
-284.26
-265.178
-187.949
-275.123
-294.798
-236.171
-274.44
-501.676
-456.19
-329.195
-441.363
-496.758
-352.066
-437.3
-313.649
-210.679
-265.027
-188.752
-274.767
-215.667
-294.155
-278.931
-425.091
-492.55
-364.659
-490.412
-414.715
-500.002
-494.138
-369.944
-133.696
-67.1328
-210.094
-143.422
-235.039
-322.55
-259.327
-319.899
-234.536
-409.602
-325.699
-275.699
7.55867
51.5154
-58.0796
0.376485
-51.9265
-135.291
-223.549
-145.22
-139.252
98.9176
115.559
56.4983
95.9892
88.3283
43.0761
-48.1406
-100.736
80.7536
-46.1811
253.594
-0.424776
20.3333
-50.0236
-15.1786
-2.11777
-58.1947
16.9945
-33.9511
14.0057
-28.5652
-69.1368
183.408
-75.3609
89.6937
-151.012
-100.699
-66.6586
-129.493
-102.321
-104.107
-65.5238
43.6674
65.5194
-60.1452
-23.8005
-41.0058
-89.2836
-121.977
-133.746
-54.6164
68.4459
95.005
-43.5383
24.9804
-12.3084
314.366
200.271
120.9
139.598
209.397
317.739
-83.5902
-52.8826
-93.3452
229.41
-55.3556
-13.1722
-417.955
-409.18
-512.603
-511.634
-369.53
-376.266
-180.9
-148.996
-184.087
71.4885
24.0642
-35.2265
14.0713
-5.09488
-207.538
-184.059
-251.609
-212.66
-254.779
-196.868
-201.224
-84.858
-36.1646
-103.443
-196.62
-287.917
-278.584
-287.517
-287.438
-255.21
-256.729
-481.556
-480.926
-476.292
-405.17
-382.607
-425.274
-411.02
-478.395
-400.181
-333.935
-294.772
-374.35
-345.106
-406.408
-251.256
-246.228
-294.843
-292.541
-461.787
-464.741
-462.797
-402.492
-420.01
-373.181
-395.511
-458.959
-507.148
-433.104
-428.401
-424.67
-432.471
-507.438
-108.961
-105.967
-109.524
-147.93
-65.8249
-104.359
-96.0094
-182.577
-152.407
-172.529
-276.261
-282.515
-370.004
-338.102
-365.168
-300.285
-328.708
-364.419
17.2816
41.2084
-31.4608
-24.4767
-60.4765
11.2613
-19.8508
-23.1903
-18.8765
13.2854
-87.5255
-89.9368
-42.0212
-143.646
-95.8589
-100.038
-94.3584
128.57
144.461
189.753
98.49
122.806
191.578
113.212
76.2135
462.491
29.3376
57.1193
28.1483
54.9535
83.8759
54.8046
100.232
77.7261
87.2085
272.649
46.6359
4.81799
-4.22471
60.4408
69.0714
227.963
146.733
142.571
73.2398
84.8383
123.896
120.953
193.801
473.286
324.683
214.642
291.186
362.49
486.353
-247.238
-205.606
-222.607
-441.434
-388.987
-384.742
-283.045
-237.94
-230.75
-241.415
-241.632
-284.967
-506.092
-508.657
-346.381
-402.397
92.8716
78.4003
5.99836
20.5822
61.0783
110.233
90.8845
103.578
-5.38888
-61.6358
171.083
-327.964
-357.426
-384.59
-256.957
-210.006
-144.803
-279.973
-227.792
-278.732
-278.261
-236.491
-242.913
-224.605
-236.209
-275.595
-281.686
-304.839
-296.587
-321.162
-320.264
-291.53
-294.086
-288.459
-266.83
-495.744
-466.798
-457.028
-427.352
-418.951
-461.863
-453.512
-490.409
-224.901
-211.435
-243.644
-265.955
-285.292
-302.493
-296.408
-325.717
-322.418
-306.598
-317.848
-285.682
-440.975
-482.111
-479.837
-445.709
-454.024
-405.116
-408.152
-432.232
-503.914
-468.191
-462.019
-458.54
-463.81
-502.251
-252.431
-260.524
-241.416
-330.606
-317.695
-307.112
-280.414
-261.097
-290.523
-221.167
-250.846
-268.851
27.6651
37.0154
15.0766
61.8115
43.4038
33.746
140.091
148.207
75.1257
89.1278
68.2133
128.555
138
112.863
98.1746
65.9115
352.33
114.855
26.1895
-5.75388
-1.69005
26.424
-10.1055
-13.1365
55.928
44.818
258.43
-7.33912
17.218
-88.1711
-80.4154
52.7826
58.0577
52.9675
58.0561
51.2038
69.1244
60.5352
55.6389
-43.8053
-38.1927
-61.2795
-68.3003
79.2815
83.4776
72.2932
89.2579
104.236
-154.397
-130.417
-52.7813
-210.089
-152.475
-177.586
-437.725
-390.893
-508.296
-512.51
-351.692
-396.455
-172.441
-169.849
-188.39
-146.555
-164.158
-164.809
-218.95
-237.747
-194.307
-211.739
51.8485
68.4121
86.0601
33.2825
60.5741
45.8571
66.1264
36.3783
-231.054
-201.922
-223.326
-164.912
-193.636
-223.007
-248.32
-259.02
-229.167
-244.431
-154.241
-117.129
-155.079
-170.297
-184.829
-329.393
-349.625
-320.415
-330.322
-281.104
-228.145
-322.105
-295.247
-241.213
-277.278
-319.048
-313.876
-308.229
-282.111
-311.977
-317.904
-307.162
-308.083
-326.438
-324.541
-317.108
-323.367
-291.787
-318.52
-314.228
-280.328
-290.43
-262.592
-275.932
-299.355
-304.595
-292.665
-298.91
-265.845
-287.2
-280.963
-495.253
-467.2
-441.452
-429.33
-462.049
-488.413
-452.765
-442.69
-266.457
-280.397
-261.386
-289.919
-275.751
-308.642
-294.59
-252.858
-233.256
-270.505
-257.471
-326.208
-325.356
-295.061
-329.923
-333.176
-326.573
-331.308
-323.392
-310.528
-330.164
-326.217
-289.002
-320.216
-324.733
-446.525
-474.814
-430.596
-440.54
-474.493
-440.27
-413.769
-425.336
-470.373
-467.395
-506.125
-504.346
-467.248
-468.338
-125.435
-124.049
-121.902
-106.77
-143.033
-127.183
-131.795
-81.9812
-79.5676
-68.1747
-101.565
-84.96
-87.7692
-205.992
-189.64
-227.073
-211.528
-167.196
-163.272
-148.12
-184.455
-168.362
-174.767
-285.083
-267.737
-258.951
-268.457
-284.432
-243.03
-260.875
-290.447
-301.039
-310.801
-288.801
28.5149
33.5168
24.2151
48.7763
37.2479
32.0524
50.3308
-4.24103
19.4544
0.583394
-124.015
-122.992
-140.489
-95.75
-116.969
-117.029
-116.193
-123.067
152.045
169.29
109.949
124.48
147.694
119.321
15.8104
-28.641
14.1684
-0.670503
37.2771
65.9479
635.428
468.46
387.558
497.27
543.651
656.488
81.5565
171.382
117.753
-177.916
-201.585
-241.592
-447.593
-449.963
-454.823
-502.793
-507
-178.135
-157.204
-175.934
-421.522
-415.721
-415.037
-235.555
-216.658
-211.867
-180.992
-139.282
-171.275
-252.916
-239.59
-218.716
-216.697
-263.381
-229.668
-242.312
-267.92
-256.621
-497.886
-460.967
-465.478
-460.481
-481.334
-478.815
-493.953
-410.921
-402.528
-425.93
-235.611
-204.169
-186.241
-227.622
-243.621
-229.366
-430.338
-427.801
-424.205
-489.673
-487.192
-470.54
-473.84
-501.441
-485.509
-483.73
-477.414
-480.733
-498.122
-201.115
-208.854
-222.687
-392.813
-381.364
-393.539
-190.182
-180.64
-210.827
146.593
147.612
115.447
96.3839
79.883
146.234
146.703
71.8797
99.9824
67.8788
-34.1571
-13.2925
-99.1927
-64.6886
-69.9521
-71.0645
-54.764
-53.9158
-59.3025
-22.4175
-27.2134
-28.7094
-87.9189
-82.0046
-82.955
101.996
87.7667
82.6212
198.987
313.233
263.524
-106.313
-123.909
-104.082
-72.8718
-225.46
-206.313
-27.4133
49.6417
68.4022
-429.486
-432.015
-425.043
-402.024
-416.27
-422.706
-516.037
-512.32
-376.015
-369.626
-362.987
-383.672
-388.452
-381.635
-184.667
-189.678
-148.37
-154.217
-154.193
-194.405
-199.191
-205.675
-210.06
-193.556
-216.007
-243.569
-244.28
-250.195
-188.994
-198.982
-221.447
-271.274
-276.56
-254.658
-257.436
-254.671
-60.528
-106.109
-138.895
-126.349
-118.573
-130.826
-181.026
-258.213
-247.296
-278.856
-271.124
-244.337
-280.393
-280.995
-484.788
-480.323
-370.827
-358.129
-380.914
-422.38
-393.331
-382.706
-234.624
-248.265
-261.586
-456.2
-466.831
-490.806
-490.765
-507.283
-508.441
-490.774
-490.681
-113.835
-114.882
-113.811
-108.282
-147.558
-142.592
-143.634
-188.064
-203.657
-192.597
-199.61
-194.589
-229.499
-225.415
-157.107
-157.561
-152.496
-189.963
-185.427
-359.009
-369.941
-387.114
-348.638
-338.821
-348.818
-38.9281
-37.8437
-28.7104
-58.6469
-48.0199
-44.2959
-68.9644
-73.2918
-89.1644
-47.8667
-60.8481
-62.0198
-137.305
-136.241
-142.21
-102.365
-94.9657
-139.541
172.285
173.964
183.862
120.947
112.516
120.626
107.091
134.503
124.445
116.977
180.563
151.567
91.8221
108.331
96.0794
192.159
376.653
100.822
63.042
65.9081
175.75
177.485
200.97
76.8309
76.5273
72.0902
85.2338
80.7843
80.6699
196.767
162.65
154.403
344.118
489.739
441.467
-445.823
-446.96
-444.382
-391.591
-393.357
-387.114
-405.703
-394.8
-506.121
-506.619
-351.284
-355.321
-336.562
-344.002
-408.582
-408.289
-402.013
86.5642
90.8276
97.32
80.6186
85.5005
81.1066
-365.971
-364.366
-355.475
-380.583
-372.697
-375.597
-495.453
-463.768
-466.633
-467.196
-491.769
-476.715
-474.708
-436.701
-431.249
-436.764
-488.704
-463.13
-467.17
-484.45
-488.149
-486.655
-502.292
-500.849
-483.469
-485.366
-325.017
-325.988
-329.373
-315.798
-320.817
-321.186
149.469
152.106
138.678
142.3
132.232
138.198
134.33
118.384
111.29
107.575
112.521
117.824
101.956
106.082
102.928
51.1019
28.5627
17.4135
84.9038
297.369
255.033
326.498
138.546
171.319
221.192
7.00159
5.36128
-3.03599
22.2766
14.0462
15.8331
-25.0244
-24.3055
-32.4617
-11.093
-18.4751
-17.7166
74.5689
92.2895
33.5505
-65.3081
-96.9002
-23.0581
-29.5098
-94.3117
-76.4533
-75.277
-82.067
54.1383
55.89
47.9515
50.5763
53.4536
-43.0921
-48.56
-49.3576
-26.1395
-21.2283
-32.1455
-33.0717
-30.7827
-37.5863
-58.9513
-53.5086
-54.9467
-51.9233
-59.5955
-39.1305
-45.5252
-75.8621
-75.0639
-67.5983
93.9402
94.886
89.938
105.924
100.197
98.929
-162.173
-133.219
-129.029
-197.738
-205.955
-185.696
-433.465
-432.008
-437.966
-443.519
-414.137
-411.808
-425.042
-418.182
-512.774
-514.247
-368.19
-373.672
-359.181
-363.425
-357.071
-363.947
-358.872
-397.043
-392.461
-390.328
-382.567
-170.581
-178.801
-159.336
-160.005
-165.731
-226.048
-226.642
-219.042
-237.941
-233.596
-232.389
-200.018
-200.44
-195.112
-212.143
-204.385
-205.286
-205.767
42.1101
38.3004
29.8464
55.9801
45.9501
-221.852
-231.05
-238.342
-236.973
-227.018
-210.598
-220.297
-265.413
-267.381
-273.715
-269.914
-255.209
-254.415
-262.578
-157.064
-141.205
-152.503
-115.37
-192.37
-181.541
-173.042
-339.428
-322.61
-311.689
-345.33
-335.284
-348.787
-352.702
-340.532
-262.864
-265.08
-283.525
-248.414
-263.585
-246.556
-310.355
-296.158
-302.661
-306.78
-315.696
-318.699
-308.522
-312.17
-312.357
-310.721
-309.423
-325.245
-323.905
-318.126
-320.413
-285.681
-291.394
-285.593
-292.948
-292.429
-288.576
-266.181
-279.306
-276.974
-285.743
-282.327
-270.427
-282.8
-284.774
-300.508
-302.769
-301.897
-308.285
-305.206
-302.366
-295.095
-298.573
-295.424
-303.086
-303.418
-297.856
-489.081
-474.364
-285.809
-287.366
-289.796
-276.224
-282.715
-281.166
-304.013
-292.452
-296.591
-298.23
-246.949
-248.643
-255.322
-235.361
-241.44
-240.132
-265.839
-266.179
-270.536
-259.493
-262.517
-261.541
-330.408
-332.032
-329.336
-332.497
-317.996
-313.689
-327.305
-325.935
-450.71
-470.049
-507.521
-490.696
-489.57
-487.545
-489.478
-506.92
-118.822
-124.501
-119.441
-120.19
-138.382
-137.045
-130.628
-212.042
-205.315
-200.384
-205.734
-211.687
-222.208
-226.914
-229.75
-217.36
-222.177
-216.798
-222.326
-218.552
-168.524
-162.935
-161.985
-180.596
-173.14
-279.816
-276.374
-282.342
-263.856
-270.274
-274.261
-275.668
-280.357
-246.809
-248.445
-242.345
-254.184
-302.89
-302.101
-309.45
-287.886
-294.605
-296.047
30.1975
29.178
32.6231
22.0572
25.8088
27.3804
46.4316
42.8841
45.3545
36.1878
39.8063
41.2967
45.6458
-6.52273
-1.67556
-16.3884
-11.2933
14.6257
13.2445
17.5624
3.42279
9.92042
8.72144
-123.421
-130.127
-130.965
-109.27
-130.369
156.246
161.936
115.287
120.724
112.47
130.006
124.943
119.818
128.861
134.935
136.974
125.266
56.0616
73.6272
59.6096
80.7706
90.811
67.141
89.3624
70.2285
56.7695
59.7733
34.3709
33.3556
32.3702
43.051
46.4409
51.4533
88.3482
78.0632
108.165
173.246
101.621
173.298
97.0689
76.1176
72.0928
21.759
30.4628
10.1591
-6.34208
2.79964
12.1457
11.6098
38.0754
15.3015
41.4903
87.4071
101.756
166.107
146.57
275.341
199.81
159.889
70.8429
36.97
47.7292
-34.794
-36.7156
-18.883
-19.176
-41.6991
-0.845019
-17.1282
-21.0744
0.903425
4.51197
7.38514
37.3332
-95.4393
-88.7666
-36.4101
-113.187
-83.9231
-59.2039
-44.1306
-76.8276
-53.3649
-77.3819
-96.5163
-81.9481
-159.594
-179.744
-165.648
-287.602
-224.183
-178.496
-174.133
-125.496
-107.198
-47.9189
-73.3924
-79.3931
-95.6474
-116.253
-117.171
-201.868
-223.882
-224.485
-339.316
-270.869
-262.866
-181.935
-138.683
-136.334
-31.5652
-40.8551
-66.9703
-69.1913
-80.6842
-93.1766
-139.901
-151.675
-165.034
-260.166
-220.949
-245.691
-142.696
-120.517
-132.909
-7.07702
-2.31773
-30.8801
-38.6969
-38.8457
-52.6619
-135.921
-126.251
-163.269
-84.933
-84.7809
-103.7
13.3748
23.8708
5.8075
-20.6511
-41.0383
-62.4003
-35.0701
-48.7047
-65.8768
24.0353
29.8714
26.2779
37.4875
55.1687
60.2486
68.5665
85.0262
100.158
115.515
110.691
118.411
28.6307
-1.37258
-19.0864
-13.8487
-23.4691
-34.5316
26.0744
30.4663
31.0668
35.5333
40.1819
50.8301
42.0884
42.0634
65.444
39.4917
29.1918
37.573
21.3138
7.95064
0.924321
-2.0312
-11.0905
-16.15
29.4143
29.3226
34.039
29.5491
31.8208
36.6765
26.8785
20.6126
27.0613
13.7831
8.6174
9.52644
-149.123
-129.737
-113.572
-195.822
-219.012
-266.263
17.9428
-19.1469
-31.1
-223.254
-220.233
-198.494
-353.459
-392.782
-407.59
-279.959
-317.833
-275.109
-177.78
-189.573
-172.263
-346.693
-383.811
-362.138
-410.523
-416.349
-371.706
-66.3789
-80.0399
-76.4269
-225.711
-244.597
-217.486
-353.73
-328.497
-306.876
-87.8064
-86.5545
-68.8889
-200.417
-180.764
-174.331
99.7855
91.0232
59.1064
188.151
172.996
159.108
155.232
155.42
185.626
-51.1558
-33.6507
-40.0029
105.995
166.802
94.9571
745.17
634.978
641.222
162.046
194.707
272.463
755.019
783.409
52.9868
76.6796
51.9609
142.712
167.696
89.473
-64.0096
-43.3043
-34.3548
-61.1773
-51.283
-77.6564
5.96674
-22.49
-40.768
-129.776
-141.278
-198.795
131.871
87.3447
70.662
-163.623
-106.919
-125.164
-101.564
-107.196
-138.843
-45.1295
-75.1333
-76.2294
-114.22
-107.298
-86.5071
-168.285
-130.696
-138.665
-100.067
-117.832
-161.237
-201.415
-191.564
-170.753
-256.93
-243.416
-247.986
-205.312
-213.25
-226.451
-372.169
-381.411
-370.428
-260.985
-232.839
-301.979
-186.39
-213.4
-228.438
-167.899
-193.085
-169.904
-103.716
-111.596
-92.5406
-172.179
-133.984
-123.771
-141.792
-140.166
-177.489
-216.208
-221.124
-199.226
-276.147
-258.892
-254.606
-269.074
-269.291
-286.028
-255.173
-266.261
-334.846
-209.871
-239.431
-232.372
-237.769
-241.435
-210.791
-52.3227
-66.8525
-58.1724
-96.3165
-77.1691
-59.1928
-110.302
-94.4779
-107.958
-123.434
-137.719
-127.685
-166.447
-148.773
-126.261
-194.027
-186.033
-194.922
-334.872
-342.025
-334.359
-176.186
-208.87
-245.722
-170.952
-188.69
-169.389
-220.945
-206.138
-184.957
-158.32
-163.569
-146.009
-231.784
-226.024
-223.788
-86.3064
-108.062
-120.371
-102.974
-107.489
-86.8958
-148.882
-127.735
-120.676
26.5144
34.0006
43.8784
-37.5838
-25.0812
-28.3477
66.6516
79.2526
65.6828
92.1264
84.486
73.6278
135.339
116.265
117.446
66.8487
73.2505
89.5538
41.0338
62.9888
51.9056
70.9925
65.094
40.065
-202.549
-187.205
-196.779
-87.0335
-129.106
-168.36
-93.9836
-107.38
-81.8333
-152.956
-183.028
-156.295
59.509
64.6466
104.191
-130.962
-106.877
-91.9858
-346.875
-355.946
-364.098
-196.169
-213.326
-204.143
-144.606
-181.462
-167.317
-207.367
-193.532
-167.038
-312.402
-297.42
-316.159
-282.674
-267.32
-268.529
-251.904
-255.608
-268.999
-194.166
-215.636
-209.345
-278.223
-284.718
-282.345
-304.367
-303.46
-292.992
-280.408
-278.103
-271.13
-365.305
-387.253
-342.472
-446.257
-439.949
-433.647
-374.326
-344.506
-329.443
-431.206
-424.975
-432.951
-295.643
-328.392
-357.493
-219.075
-210.164
-202.353
-249.502
-244.06
-258.304
-181.246
-200.155
-209.101
-272.661
-281.256
-285.051
-219.933
-224.352
-220.076
-295.903
-305.917
-304.967
-288.876
-291.973
-280.631
-406.037
-390.67
-356.79
-409.432
-411.962
-419.44
-372.306
-415.863
-410.28
-124.049
-125.997
-141.068
-68.7976
-77.7101
-76.1701
-203.157
-213.378
-215.581
-146.22
-161.483
-152.975
-240.375
-242.952
-237.413
-327.439
-322.104
-317.516
-282.791
-254.476
-242.664
-307.266
-296.744
-306.934
-230.158
-241.173
-245.978
-404.444
-400.075
-403.843
-317.542
-328.344
-343.158
-291.568
-319.366
-292.387
14.5473
17.4553
10.2255
55.1186
49.1619
45.6461
-48.9486
-48.8516
-58.8638
2.78901
-4.99023
-7.15884
-63.7951
-62.8713
-50.1813
-140.098
-125.812
-123.804
-212.32
-208.36
-219.306
-140.214
-170.224
-179.93
-156.726
-161.519
-142.572
109.764
134.439
120.737
133.073
136.42
109.827
63.3328
67.3795
61.0154
72.0723
106.719
111.453
-53.3773
-22.9046
-22.1581
-29.1295
-23.3442
-72.8345
50.3094
13.5893
-1.85852
288.059
232.483
209.5
-7.13139
-7.58872
7.24298
-41.2476
-23.8839
-17.1765
-13.0897
-25.6448
-26.7117
-24.9108
-23.6765
-10.0462
-53.635
-38.2332
-32.8531
9.50678
11.8937
19.848
-32.8793
-26.0109
-26.9339
-8.51688
-22.9822
-9.97379
139.097
151.491
204.09
-113.109
-82.8615
-47.8216
-14.8259
-26.1177
36.3893
-122.47
-50.544
-51.7619
-65.6345
-60.7259
-103.165
-92.8377
-86.6533
-67.2461
-117.925
-94.7195
-101.791
-89.41
-94.4658
-108.952
47.095
49.1294
46.0974
67.0051
63.7003
61.8838
-48.0849
-46.8866
-39.9636
-123.699
-104.995
-104.824
-99.5282
-99.4304
-130.145
-63.7865
-89.4814
-88.2739
72.1942
73.5838
70.1818
97.1651
92.8096
90.4418
-10.2424
-26.2264
-45.858
8.00186
-8.1205
-0.0590289
-25.5881
-17.3358
-2.3427
271.622
318.769
427.894
189.838
279.55
248.963
203.19
278.432
180.788
164.919
199.828
169.723
260.366
306.619
206.286
436.034
347.119
283.171
-49.6138
-120.509
-92.1964
111.132
112.003
163.861
-40.4326
-6.59433
-17.4437
28.1285
38.0271
-7.41789
-187.74
-169.316
-169.9
-193.442
-197.422
-194.965
64.5163
69.6118
75.7843
27.2939
34.831
31.0817
-14.7127
-21.7365
-34.7481
4.59265
-8.59451
-7.67466
-16.6441
-12.5603
-0.142996
-211.43
-190.585
-169.643
-208.369
-234.774
-217.392
-184.479
-167.586
-178.986
-67.4161
-89.601
-104.567
-65.4605
-77.261
-47.7813
-301.007
-311.962
-300.217
-265.505
-278.028
-290.109
-295.929
-294.364
-285.103
-289.683
-298.372
-296.978
-262.79
-259.934
-250.873
-260.806
-267.77
-265.105
-461.295
-458.506
-473.572
-398.206
-416.934
-424.478
-401.542
-408.381
-390.645
-421.105
-442.445
-447.188
-431.001
-437.067
-416.553
-481.272
-466.417
-463.625
-389.663
-381.547
-393.503
-321.68
-340.07
-352.333
-312.832
-327.041
-308.838
-365.243
-384.127
-393.146
-363.779
-374.423
-355.721
-412.426
-402.162
-394.252
-256.135
-260.317
-254.118
-243.106
-247.305
-251.524
-305.86
-306.212
-294.312
-292.429
-303.482
-304.647
-446.733
-450.326
-466.176
-408.794
-430.898
-423.439
-443.837
-437.828
-414.861
-380.586
-397.099
-387.13
-415.283
-406.384
-388.349
-453.701
-438.675
-442.878
-432.411
-456.466
-457.569
-451.159
-454.315
-431.001
-428.191
-453.073
-449.044
-457.399
-455.956
-430.997
-106.938
-121.404
-114.667
-71.5106
-71.1657
-65.7578
-102.971
-97.6521
-99.1473
-85.911
-87.4574
-97.7257
-162.618
-166.715
-182.774
-279.093
-273.718
-270.961
-288.413
-290.857
-284.675
-365.692
-370.991
-375.754
-347.278
-358.881
-349.089
-378.026
-368.596
-356.529
-309.841
-318.99
-308.581
-339.245
-329.288
-319.437
-359.258
-354.318
-359.202
21.1739
22.8483
18.9988
43.3087
40.529
38.5553
-30.4448
-39.3433
-40.0411
-29.1263
-30.2243
-25.4209
-60.8254
-55.4371
-55.1072
-1.04647
-2.36523
5.53859
-19.947
-11.019
-5.59057
-15.029
-13.2887
-21.8568
-13.9644
-12.4883
-17.454
14.7795
10.5403
9.25886
-87.6449
-75.6772
-75.6129
-83.4579
-83.7995
-89.7896
-43.0648
-50.1714
-48.9202
-95.9287
-102.593
-102.596
-112.531
-111.859
-100.017
133.899
145.536
136.992
161.764
148.734
139.009
103.215
105.397
101.255
103.329
114.215
136.768
81.2452
86.9323
83.0892
51.4103
40.3724
46.0197
20.3209
31.2916
48.0417
74.8711
65.2306
73.107
46.7026
56.251
64.5269
95.2028
103.22
109.729
80.4385
94.3032
86.9735
107.753
95.942
82.8281
30.5307
26.1846
36.7554
2.81074
14.8859
24.6182
6.22013
10.1475
-1.16373
204.807
217.721
266.258
149.374
166.593
165.257
151.756
161.453
148.385
127.729
140.132
134.759
141.732
144.904
128.006
249.894
189.367
188.223
431.281
468.658
588.84
322.463
386.245
375.79
328.222
415.048
301.635
321.561
365.322
332.465
412.733
479.184
369.058
605.455
524.183
461.222
-233.118
-238.619
-252.363
-213.111
-225.058
-219.279
-234.441
-229.644
-216.068
-377.393
-389.657
-399.515
-265.37
-262.624
-280.145
-237.407
-250.897
-253.061
-243.746
-247.372
-232.579
-243.407
-256.553
-256.003
-255.129
-255.853
-240.877
-285.88
-268.657
-267.508
-353.975
-348.856
-340.985
11.995
23.4157
16.6605
37.5223
29.5608
17.3224
52.3975
41.3261
49.3401
104.585
114.163
127.578
97.1069
106.183
97.7868
115.125
108.121
99.2022
-13.3025
24.8447
26.9965
26.8888
26.4158
-20.6796
121.877
75.4737
61.1532
-339.626
-348.009
-339.139
-239.912
-217.476
-233.298
-187.83
-201.88
-223.727
-155.19
-179.507
-168.19
-264.228
-280.921
-297.211
-244.019
-263.428
-247.334
-298.924
-279.876
-260.63
-263.796
-265.863
-280.662
-240.449
-252.691
-250.279
-255.584
-254.026
-239.886
-230.261
-242.078
-238.119
-248.16
-244.972
-231.405
-272.454
-258.684
-261.561
-288.875
-286.691
-278.786
-302.569
-294.754
-296.438
-290.991
-292.907
-299.193
-320.512
-309.315
-310.02
-308.222
-308.95
-320.568
-293.517
-302.933
-301.879
-291.895
-287.006
-289.063
-283.184
-285.12
-290.001
-270.298
-276.288
-274.085
-447.297
-443.394
-450.979
-420.897
-432.245
-437.017
-457.986
-471.789
-474.423
-467.077
-469.725
-457.542
-221.953
-233.978
-238.853
-222.192
-228.032
-215.331
-251.202
-238.046
-231.75
-273.029
-276.852
-268.168
-290.214
-282.885
-279.297
-290.927
-287.089
-296.745
-306.816
-306.349
-295.035
-325.618
-312.868
-313.165
-310.902
-311.997
-324.013
-310.356
-297.447
-294.303
-303.676
-300.699
-314.171
-284.417
-295.191
-297.689
-447.736
-462.671
-459.243
-469.114
-466.227
-452.527
-419.375
-416.498
-403.445
-426.003
-419.16
-423.732
-465.139
-479.698
-481.417
-476.355
-478.493
-465.508
-459.567
-475.027
-472.456
-479.339
-477.687
-463.558
-255.323
-249.011
-246.54
-253.265
-250.453
-257.099
-238.926
-244.301
-246.74
-312.336
-316.344
-310.821
-275.018
-286.952
-291.998
-271.089
-277.502
-266.993
-298.153
-287.66
-280.874
-230.175
-235.702
-225.553
-256.516
-246.113
-240.552
-257.702
-252.473
-263.58
31.1333
24.3792
21.1863
29.7096
27.1881
33.6437
13.0081
20.2744
26.3107