/*--------------------------------*- C++ -*----------------------------------*\
| =========                 |                                                 |
| \\      /  F ield         | OpenFOAM: The Open Source CFD Toolbox           |
|  \\    /   O peration     | Version:  5.x                                   |
|   \\  /    A nd           | Web:      www.OpenFOAM.org                      |
|    \\/     M anipulation  |                                                 |
\*---------------------------------------------------------------------------*/
FoamFile
{
    version     2.0;
    format      ascii;
    class       volScalarField;
    location    "200";
    object      p_rgh;
}
// * * * * * * * * * * * * * * * * * * * * * * * * * * * * * * * * * * * * * //

dimensions      [0 2 -2 0 0 0 0];

internalField   nonuniform List<scalar> 
6584
(
11.716
12.5056
13.4517
14.8653
16.672
18.9993
21.8219
25.1745
28.7153
32.2246
34.6894
35.0163
32.3735
26.8849
19.622
11.9314
4.88278
-1.19235
-6.09832
-9.95031
-12.8548
-15.0468
-16.4858
-17.6501
11.4384
12.3024
13.1916
14.5911
16.3541
18.6778
21.5305
25.0458
28.8437
32.8093
35.7468
36.4175
33.7134
27.7575
19.9277
11.6429
4.30097
-1.89066
-6.76637
-10.5431
-13.342
-15.4773
-16.8121
-18.0665
10.8425
11.7214
12.5023
13.8233
15.473
17.756
20.68
24.6441
29.0075
33.1739
38.5831
41.3428
39.558
32.8156
23.2033
10.5572
2.52157
-3.91839
-8.66983
-12.1876
-14.6951
-16.6163
-17.7346
-18.9586
10.0611
10.8762
11.4993
12.6537
14.0906
16.2024
19.1391
23.5347
29.4808
35.3639
43.9393
50.1738
49.1472
39.1707
25.299
12.4615
-0.597744
-7.28917
-11.6908
-14.6931
-16.7147
-18.2521
-19.0563
-20.1061
9.15612
9.8307
10.2394
11.1079
12.1814
13.8552
16.4765
20.8649
26.3528
36.7063
50.1518
63.6859
64.8105
47.6824
25.5024
8.34511
-2.7746
-12.5943
-16.0916
-18.0483
-19.3191
-20.2644
-20.6553
-21.3963
8.18095
8.64071
8.77748
9.2185
9.72958
10.4669
12.2211
14.8687
21.8742
32.9979
52.1141
85.4439
100.436
65.7373
20.7512
-1.50292
-12.1947
-19.6449
-21.6583
-22.1138
-22.3744
-22.5257
-22.4154
-22.7223
7.21225
7.39925
7.23025
7.13612
6.94547
6.43844
6.76564
8.07438
10.9313
19.0032
42.6978
103.012
191.784
72.4608
6.7367
-21.1809
-26.1673
-28.8332
-28.1988
-26.644
-25.6422
-24.8354
-24.1686
-23.9447
6.33512
6.22491
5.76
5.10095
4.14909
2.2729
0.515518
-0.398022
-4.24247
-8.01601
-3.59982
27.3875
-6.7632
-48.7612
-52.5339
-44.7735
-39.1177
-34.9916
-31.1402
-28.7501
-26.9268
-25.7108
-24.9119
5.62626
5.24003
4.54407
3.40597
1.79998
-1.217
-4.99391
-8.70009
-19.5492
-38.8195
-68.7271
-148.059
-229.261
-127.863
-87.1234
-63.5403
-48.3317
-40.7222
-34.8423
-31.2143
-28.4954
-26.8278
-25.4847
5.13891
4.54527
3.73576
2.32562
0.377966
-3.12786
-7.99422
-13.5907
-27.718
-54.0456
-99.1521
-204.207
-335.781
-177.109
-107.988
-75.4207
-53.8196
-43.9496
-36.9551
-32.5642
-29.2666
-27.335
-25.5594
4.8894
4.18961
3.40787
1.99336
0.116626
-3.0658
-7.66419
-13.4001
-25.4831
-46.7213
-82.3667
-153.213
-297.088
-171.268
-106.168
-76.0531
-53.9408
-43.8633
-37.0203
-32.5234
-29.0832
-27.1263
-25.0916
4.85257
4.1541
3.52295
2.34125
0.886424
-1.35536
-4.58664
-8.88048
-15.3797
-24.545
-37.8698
-52.8507
-182.083
-124.745
-85.6928
-66.3668
-49.0187
-40.6702
-35.0942
-31.1242
-27.9558
-26.2053
-24.1068
4.97037
4.36084
3.95177
3.14121
2.28606
1.20064
-0.252807
-2.39215
-3.08667
-0.86419
5.60335
31.9476
-58.2927
-66.9139
-57.8737
-51.1748
-40.9504
-35.4233
-31.6743
-28.6636
-26.0717
-24.6806
-22.6933
5.17013
4.70263
4.52766
4.1132
3.8463
3.78678
3.83667
5.70842
6.4043
15.3658
28.9442
68.5933
151.312
19.5436
-22.3874
-33.2989
-35.7555
-32.0435
-29.4292
-27.4804
-25.5767
-23.6838
-22.7281
-20.9771
5.38303
5.07495
5.09947
5.01979
5.20038
5.80957
6.79536
9.25792
11.8823
20.6545
33.0693
53.84
61.802
29.2256
-2.97575
-17.0587
-22.349
-23.8355
-23.6919
-23.1627
-22.2823
-21.0591
-20.5383
-19.0881
5.55608
5.3981
5.56493
5.72414
6.17932
7.12904
8.48622
11.2537
13.9192
20.4598
30.0206
37.1874
33.8826
18.312
3.83595
-8.14025
-15.3652
-17.5978
-18.8165
-19.171
-19.0923
-18.437
-18.2871
-17.1596
5.65651
5.62436
5.87403
6.17992
6.7568
7.82715
9.15331
11.8697
14.4018
17.8889
22.8667
24.7007
22.781
14.2677
4.64398
-3.55373
-9.91203
-12.8905
-14.8111
-15.7043
-16.1816
-15.9465
-16.0872
-15.2656
5.66925
5.7334
6.01502
6.39328
6.9766
8.01109
9.12067
11.219
13.5225
14.9967
17.8891
20.4678
11.6299
10.1048
2.36349
-1.66703
-6.1802
-9.49105
-11.6186
-12.8093
-13.6261
-13.6853
-14.027
-13.4707
5.5928
5.72475
6.00069
6.39955
6.91845
7.83974
8.67026
10.2811
11.3719
14.2615
8.37424
17.4933
14.2394
2.05746
4.3417
-1.14677
-4.38146
-7.24615
-9.20211
-10.4763
-11.4472
-11.6945
-12.1557
-11.8187
5.43444
5.61041
5.85684
6.24725
6.66654
7.46841
7.98411
9.38774
9.33903
12.4931
8.32033
13.5482
11.7226
3.46263
4.42313
-0.999117
-3.03837
-5.65619
-7.34919
-8.61002
-9.61357
-9.97273
-10.4909
-10.3276
5.20611
5.40822
5.6123
5.98167
6.28623
6.99183
7.2046
8.49748
7.83501
10.4764
7.3445
9.78186
8.53199
3.48419
3.80882
-0.775542
-2.04621
-4.49117
-5.89658
-7.11202
-8.0765
-8.49945
-9.0296
-9.00016
4.92142
5.13726
5.29346
5.63905
5.82734
6.4595
6.41869
7.59553
6.63081
8.72708
6.11556
7.52646
6.53465
2.91321
3.15747
-0.606673
-1.40171
-3.63549
-4.75806
-5.90976
-6.79154
-7.24721
-7.75891
-7.83003
4.594
4.81558
4.92364
5.24748
5.32804
5.90333
5.67057
6.73
5.63423
7.31833
5.15599
6.00288
5.20824
2.47211
2.62921
-0.491509
-0.98269
-2.99046
-3.86443
-4.94181
-5.71855
-6.18666
-6.66044
-6.80529
4.23657
4.45923
4.52232
4.82818
4.81565
5.34573
4.97827
5.92746
4.80209
6.15668
4.36093
4.83723
4.18867
2.09727
2.18424
-0.407112
-0.700777
-2.48918
-3.15734
-4.15589
-4.82142
-5.28894
-5.71389
-5.91121
3.86023
4.08146
4.10483
4.39648
4.30802
4.80065
4.34601
5.19288
4.09709
5.18428
3.68894
3.93875
3.38336
1.76129
1.80437
-0.344813
-0.50981
-2.09107
-2.59283
-3.51152
-4.06881
-4.52695
-4.8984
-5.13151
3.47458
3.69311
3.68296
3.96337
3.8163
4.27677
3.77239
4.52554
3.49248
4.36639
3.10635
3.22318
2.74139
1.48194
1.48752
-0.29753
-0.38003
-1.76943
-2.1387
-2.97749
-3.43442
-3.87701
-4.19451
-4.45036
3.08742
3.30258
3.26531
3.53659
3.34682
3.77854
3.25312
3.92208
2.96887
3.67989
2.60362
2.65466
2.257
1.2531
1.2249
-0.261488
-0.291668
-1.50479
-1.76947
-2.53009
-2.89706
-3.31957
-3.58512
-3.85261
2.70495
2.91625
2.85801
3.12126
2.90285
3.30811
2.78287
3.37796
2.51028
3.09882
2.17922
2.20241
1.86294
1.02954
1.00366
-0.231816
-0.226454
-1.27952
-1.46275
-2.14785
-2.43625
-2.83508
-3.05269
-3.32328
2.33204
2.53874
2.46513
2.72031
2.48546
2.86574
2.35609
2.88789
2.10437
2.5979
1.81069
1.8197
1.52954
0.840216
0.821242
-0.207691
-0.176932
-1.0857
-1.20457
-1.81672
-2.03723
-2.40933
-2.58343
-2.85015
1.97229
2.17334
2.08929
2.33568
2.09406
2.45034
1.96684
2.44389
1.74272
2.16207
1.48734
1.49198
1.24488
0.679379
0.668878
-0.186974
-0.137011
-0.915846
-0.983456
-1.52492
-1.68711
-2.02961
-2.16453
-2.42139
1.62825
1.82195
1.73148
1.96769
1.72721
2.06094
1.60912
2.03714
1.41592
1.77746
1.19981
1.20739
0.99885
0.539194
0.539488
-0.168087
-0.102503
-0.7636
-0.789731
-1.26289
-1.37499
-1.68506
-1.78509
-2.02656
1.3023
1.48609
1.39279
1.61602
1.38425
1.69464
1.27968
1.66353
1.11859
1.43367
0.940419
0.955514
0.780922
0.412449
0.427442
-0.150352
-0.0707923
-0.624147
-0.616458
-1.02286
-1.09202
-1.36678
-1.43574
-1.6566
0.993914
1.16359
1.07105
1.27748
1.06062
1.34335
0.972524
1.31404
0.844198
1.12004
0.703014
0.727381
0.584961
0.296796
0.329203
-0.132365
-0.0407162
-0.493214
-0.458139
-0.797869
-0.830436
-1.06609
-1.10749
-1.30207
0.712022
0.861774
0.773878
0.957877
0.762471
1.01252
0.693509
0.991452
0.598257
0.837101
0.481407
0.514781
0.402058
0.177742
0.240555
-0.112456
-0.0104596
-0.366379
-0.311173
-0.583619
-0.586681
-0.779413
-0.797299
-0.959751
0.426896
0.542331
0.467667
0.612563
0.456499
0.65355
0.409104
0.642922
0.349124
0.539455
0.272607
0.309375
0.234755
0.0820559
0.156419
-0.086087
0.0121777
-0.236887
-0.173584
-0.366248
-0.348106
-0.485868
-0.48457
-0.602196
0.262643
0.34324
0.286976
0.391922
0.280233
0.425504
0.257512
0.437805
0.238942
0.393458
0.0573258
0.105638
0.0454217
-0.163587
0.0917043
-0.0409509
0.0557281
-0.10448
-0.0478757
-0.17411
-0.15094
-0.24139
-0.232577
-0.309104
-132.913
-223.834
3.3276
-203.223
-360.311
-250.122
-164.155
-332.987
-366.439
-65.4062
-207.628
-319.6
23.4663
-69.5333
-190.367
68.3906
169.577
164.124
26.5043
-53.6649
49.4865
191.205
32.6071
93.977
-54.2739
-116.697
20.8997
-161.855
108.935
-206.003
-123.088
-47.8906
-96.2258
-183.816
-130.598
-182.135
-262.249
-220.937
-450.721
-361.889
-330.311
-195.556
-146.062
-90.3808
-151.893
-184.719
-196.742
-272.152
-286.424
-495.877
-506.076
-308.189
-201.57
-203.536
-49.9274
-63.4694
-142.093
-116.955
-139.819
-203.466
-327.545
-419.537
-197.847
-151.811
-192.924
-145.924
-228.253
-72.7209
-82.2354
-134.826
36.6431
-39.2052
59.413
66.5654
154.182
64.2834
42.2956
30.4262
-212.756
-121.443
-73.7942
-134.212
-229.059
90.2429
-115.53
-354.309
-186.25
-133.276
-177.479
-344.499
-285.314
-266.233
-189.74
-276.093
-295.766
-237.111
-275.41
-500.699
-455.214
-327.404
-440.332
-495.727
-351.041
-436.272
-311.858
-211.732
-266.079
-190.541
-275.732
-216.634
-295.122
-279.896
-424.116
-491.573
-362.869
-489.382
-413.686
-498.97
-493.106
-368.154
-134.634
-68.0691
-211.061
-144.36
-234.073
-321.586
-257.542
-318.877
-233.486
-408.575
-324.679
-273.913
6.62496
50.5839
-59.0155
-0.557507
-50.9965
-134.357
-222.499
-144.173
-137.474
97.9892
114.674
55.5671
95.0604
89.2264
43.9988
-49.93
-101.788
79.7053
-45.6886
254.092
-3.90639
18.328
-52.0332
-16.9598
-3.16449
-59.2435
17.4993
-33.4444
15.9814
-25.1146
-65.674
182.904
-75.8667
90.7398
-149.96
-98.9108
-67.7077
-130.544
-104.107
-104.618
-66.0383
43.1573
65.0123
-60.655
-24.3113
-40.4989
-88.7768
-120.201
-132.699
-53.5744
67.938
94.4973
-42.4971
26.0154
-10.5451
314.301
199.423
119.968
140.529
210.242
317.802
-83.0885
-51.9463
-92.7896
229.968
-54.801
-12.2368
-416.993
-408.213
-511.617
-510.649
-368.561
-375.303
-179.964
-148.437
-183.122
71.9935
24.5694
-34.6622
14.6337
-4.16796
-208.053
-184.999
-252.186
-213.228
-255.36
-197.808
-201.789
-85.4222
-37.1023
-103.948
-197.128
-286.951
-277.618
-288.483
-288.404
-256.178
-257.697
-480.597
-479.97
-475.28
-403.775
-381.212
-423.878
-409.625
-477.38
-399.157
-332.541
-293.377
-372.955
-343.712
-405.387
-252.225
-247.196
-295.81
-293.508
-460.832
-463.783
-461.783
-401.098
-418.615
-371.788
-394.117
-457.947
-506.11
-431.708
-427.005
-423.275
-431.075
-506.4
-109.479
-106.904
-110.094
-148.494
-66.3946
-104.925
-96.9463
-183.516
-152.976
-173.467
-275.294
-281.55
-368.983
-336.709
-363.775
-298.894
-327.316
-363.395
16.7711
40.6991
-32.3959
-25.0438
-61.0433
10.694
-20.4175
-24.1251
-19.3861
12.7746
-86.5936
-89.3747
-41.4568
-143.091
-95.2997
-99.1055
-93.8607
128.092
143.985
189.632
97.9824
122.327
191.683
113.685
76.7182
462.749
25.8601
55.0116
26.1437
53.1772
82.7778
53.7046
100.322
78.5114
88.0439
272.384
45.5917
3.77157
-6.00536
60.1661
68.8055
227.866
146.272
142.141
72.9669
84.5533
124.329
121.416
193.849
473.214
324.233
214.139
291.683
362.937
486.418
-248.292
-207
-224.001
-440.474
-388.175
-383.778
-284.098
-239.334
-232.143
-242.809
-243.026
-286.02
-505.108
-507.674
-345.417
-401.437
93.1448
78.6703
6.92443
21.1446
61.6674
109.406
90.0608
103.439
-6.32602
-62.2002
170.521
-327
-356.642
-383.784
-255.905
-208.613
-143.41
-278.579
-226.398
-277.68
-279.314
-237.885
-244.308
-225.999
-237.603
-276.648
-282.653
-305.625
-297.392
-321.951
-321.052
-292.497
-294.892
-289.261
-267.8
-494.773
-465.838
-456.007
-426.156
-417.782
-460.664
-452.315
-489.384
-226.295
-212.827
-244.698
-266.924
-286.092
-303.274
-297.375
-326.508
-323.208
-307.378
-318.631
-286.648
-440.016
-481.141
-478.813
-444.513
-452.826
-403.948
-406.957
-431.212
-502.878
-466.991
-460.82
-457.342
-462.611
-501.216
-251.465
-259.734
-240.619
-329.798
-316.895
-306.145
-279.363
-259.708
-289.132
-219.779
-249.457
-267.8
26.7323
36.4492
14.5093
61.2187
42.8091
32.8136
139.813
147.934
74.1956
88.5354
67.6202
128.269
137.72
113.14
98.4447
66.4115
352.642
115.356
26.477
-5.24744
-1.35378
26.7501
-9.76036
-12.6287
55.4236
44.4876
258.102
-7.67392
16.7145
-88.6707
-80.9209
52.4879
57.7778
52.4589
57.7216
50.8591
68.7965
60.2049
55.1312
-44.3037
-38.6925
-60.7743
-67.7976
78.7726
83.1375
71.9598
88.9767
103.964
-153.837
-129.682
-52.0469
-209.351
-151.738
-177.015
-436.769
-389.927
-507.312
-511.525
-350.725
-395.499
-171.862
-169.114
-187.655
-145.82
-163.422
-164.23
-218.221
-237.004
-193.57
-211.009
52.3534
68.7432
86.3918
33.6167
60.9026
46.3619
66.3933
36.6646
-231.612
-202.66
-224.065
-165.651
-194.374
-223.561
-249.054
-259.762
-229.905
-245.163
-154.81
-117.868
-155.819
-170.808
-185.343
-328.602
-348.845
-319.451
-329.584
-280.368
-227.407
-321.374
-294.51
-240.246
-276.485
-318.259
-314.657
-309.01
-283.076
-312.698
-318.628
-307.916
-308.806
-327.17
-325.275
-317.834
-324.098
-292.754
-319.306
-315.011
-281.059
-291.161
-263.337
-276.669
-300.102
-305.348
-293.399
-299.654
-266.814
-288
-281.756
-494.284
-466.248
-440.258
-428.136
-461.035
-487.39
-451.568
-441.495
-267.259
-281.2
-262.356
-290.67
-276.497
-309.363
-295.337
-253.589
-233.986
-271.248
-258.204
-326.998
-326.147
-296.028
-330.659
-333.91
-327.308
-332.044
-324.119
-311.249
-330.897
-326.946
-289.968
-321.002
-325.522
-445.574
-473.847
-429.402
-439.344
-473.472
-439.257
-412.575
-424.143
-469.173
-466.195
-505.088
-503.31
-466.048
-467.137
-125.958
-124.609
-122.64
-107.509
-143.77
-127.919
-132.348
-82.5469
-80.3059
-68.8852
-102.304
-85.6978
-88.3304
-206.734
-190.374
-227.808
-212.272
-167.779
-164.01
-148.858
-185.187
-169.097
-175.346
-284.281
-266.944
-257.984
-267.72
-283.676
-242.286
-260.143
-289.692
-300.073
-310.008
-288.01
28.0086
33.188
23.8696
48.4332
36.9231
31.5466
50.0335
-4.74465
19.1037
0.078854
-123.45
-122.256
-139.754
-95.0153
-116.234
-116.468
-115.688
-122.553
151.773
169.016
109.675
124.194
147.964
119.599
17.8224
-25.1521
17.6494
1.09033
38.3666
67.0206
635.386
468.212
387.293
497.519
543.891
656.521
83.3328
172.462
118.798
-179.309
-202.979
-242.646
-446.625
-449.048
-453.904
-501.813
-506.019
-179.527
-158.595
-176.986
-420.604
-414.807
-414.07
-234.757
-215.868
-210.902
-182.045
-140.676
-172.669
-253.715
-240.384
-219.656
-215.902
-262.587
-228.701
-243.281
-268.715
-257.421
-496.911
-460.043
-464.55
-459.503
-480.248
-477.73
-492.924
-409.752
-401.362
-424.91
-236.665
-205.562
-187.633
-228.413
-244.411
-230.334
-429.362
-426.875
-423.282
-488.698
-486.163
-469.455
-472.754
-500.408
-484.421
-482.642
-476.327
-479.645
-497.089
-202.055
-209.653
-223.481
-391.794
-380.199
-392.371
-189.133
-179.254
-209.44
146.428
147.45
114.856
95.7917
78.9533
146.062
146.534
72.4683
100.567
68.798
-33.6662
-12.8462
-99.6983
-65.1508
-70.4198
-71.5822
-55.2688
-54.3653
-59.7583
-22.8737
-27.6688
-29.2187
-87.4598
-81.5518
-82.4493
101.663
87.4288
82.1126
199.908
313.8
264.08
-105.806
-123.359
-103.467
-72.2568
-224.835
-205.696
-26.679
50.3759
68.9607
-428.585
-431.121
-424.086
-401.055
-415.356
-421.793
-515.051
-511.335
-375.1
-368.71
-362.016
-382.714
-387.557
-380.732
-184.051
-189.055
-147.753
-153.597
-153.627
-193.775
-198.556
-204.711
-209.27
-192.762
-216.528
-244.139
-244.904
-250.823
-189.619
-199.605
-222.015
-271.901
-277.192
-255.286
-258.051
-255.25
-61.2377
-106.849
-139.463
-126.854
-119.016
-131.269
-181.53
-257.577
-246.662
-279.647
-271.915
-245.306
-281.03
-281.637
-483.826
-479.369
-369.659
-356.962
-379.89
-421.362
-392.165
-381.54
-235.591
-249.057
-262.385
-455.248
-465.87
-489.715
-489.674
-506.246
-507.403
-489.683
-489.589
-114.357
-115.455
-114.437
-108.907
-148.177
-143.208
-144.192
-188.858
-204.456
-193.536
-200.233
-195.207
-230.138
-226.059
-157.682
-158.189
-153.12
-190.576
-186.036
-357.844
-368.777
-386.096
-347.614
-337.655
-347.652
-39.4887
-38.5514
-29.4192
-59.356
-48.7275
-44.8557
-68.4026
-72.5859
-88.4295
-47.1609
-60.1422
-61.4568
-136.746
-135.621
-141.593
-101.87
-94.5062
-139.02
172.162
173.806
183.699
120.764
112.008
120.285
106.757
134.166
124.104
116.497
180.71
151.725
92.1523
108.665
96.5837
191.886
376.441
100.538
62.7722
65.6417
175.491
177.251
200.904
76.5452
76.2871
71.8534
85.0009
80.5467
80.3825
196.764
162.892
154.664
344.608
490.043
441.781
-444.919
-446.051
-443.418
-390.781
-392.509
-386.255
-404.858
-393.957
-505.139
-505.637
-350.44
-354.471
-335.724
-343.162
-407.618
-407.38
-401.109
86.8417
91.0531
97.538
80.8506
85.7322
81.3855
-365.18
-363.519
-354.632
-379.725
-371.844
-374.798
-494.48
-462.794
-465.704
-466.272
-490.742
-475.631
-473.625
-435.778
-430.321
-435.791
-487.732
-462.049
-466.087
-483.424
-487.059
-485.566
-501.257
-499.815
-482.38
-484.276
-324.208
-325.132
-328.529
-314.945
-319.961
-320.38
149.312
151.951
138.498
142.124
131.948
137.969
134.098
118.56
111.465
107.849
112.734
118.047
102.168
106.29
103.198
51.5404
29.0038
17.9118
85.298
297.69
255.415
326.876
138.931
171.699
221.525
7.32996
5.74772
-2.645
22.664
14.4315
16.1565
-24.6709
-23.9144
-32.0734
-10.6966
-18.0761
-17.3642
74.2412
91.9009
33.1637
-65.6966
-97.2985
-23.4367
-29.8893
-94.8129
-76.9704
-75.7484
-82.536
53.848
55.6048
47.5531
50.1787
53.1112
-43.5312
-49.0035
-49.8581
-26.5486
-21.6338
-32.5521
-33.5763
-31.2263
-38.0238
-58.5066
-53.0552
-54.439
-51.5173
-59.1887
-38.7377
-45.1256
-75.359
-74.618
-67.1567
93.6631
94.6636
89.7104
105.711
99.9796
98.6554
-161.556
-132.605
-128.478
-197.162
-205.339
-185.075
-432.601
-431.053
-437.071
-442.62
-413.281
-410.957
-424.176
-417.32
-511.789
-513.262
-367.324
-372.802
-358.325
-362.564
-356.102
-363.033
-357.962
-396.144
-391.565
-389.372
-381.701
-169.964
-178.189
-158.763
-159.38
-165.105
-225.315
-225.965
-218.371
-237.248
-232.911
-231.65
-199.281
-199.758
-194.43
-211.475
-203.713
-204.553
-205.132
42.4425
38.6899
30.2361
56.2518
46.2293
-222.373
-231.666
-238.961
-237.536
-227.577
-211.219
-220.913
-266.028
-268.001
-274.401
-270.596
-255.948
-255.024
-263.189
-157.523
-141.655
-153.01
-115.772
-192.876
-182.009
-173.508
-338.635
-321.762
-310.84
-344.487
-334.438
-348.003
-351.957
-339.788
-262.128
-264.405
-282.844
-247.732
-262.909
-245.819
-309.629
-295.471
-301.972
-306.051
-316.418
-319.422
-309.271
-312.875
-313.062
-311.419
-310.156
-325.978
-324.639
-318.854
-321.143
-286.409
-292.062
-286.262
-293.623
-293.1
-289.304
-266.925
-279.998
-277.664
-286.42
-283.017
-271.169
-283.444
-285.414
-301.258
-303.466
-302.59
-308.988
-305.906
-303.118
-295.833
-299.256
-296.103
-303.776
-304.104
-298.597
-488.115
-473.413
-286.56
-288.067
-290.499
-276.917
-283.412
-281.915
-304.736
-293.154
-297.287
-298.962
-247.676
-249.313
-255.996
-236.029
-242.108
-240.859
-266.579
-266.865
-271.226
-260.171
-263.199
-262.278
-331.143
-332.767
-330.072
-333.233
-318.721
-314.412
-328.037
-326.666
-449.76
-469.085
-506.484
-489.605
-488.479
-486.455
-488.387
-505.883
-119.347
-125.121
-120.066
-120.761
-138.936
-137.659
-131.243
-212.675
-205.943
-201.123
-206.416
-212.373
-222.95
-227.603
-230.425
-218.049
-222.868
-217.543
-222.968
-219.19
-169.153
-163.566
-162.565
-181.205
-173.755
-279.014
-275.518
-281.487
-263.005
-269.421
-273.463
-274.923
-279.605
-246.076
-247.749
-241.648
-253.455
-302.102
-301.255
-308.601
-287.034
-293.758
-295.262
29.8634
28.7885
32.2373
21.659
25.4149
27.0406
46.1012
42.493
44.9582
35.8038
39.4204
40.9729
45.3519
-6.91078
-2.05919
-16.7883
-11.6871
14.2715
12.8444
17.1613
3.04064
9.53212
8.3698
-122.799
-129.505
-130.398
-108.772
-129.848
156.093
161.783
115.008
120.504
112.257
129.772
124.711
119.534
128.674
134.751
137.139
125.437
52.8568
71.5674
57.3228
79.1675
90.5771
66.6796
89.5849
71.8331
58.1351
61.844
37.5921
36.5654
27.2985
39.1175
42.3002
47.9786
86.258
76.0003
106.539
173.124
101.387
173.406
98.7013
77.7325
74.1866
25.2372
33.9224
14.0931
-1.27017
7.86502
7.06467
7.66506
34.1376
11.8113
39.4771
85.3055
99.9832
165.031
145.517
275.461
200.649
160.717
72.8456
39.5418
50.294
-30.8499
-31.6351
-13.8065
-24.2606
-45.6466
-4.79127
-20.6209
-24.1127
-2.13392
2.7237
5.82391
35.773
-93.4239
-86.0703
-33.7153
-109.242
-78.8419
-54.1226
-49.2143
-80.7742
-57.3123
-80.8747
-99.5548
-84.9867
-161.385
-181.308
-167.212
-285.585
-221.486
-175.799
-170.189
-120.417
-102.118
-53.0002
-77.3362
-83.3391
-99.1384
-119.29
-120.208
-203.658
-225.446
-226.049
-337.3
-268.174
-260.17
-177.996
-133.609
-131.256
-36.6435
-44.7953
-70.9132
-72.6788
-83.7174
-96.2109
-141.688
-153.236
-166.595
-258.155
-218.26
-242.999
-138.765
-115.45
-127.837
-12.1523
-6.25428
-34.8194
-40.4794
-40.402
-54.2188
-133.918
-123.571
-160.586
-81.0132
-79.7228
-98.6374
8.30181
19.9374
1.87167
-18.6628
-38.4849
-59.8429
-31.1651
-43.6591
-60.8244
18.9745
25.7308
22.1242
34.0422
53.093
58.1569
66.8311
83.9745
99.1031
115.545
111.067
118.828
30.6829
2.05422
-15.641
-9.73448
-18.4429
-29.4944
21.0327
26.3386
26.9355
32.3189
38.1092
48.7553
40.4725
41.819
65.197
39.705
30.7785
39.1632
23.3578
11.1381
4.34675
2.07182
-6.07226
-11.1299
26.2014
27.0229
31.7387
28.163
31.3485
36.4325
27.3203
21.9683
28.6471
16.0535
11.8033
12.712
-150.687
-131.3
-115.362
-194.032
-217.505
-264.756
19.5012
-17.587
-29.313
-224.818
-221.797
-200.284
-351.668
-391.274
-406.082
-278.451
-316.325
-273.318
-179.341
-191.135
-174.052
-344.904
-382.304
-360.631
-409.014
-414.841
-369.915
-67.9364
-81.5981
-78.2112
-223.927
-243.095
-215.929
-352.224
-326.992
-305.089
-86.0332
-85.006
-67.342
-198.861
-179.209
-172.551
98.7242
89.9258
57.3306
188.087
172.791
158.905
155.385
155.593
185.621
-49.6107
-32.1076
-38.2351
104.948
165.718
93.1804
745.124
634.856
641.083
161.229
193.868
272.337
755.129
783.443
54.7687
78.2332
53.5171
143.774
168.769
91.2454
-67.0482
-46.3429
-37.8477
-63.1941
-53.8674
-80.2409
3.38398
-25.0738
-42.7844
-128.839
-140.483
-198
132.688
88.164
71.5954
-160.926
-104.222
-123.148
-98.0726
-104.159
-135.806
-42.094
-72.0969
-72.7389
-117.258
-110.336
-89.9996
-170.302
-133.281
-141.249
-102.652
-120.416
-163.255
-202.979
-193.128
-172.544
-257.985
-244.584
-249.154
-206.48
-214.417
-227.505
-371.257
-380.502
-369.462
-258.288
-230.142
-299.961
-182.899
-210.363
-225.401
-164.862
-190.048
-166.413
-106.751
-114.632
-96.0308
-174.195
-136.566
-126.352
-144.376
-142.749
-179.505
-217.771
-222.688
-201.016
-277.2
-260.059
-255.772
-270.241
-270.458
-287.081
-252.48
-263.567
-332.83
-206.384
-236.398
-229.34
-234.733
-238.4
-207.302
-55.3539
-69.8847
-61.659
-98.3284
-79.7475
-61.7701
-112.883
-97.0573
-109.971
-124.993
-139.28
-129.471
-167.499
-150.164
-127.651
-195.193
-187.198
-195.975
-333.912
-341.127
-333.459
-173.501
-206.182
-243.711
-167.472
-185.663
-166.364
-217.914
-203.109
-181.475
-157.385
-162.775
-145.216
-230.875
-225.115
-222.822
-83.7453
-105.497
-118.37
-99.5049
-104.472
-83.8824
-145.859
-124.715
-117.204
27.4388
34.8135
44.6905
-36.7664
-24.2644
-27.4191
65.4886
78.2018
64.0622
91.9892
83.6633
72.8079
134.909
115.838
117.361
67.6327
74.0324
89.6457
42.6297
64.003
53.0346
72.0562
66.1172
41.7896
-203.603
-188.372
-197.947
-88.4263
-130.499
-169.413
-95.7737
-108.943
-83.3963
-153.896
-183.824
-157.092
58.5735
63.8249
103.371
-131.787
-107.703
-92.9245
-345.908
-355.036
-363.186
-195.259
-212.416
-203.176
-143.044
-179.899
-165.527
-206.314
-192.366
-165.873
-311.234
-296.253
-315.107
-283.727
-268.488
-269.697
-253.072
-256.775
-270.053
-195.957
-217.2
-210.909
-279.193
-285.63
-283.259
-305.276
-304.369
-293.959
-281.323
-279.018
-272.1
-363.796
-385.744
-340.68
-445.227
-438.864
-432.561
-373.303
-343.338
-328.276
-430.122
-423.892
-431.926
-293.851
-326.884
-355.985
-220.127
-211.33
-203.519
-250.669
-245.227
-259.358
-183.035
-201.718
-210.664
-273.627
-282.163
-285.956
-220.842
-225.261
-221.043
-296.87
-306.826
-305.876
-289.781
-292.878
-281.596
-404.528
-389.163
-355
-408.347
-410.878
-418.411
-370.515
-414.354
-408.772
-124.987
-126.792
-141.864
-69.621
-78.5336
-77.1066
-204.125
-214.289
-216.492
-147.016
-162.279
-153.913
-239.409
-242.044
-236.504
-326.534
-321.194
-316.55
-281.287
-252.974
-240.88
-306.243
-295.579
-305.768
-228.995
-240.01
-244.927
-403.419
-398.993
-402.759
-316.377
-327.178
-342.135
-289.781
-317.861
-290.883
13.6138
16.6346
9.40441
54.2998
48.3428
44.7143
-49.8841
-49.6738
-59.6865
1.96774
-5.81162
-8.09309
-62.8644
-62.0528
-49.3633
-139.305
-125.019
-122.87
-211.27
-207.198
-218.144
-138.831
-168.838
-178.882
-154.947
-159.965
-141.019
108.837
133.85
120.146
132.529
135.838
108.905
62.402
66.5613
60.1968
72.9889
107.297
112.009
-54.9399
-24.4665
-23.947
-30.1808
-24.7359
-74.2272
48.9764
12.2551
-2.90923
288.498
232.923
210.001
-9.13848
-10.1625
4.67027
-43.8237
-26.4588
-19.1842
-14.6447
-27.2004
-28.4936
-25.9585
-25.0061
-11.3752
-54.9658
-39.5635
-33.901
10.0113
12.3391
20.2942
-32.4306
-25.5602
-26.4263
-5.97409
-20.4334
-7.9881
138.592
151.044
203.644
-113.557
-83.3069
-48.3263
-13.7768
-24.7278
37.7769
-121.078
-49.1535
-50.712
-63.8466
-59.165
-101.603
-93.8877
-88.042
-68.5776
-119.315
-96.1085
-102.841
-91.1949
-96.0245
-110.511
46.5849
48.6757
45.6436
66.5565
63.2525
61.3769
-47.577
-46.4345
-39.5144
-122.148
-103.446
-103.049
-98.4835
-98.0492
-128.762
-62.464
-88.1009
-87.2299
71.6857
73.1321
69.7317
96.7147
92.359
89.934
-9.20372
-24.9075
-44.5372
9.31673
-6.80358
0.978744
-23.8225
-15.7948
-0.803835
271.19
318.326
427.825
188.918
278.986
248.415
202.602
277.861
179.864
165.847
200.641
170.539
260.918
307.179
207.201
436.097
347.56
283.607
-48.8209
-119.715
-91.2594
111.692
112.708
164.564
-39.8176
-5.97873
-16.8885
29.0629
38.8474
-6.59688
-186.947
-168.523
-168.964
-192.477
-196.514
-194.057
65.0215
70.0602
76.2324
27.7412
35.2785
31.5869
-14.1483
-21.0316
-34.0427
5.29607
-7.89033
-7.11098
-15.7163
-11.7443
0.672229
-212.227
-191.381
-170.582
-209.308
-235.567
-218.188
-185.044
-168.209
-179.609
-68.039
-90.2242
-105.132
-66.3988
-78.0857
-48.6054
-300.099
-311.054
-299.251
-264.538
-277.12
-289.202
-296.834
-295.269
-286.069
-290.649
-299.279
-297.884
-263.7
-260.845
-251.841
-261.775
-268.681
-266.016
-460.221
-457.433
-472.561
-396.811
-415.653
-423.197
-400.259
-407.1
-389.25
-419.71
-441.163
-445.905
-429.719
-435.786
-415.157
-480.254
-465.34
-462.55
-388.582
-380.465
-392.478
-320.286
-338.789
-351.052
-311.551
-325.76
-307.444
-363.848
-382.846
-391.864
-362.498
-373.142
-354.326
-411.408
-401.084
-393.172
-257.048
-261.23
-255.087
-244.075
-248.217
-252.437
-306.769
-307.121
-295.279
-293.395
-304.389
-305.555
-445.659
-449.25
-465.159
-407.399
-429.617
-422.159
-442.554
-436.547
-413.466
-379.192
-395.819
-385.849
-414.003
-405.104
-386.955
-452.692
-437.603
-441.805
-431.015
-455.183
-456.286
-449.876
-453.031
-429.605
-426.795
-451.79
-447.761
-456.115
-454.673
-429.601
-107.762
-122.199
-115.605
-72.0819
-71.7922
-66.3836
-103.595
-98.2733
-99.7091
-86.8477
-88.2808
-98.5494
-163.556
-167.509
-183.566
-278.182
-272.807
-269.994
-287.448
-289.951
-283.766
-364.613
-369.913
-374.736
-345.885
-357.601
-347.81
-376.746
-367.317
-355.136
-308.45
-317.711
-307.302
-337.965
-328.008
-318.045
-358.232
-353.236
-358.121
20.6647
22.3969
18.5449
42.8564
40.0796
38.0474
-31.2669
-40.1653
-40.9763
-29.6922
-30.8475
-26.0448
-61.4495
-56.0593
-55.6709
-1.61062
-3.07345
4.83008
-20.6558
-11.7273
-6.15427
-15.9635
-14.1103
-22.6787
-14.4714
-12.937
-17.907
14.3244
10.0868
8.74922
-86.8253
-74.8581
-74.6816
-82.8953
-83.1793
-89.1699
-42.4435
-49.55
-48.3555
-95.3105
-101.976
-102.04
-111.598
-111.038
-99.1972
133.421
145.204
136.656
161.432
148.401
138.532
102.708
104.946
100.805
103.804
114.55
137.098
81.6929
87.38
83.5938
49.2947
37.8029
43.454
17.7492
28.7208
46.0387
73.7724
63.9062
71.7833
45.3769
54.9259
63.4276
95.5225
103.538
109.818
81.2358
94.8578
87.5242
108.3
96.5121
83.6456
29.4855
24.8575
35.429
1.48235
13.5581
23.5727
4.4401
8.59377
-2.71811
204.658
217.589
266.186
148.929
166.271
164.939
151.439
161.134
147.95
128.173
140.448
135.054
142.054
145.239
128.459
249.902
189.477
188.354
431.079
468.416
588.802
322.004
385.91
375.463
327.897
414.735
301.169
322.056
365.757
332.901
413.058
479.485
369.512
605.489
524.42
461.421
-234.286
-239.787
-253.417
-214.505
-226.339
-220.56
-235.723
-230.925
-217.462
-376.429
-388.752
-398.611
-266.537
-263.791
-281.198
-238.801
-252.177
-254.342
-245.026
-248.652
-233.972
-244.801
-257.833
-257.284
-256.41
-257.134
-242.271
-286.933
-269.824
-268.675
-353.07
-347.955
-340.023
12.8094
24.2293
17.5857
38.112
30.2627
18.0252
53.0981
42.0273
49.9295
103.759
113.564
127.035
96.5113
105.586
96.962
114.985
107.752
98.8349
-14.1258
24.0222
26.0601
26.3257
25.7076
-21.3885
121.171
74.7663
60.5898
-338.722
-347.102
-338.173
-238.745
-216.31
-232.246
-186.437
-200.601
-222.447
-153.911
-178.228
-166.797
-262.834
-279.64
-295.93
-242.739
-262.148
-245.94
-297.872
-278.71
-259.464
-264.964
-267.03
-281.715
-241.844
-253.972
-251.56
-256.864
-255.306
-241.28
-231.655
-243.359
-239.4
-249.441
-246.253
-232.799
-273.506
-259.852
-262.728
-289.783
-287.601
-279.754
-303.362
-295.606
-297.285
-291.85
-293.763
-299.994
-321.302
-310.163
-310.869
-309.07
-309.798
-321.356
-294.484
-303.841
-302.786
-292.7
-287.866
-289.923
-284.042
-285.979
-290.804
-271.268
-277.202
-274.999
-446.218
-442.311
-449.951
-419.7
-431.105
-435.879
-456.788
-470.648
-473.281
-465.937
-468.584
-456.345
-223.346
-235.258
-240.133
-223.471
-229.312
-216.724
-252.256
-239.213
-232.917
-273.941
-277.761
-269.136
-291.006
-283.736
-280.152
-291.77
-287.935
-297.531
-307.725
-307.259
-296.003
-326.409
-313.718
-314.015
-311.752
-312.846
-324.804
-311.137
-298.289
-295.145
-304.52
-301.542
-314.953
-285.383
-296.096
-298.595
-446.539
-461.531
-458.104
-467.972
-465.086
-451.33
-418.238
-415.36
-402.249
-424.977
-418.078
-422.654
-463.939
-478.554
-480.273
-475.212
-477.35
-464.309
-458.368
-473.883
-471.314
-478.194
-476.543
-462.359
-254.415
-248.103
-245.575
-252.474
-249.603
-256.25
-238.073
-243.45
-245.946
-311.369
-315.433
-309.911
-273.853
-285.787
-290.946
-269.698
-276.225
-265.716
-296.875
-286.382
-279.483
-228.787
-234.426
-224.278
-255.239
-244.837