/*--------------------------------*- C++ -*----------------------------------*\
| =========                 |                                                 |
| \\      /  F ield         | OpenFOAM: The Open Source CFD Toolbox           |
|  \\    /   O peration     | Version:  5.x                                   |
|   \\  /    A nd           | Web:      www.OpenFOAM.org                      |
|    \\/     M anipulation  |                                                 |
\*---------------------------------------------------------------------------*/
FoamFile
{
    version     2.0;
    format      ascii;
    class       surfaceScalarField;
    location    "200";
    object      phi;
}
// * * * * * * * * * * * * * * * * * * * * * * * * * * * * * * * * * * * * * //

dimensions      [0 3 -1 0 0 0 0];

internalField   nonuniform List<scalar> 
13181
(
0.000396219
0.412047
0.000383782
0.412527
0.000334937
0.412541
0.000281181
0.412546
0.000193376
0.412603
-0.000143849
0.41283
-0.000356452
0.412712
-0.000395404
0.41254
-0.000351184
0.412455
-0.000149713
0.412298
0.000234582
0.412117
0.00073256
0.412001
0.00120321
0.412029
0.0015011
0.412204
0.0015716
0.412429
0.00145109
0.41262
0.00120731
0.412745
0.000899714
0.412807
0.000397343
0.412995
-3.71509e-05
0.412949
-0.000599824
0.413055
-0.000830304
0.412723
-0.000877138
0.412562
0.411542
0.000567403
0.411354
0.00159913
0.411496
0.00161853
0.412522
0.00159839
0.412566
0.00133008
0.412871
0.000466561
0.413693
-0.000667889
0.413846
-0.00104083
0.412913
-0.00101753
0.412432
-0.00062675
0.205948
0.205959
0.000149393
0.205668
0.205673
0.00119713
0.205468
0.205486
0.00219059
0.205497
0.205538
0.00281261
0.205765
0.205816
0.00294756
0.206121
0.206172
0.00235233
0.413215
0.00140474
0.413693
0.000450011
0.413762
-0.000564985
0.41401
-0.000917733
0.413302
-0.00094153
0.413079
-0.000988765
0.41277
-1.91671e-06
0.411575
0.411357
-0.00015697
0.411306
-9.87203e-06
0.411349
0.000893697
0.411618
0.00081595
0.412644
0.000873467
0.412814
0.000938948
0.413628
-0.000539218
0.415324
-0.0015292
0.413903
-0.000833392
0.412773
-0.00103753
0.205818
-0.000703275
0.205447
-0.000312605
0.000533504
1.30805e-05
0.205117
0.000337328
-0.000727328
0.205121
0.00110286
-0.0014326
0.205511
0.00168682
-0.00182971
0.206102
0.00184886
0.00182087
0.207393
-0.00140974
-0.00192808
0.207339
0.000165929
0.415348
-0.000366741
0.414294
-0.000283247
0.413926
-0.000336507
0.413356
-0.000402185
0.413145
0.00037778
0.41199
0.000409213
0.411544
0.41147
-0.000417228
0.411442
-0.000537003
0.411468
-0.00054252
0.411624
9.18402e-05
0.41201
-9.44118e-05
0.413
-6.29918e-05
0.413596
-0.000246629
0.415508
-0.00116244
0.414819
-0.0015086
0.207763
-0.00163035
0.206987
0.205625
-0.0013681
-0.205766
0.204865
-0.000863984
-0.205179
0.00117776
0.000378812
0.203999
0.000262794
-0.20464
-0.00100405
0.203869
0.00173103
-0.204596
-0.00228713
0.205261
0.00225871
-0.205233
-0.0015254
0.207413
0.000607467
-0.206495
-1.23531e-05
0.207501
-9.52172e-05
0.00143266
0.207472
-0.000563614
-5.19706e-05
0.207059
0.0011838
0.414543
0.000837353
0.414273
0.000364529
0.413828
0.000879946
0.412629
0.000837896
0.412032
0.000585934
0.411796
0.41166
-0.000496733
0.411593
-0.000690126
0.411662
-0.000915367
0.411849
-0.000978138
0.412073
-0.000656749
0.412678
-0.000774957
0.413715
0.000763299
0.41397
0.00102605
0.206571
0.000504674
0.207481
0.209008
-0.000219102
0.206022
-0.00144872
-0.20569
0.00111656
0.20487
-0.00189777
-0.204616
0.00164344
0.0012484
-0.000120276
-0.203148
0.100997
0.101023
-0.00131021
0.0027513
-0.202872
0.100716
0.100715
-0.00325222
0.00168795
-0.206024
0.103519
0.104069
-0.00222447
0.207319
0.00234185
-0.207436
-0.00201785
0.207769
0.00206795
-0.207819
-0.00201278
0.207496
0.00198823
0.00238944
0.415743
-0.00193004
-0.00165959
0.00151877
0.415143
0.0016089
0.413738
0.00135904
0.412879
0.000975154
0.412416
0.00069188
0.412079
0.411878
-0.000543521
0.411741
-0.000746536
0.411865
-0.00101006
0.412113
-0.00137901
0.412441
-0.00156996
0.412869
-0.00164136
0.413786
-0.00103623
0.414766
-0.00140096
0.20697
-0.0014351
0.207292
0.000260782
-0.208744
0.00119185
0.206371
0.00109444
-0.206473
-0.000992859
-0.102893
-7.39784e-05
0.103152
-0.000185117
-0.100479
0.00071305
0.100604
-0.000837615
-0.0996906
-0.000753534
0.0991148
0.00132928
-0.103011
-0.00109114
0.101709
0.00239352
-0.00177705
0.00459976
-0.207557
-0.00195188
0.103151
0.103534
-0.00449369
0.20838
0.00390754
-0.207794
-0.00323275
-0.207934
0.208512
0.00265462
0.00309765
0.417338
-0.00245522
-0.00223734
0.00250292
0.415738
0.0019868
0.414254
0.0014283
0.413438
0.00103743
0.412807
0.000734474
0.412382
0.412099
-0.000573552
0.411895
-0.000785349
0.412077
-0.00103248
0.41236
-0.00136699
0.412776
-0.0018506
0.413353
-0.00227873
0.414214
-0.00148842
0.415447
-0.00147126
-0.207352
0.207761
-0.00189772
-0.207342
0.20798
-0.0030538
0.00241577
-0.206862
0.207943
0.00389181
-0.00234921
-0.00262364
-0.102665
0.00242065
0.102726
-0.0024823
-0.0502239
0.00091256
0.0500676
-0.000756285
-0.000331292
-0.0475945
0.0473506
0.000575187
-0.00198114
-0.102414
0.0039436
-0.00136063
0.0503175
0.0514942
-0.00464998
-0.103744
0.104259
0.00413505
-0.0063231
-0.209398
0.210654
0.00506744
-0.00403981
-0.209185
0.210024
0.00320145
0.00362451
0.418743
-0.00251137
-0.00251819
0.00273367
0.416629
0.0018964
0.415092
0.00133021
0.414004
0.000939805
0.413197
0.000657348
0.412664
0.412245
-0.000540237
0.412015
-0.000737374
0.412274
-0.000956685
0.412579
-0.00129045
0.41311
-0.00172617
0.413789
-0.00235023
0.414838
-0.00140022
0.416113
-0.00161644
-0.208183
0.20862
-0.00183643
-0.208793
0.209562
-0.00318519
0.00241559
-0.209413
0.210981
0.00426612
-0.00286592
-0.00296882
-0.104324
0.00407691
0.105205
-0.00495888
-0.0510734
0.00449943
0.0516934
-0.00511942
-0.00639739
-0.0518723
0.0524729
0.00579682
-0.00663628
-0.106233
0.107192
0.00567706
-0.00752178
-0.212326
0.213988
0.0058604
-0.00461691
-0.211038
0.211946
0.00370858
0.00353304
0.42087
-0.00270401
-0.00295627
0.00215967
0.418002
0.00148849
0.415763
0.00103122
0.414461
0.000745775
0.413483
0.000570521
0.412839
0.41236
-0.000493877
0.412116
-0.000612123
0.412392
-0.000774997
0.412742
-0.000967134
0.413302
-0.00122319
0.414045
-0.00156757
0.415183
-0.00118146
0.416666
-0.000939435
-0.208691
0.209018
-0.00150937
-0.210465
0.211013
-0.00265488
0.00210645
-0.212456
0.213445
0.00335405
-0.00231448
-0.00202862
-0.107624
0.00326613
0.108211
-0.00385323
-0.0554183
0.00344241
0.0557494
-0.00377346
-0.00560867
-0.0569564
0.0574484
0.00511669
-0.0053034
-0.10992
0.110734
0.00448999
-0.00549277
-0.215571
0.216798
0.00426586
-0.00332176
-0.212771
0.21341
0.00268239
0.00272668
0.421873
-0.00162659
-0.00210265
0.00151896
0.41921
0.000838178
0.416444
0.000598983
0.4147
0.0004473
0.413635
0.000346322
0.41294
0.412354
-0.000401408
0.41217
-0.000499757
0.41249
-0.000570907
0.412813
-0.000666638
0.413398
-0.000704575
0.414083
-0.000728704
0.415207
-0.000476104
0.416627
-0.000213524
-0.209309
0.209598
-0.000765189
-0.211312
0.211358
-0.000876703
0.000830851
-0.213923
0.213856
0.000861112
-0.000568468
-0.000225023
-0.109128
0.000679859
0.109131
-0.000683451
-0.0568015
0.00042292
0.0567865
-0.000407979
-0.00141353
-0.0593921
0.0594504
0.0013553
-0.00160447
-0.112234
0.112409
0.00142904
-0.00163549
-0.217553
0.217765
0.00142288
-0.00125628
-0.213848
0.214037
0.00106689
0.00120337
0.42191
-0.000389224
-0.000850752
0.00117218
0.419241
0.000335444
0.41728
4.53989e-05
0.41499
0.000101466
0.413579
0.000117082
0.412925
0.412265
-0.000323921
0.412207
-0.000360925
0.412527
-0.000370229
0.412822
-0.000314648
0.413342
-0.000250102
0.414018
3.05917e-05
0.414926
0.000151821
0.416241
0.000264995
-0.209672
0.20966
0.000163542
-0.21117
0.210778
0.000810297
-0.000418163
-0.213302
0.212408
-0.00142615
0.00102799
0.00129194
-0.108357
-0.00163589
0.107902
0.00209113
-0.0556021
-0.00208503
0.055334
0.00235322
0.00254919
-0.0584072
0.0581178
-0.00225983
0.0021597
-0.111913
0.111495
-0.00174217
0.0021907
-0.217462
0.216749
-0.00147792
0.000894387
-0.213933
0.213605
-0.000566469
-0.000342702
0.42114
0.000724294
0.000387804
0.000184635
0.418714
0.000456971
0.417008
-0.000503788
0.415951
-0.000311362
0.413386
-0.000134978
0.412748
0.412098
-0.000231755
0.412213
-0.000199191
0.412495
-0.000147816
0.412771
-2.79622e-05
0.413222
0.000224886
0.413765
0.000690354
0.41446
0.000547022
0.415744
0.00064018
-0.209406
0.209136
0.000816746
-0.210271
0.209715
0.00177878
-0.00122265
-0.211308
0.210189
-0.00257086
0.00182505
0.00186443
-0.106285
-0.00266666
0.105733
0.00321848
-0.0532982
-0.00285451
0.0530166
0.00313618
0.0043473
-0.0556628
0.0552982
-0.00398266
0.00429684
-0.10969
0.109012
-0.00361931
0.00464788
-0.215637
0.21429
-0.00330079
0.0024099
-0.213079
0.212447
-0.00177852
-0.00140081
0.419758
0.00147294
0.00130979
-0.000574278
0.417887
-3.84126e-05
0.416472
0.000183401
0.415729
-0.000675489
0.414245
-0.000403855
0.412477
0.411847
-0.000158848
0.412202
-9.94382e-05
0.412435
-1.84791e-05
0.41269
0.000159208
0.413045
0.000424222
0.4135
0.00090346
0.413981
0.000781596
0.415083
0.000783303
-0.208822
0.208522
0.00108178
-0.20916
0.20867
0.00191473
-0.00142438
-0.209146
0.208296
-0.00255346
0.00175619
0.0016476
-0.104279
-0.00240725
0.103907
0.00277889
-0.0514044
-0.00222259
0.0512592
0.00236775
0.00417662
-0.052674
0.052325
-0.00382757
0.00440327
-0.107004
0.106416
-0.00381583
0.00499732
-0.212799
0.211568
-0.00376692
0.00287172
-0.211791
0.211154
-0.00223502
-0.0018349
0.418312
0.00163913
0.00164245
-0.000919882
0.416972
-0.000297329
0.41585
-0.000244088
0.415676
-0.000820367
0.414821
-0.000644043
0.4123
0.411535
-8.7762e-05
0.412166
-4.39491e-05
0.412392
6.06529e-05
0.412585
0.000206655
0.412899
0.00043873
0.413268
0.000778863
0.413641
0.00119847
0.414663
0.00113966
0.416008
0.000712886
-0.20828
-0.208381
-0.208288
0.208063
0.00136467
-0.207681
0.208183
0.000810108
-0.00131192
-0.103556
0.000288807
0.104797
-0.00153069
-0.0520376
0.00217528
0.0512636
-0.00140134
-0.0185956
0.000604215
0.0186723
-0.000680922
0.0014386
-0.0509043
0.102393
-0.00300666
0.00122181
-0.0511423
-0.105162
0.00304254
0.104981
-0.00286204
0.00372497
-0.21063
0.209921
-0.00301605
0.00242282
-0.210686
0.210554
-0.00229014
-0.00172213
0.417223
0.00131153
0.00149977
-0.000931097
0.416181
-0.000366037
0.415284
-0.000947479
0.416257
0.000220217
0.413654
-0.000728437
0.413249
0.411302
-8.58867e-05
0.412159
-5.05626e-05
0.412356
1.25088e-05
0.412522
9.97572e-05
0.412811
0.000264243
0.413104
0.000387193
0.413518
-4.90931e-05
0.415099
-0.000769793
0.418474
-0.00174552
-0.208596
0.209493
-0.00166682
-0.208804
0.208024
-0.000915163
0.00169554
-0.103476
-0.000263042
0.10335
0.000389066
-0.102952
0.00016534
0.103241
-0.000454867
-0.0419435
0.00160469
0.0854645
-0.00238799
-0.0427377
-0.103605
0.00272465
0.103326
-0.00244592
-0.208765
0.00295527
0.209273
-0.00536867
0.00190625
0.004981
-0.209544
0.209038
-0.00447528
-0.00541689
0.4172
0.00270147
0.00410405
-0.211286
-0.207303
-0.00424846
0.416054
-0.00338678
0.41532
-0.00260408
0.414502
-0.000189054
0.413842
0.000212309
0.413252
0.000519589
0.412942
0.412453
-8.16371e-05
0.412166
-8.70463e-05
0.412362
-7.60211e-05
0.412511
-3.58324e-05
0.412771
-1.55938e-05
0.413084
-0.000195602
0.413698
-0.00141701
0.416321
-0.00172029
0.418758
1.86993e-05
-0.209412
0.208176
-0.000484595
-0.207536
0.207573
9.70604e-05
-0.000134024
-0.207198
0.207607
-0.000552329
0.000143372
-0.103782
0.000602429
0.103768
-0.000587736
-0.0871017
0.00109837
0.0876141
-0.00161068
-0.103269
0.00167813
0.207227
-0.00378818
-0.103489
0.00164029
-0.20888
0.00416131
0.208596
-0.00387743
-0.208726
0.00365724
0.208456
-0.0033874
-0.00399728
0.415574
0.00262312
0.0030002
-0.00272049
0.414777
-0.00229404
0.414893
-0.00206618
0.414274
-0.00182522
0.413601
-0.00153349
0.412961
-0.00111448
0.412523
0.412079
-0.000114925
0.412213
-0.000120337
0.412367
-0.000141817
0.412533
-0.000171525
0.412801
-0.000243989
0.413156
-0.000821619
0.414276
-0.00165044
0.41715
-0.000390999
0.417499
-0.000185836
0.416179
-0.208175
-0.207927
-0.000282111
-0.207735
0.207877
-0.000327834
-0.207952
0.208244
-0.000809722
0.000517124
-0.205582
0.00113742
0.205617
-0.00117203
-0.180228
0.00178433
0.181231
-0.00278704
-0.207565
0.00283522
0.207627
-0.00289718
-0.208354
0.00283272
0.20822
-0.00269841
-0.208269
0.00264439
0.20812
-0.00249464
-0.00397786
0.415061
0.0021958
0.00229422
-0.00326348
0.414063
-0.00253692
0.414167
-0.00178125
0.413518
-0.00111478
0.412935
-0.000843326
0.412689
-0.000775661
0.412455
0.412128
-0.000135379
0.412277
-0.00018641
0.412418
-0.000261007
0.412607
-0.000331871
0.412872
-0.000573171
0.413397
-0.00163082
0.415333
-0.00165864
0.417178
-0.000748156
0.416589
-0.00104991
0.416481
-0.000641407
0.416691
-0.208083
-0.208288
-0.000728501
-0.208499
0.208825
-0.000966913
-0.205487
0.0012535
0.204931
-0.000697476
-0.182196
0.00154879
0.183417
-0.00277011
-0.207697
0.00208976
0.207784
-0.00217654
-0.00401911
0.415903
-0.208165
-0.208023
0.00209782
0.00220644
-0.00381003
0.415662
-0.207981
-0.207889
-0.00345157
0.414703
-0.00313656
0.413748
-0.00249473
0.413525
-0.00193791
0.412961
-0.00148035
0.412477
-0.00110671
0.412315
-0.000578901
0.411927
0.412428
-0.000161136
0.412357
-0.000255691
0.412513
-0.000333531
0.412685
-0.000436538
0.412975
-0.000627193
0.413588
-0.0014337
0.41614
-0.00111575
0.41686
-0.000795803
0.416269
-0.0012147
0.4169
-0.00172228
0.417199
-0.00197889
0.419044
-0.20929
-0.209497
-0.00274556
0.396674
-0.202913
-0.192994
-0.00362771
0.384746
-0.185944
-0.197919
-0.00344548
0.416232
-0.207986
-0.208428
-0.00337393
0.415831
-0.00328271
0.415571
-0.00302063
0.414441
-0.00276994
0.413497
-0.00230811
0.413063
-0.00191199
0.412565
-0.00163551
0.412201
-0.00118194
0.411862
-0.00080679
0.411552
0.412535
-0.00018888
0.412451
-0.000278479
0.412602
-0.000399224
0.412806
-0.000525746
0.413101
-0.000720464
0.413783
-0.00118866
0.416608
-0.00102492
0.416696
-0.000939262
0.416183
-0.00124015
0.417201
-0.00165209
0.417611
-0.00187833
0.41927
-0.00233722
0.397133
-0.00284649
0.385255
-0.00284231
0.416228
-0.00290917
0.415898
-0.00284977
0.415511
-0.00267083
0.414262
-0.00246551
0.413292
-0.00213347
0.412731
-0.00181306
0.412245
-0.00153032
0.411918
-0.00119395
0.411525
-0.000882145
0.41124
0.412585
-0.000216378
0.412556
-0.000342491
0.412728
-0.000478325
0.412942
-0.000621087
0.413244
-0.000764295
0.413926
-0.000950604
0.416794
-0.000966984
0.416712
-0.00101373
0.41623
-0.00125765
0.417445
-0.00162237
0.417975
-0.00177265
0.419421
-0.00208396
0.397444
-0.00243145
0.385602
-0.00241064
0.416207
-0.00253149
0.416019
-0.00248945
0.415469
-0.00236809
0.414141
-0.0022217
0.413146
-0.00197786
0.412487
-0.00171806
0.411985
-0.00146549
0.411666
-0.00117378
0.411234
-0.00090067
0.410967
0.412622
-0.000242238
0.412669
-0.00037871
0.412865
-0.000502324
0.413066
-0.000655627
0.413397
-0.000807433
0.414078
-0.000886016
0.416873
-0.000989248
0.416815
-0.00119433
0.416435
-0.00125554
0.417506
-0.00156678
0.418287
-0.00169704
0.419551
-0.00188788
0.397635
-0.00211159
0.385826
-0.00210606
0.416201
-0.00221738
0.41613
-0.00219096
0.415443
-0.00211533
0.414065
-0.00201568
0.413046
-0.00180023
0.412272
-0.0016334
0.411818
-0.00138005
0.411412
-0.0011498
0.411004
-0.000934191
0.410752
0.412621
-0.000288292
0.412811
-0.000386776
0.412963
-0.000539518
0.413218
-0.000676404
0.413534
-0.000831332
0.414233
-0.000910851
0.416953
-0.00101497
0.41692
-0.00120673
0.416627
-0.00123464
0.417534
-0.00150065
0.418553
-0.0016141
0.419664
-0.00172836
0.397749
-0.00186718
0.385965
-0.00185994
0.416194
-0.00196035
0.416231
-0.00194334
0.415426
-0.00189574
0.414017
-0.00179998
0.41295
-0.00166871
0.412141
-0.0015174
0.411667
-0.00130034
0.411195
-0.00110344
0.410807
-0.000896539
0.410545
0.412646
-0.000286452
0.412934
-0.000434651
0.413112
-0.000568215
0.413352
-0.0007082
0.413674
-0.000862513
0.414387
-0.000917474
0.417008
-0.00102121
0.417023
-0.00119796
0.416803
-0.00131602
0.417652
-0.0014392
0.418676
-0.00153115
0.419756
-0.0015956
0.397814
-0.00167685
0.386046
-0.00166037
0.416178
-0.00174835
0.416319
-0.00173898
0.415416
-0.00170953
0.413988
-0.00163843
0.412879
-0.0015148
0.412017
-0.001393
0.411545
-0.00125095
0.411053
-0.00108187
0.410638
-0.00092456
0.410387
0.412628
-0.000304425
0.413059
-0.000432474
0.41324
-0.000589732
0.413509
-0.000730558
0.413815
-0.000859338
0.414516
-0.000910553
0.417059
-0.00101636
0.417129
-0.00117787
0.416965
-0.00132818
0.417802
-0.00137558
0.418723
-0.00145211
0.419833
-0.00147317
0.397835
-0.00152683
0.3861
-0.00148346
0.416134
-0.00156946
0.416405
-0.00156626
0.415413
-0.00155467
0.413976
-0.00150426
0.412829
-0.00142614
0.411939
-0.00132765
0.411447
-0.00116553
0.410891
-0.00101975
0.410492
-0.00088555
0.410253
0.41263
-0.00031972
0.413184
-0.000448568
0.413368
-0.00058257
0.413643
-0.000722681
0.413955
-0.000869955
0.414663
-0.000916517
0.417105
-0.00100019
0.417213
-0.00114949
0.417114
-0.00128663
0.41794
-0.00157781
0.419014
-0.00156799
0.419823
-0.00153605
0.397803
-0.00152294
0.386087
-0.00146673
0.416078
-0.00152295
0.416461
-0.00152214
0.415412
-0.00152828
0.413982
-0.00150533
0.412806
-0.00149005
0.411924
-0.00129779
0.411254
-0.00115631
0.41075
-0.00100732
0.410343
-0.00087039
0.410116
0.412627
-0.000332514
0.413308
-0.000460943
0.413497
-0.000570589
0.413753
-0.0007316
0.414116
-0.000851435
0.414783
-0.000915576
0.417169
-0.000980675
0.417278
-0.00111864
0.417252
-0.00135718
0.418178
-0.00161304
0.41927
-0.00165887
0.419869
-0.0016478
0.397792
-0.00166206
0.386101
-0.00161385
0.41603
-0.00166982
0.416517
-0.00167089
0.415413
-0.00167121
0.413983
-0.00161684
0.412751
-0.00157045
0.411877
-0.00150363
0.411188
-0.00140049
0.410646
-0.00131151
0.410254
-0.00119091
0.409996
0.41228
-0.000342913
0.413431
-0.000470135
0.413624
-0.000599948
0.413883
-0.000713383
0.41423
-0.000828338
0.414898
-0.000887377
0.417229
-0.000960153
0.417351
-0.00119706
0.417489
-0.00140574
0.418387
-0.00156744
0.419432
-0.00159669
0.419898
-0.00157868
0.397774
-0.00157934
0.386102
-0.00151242
0.415963
-0.00156267
0.416567
-0.00156805
0.415419
-0.00157248
0.413987
-0.00154558
0.412724
-0.0014877
0.411819
-0.00143202
0.411132
-0.00136464
0.410579
-0.00126589
0.410155
-0.00118111
0.409911
0.411924
-0.000351091
0.413552
-0.000453959
0.413727
-0.000580929
0.41401
-0.000691843
0.41434
-0.00082469
0.415031
-0.000878989
0.417283
-0.00104449
0.417516
-0.0012753
0.41772
-0.00137706
0.418488
-0.00152279
0.419578
-0.00154616
0.419921
-0.00152045
0.397748
-0.00151012
0.386091
-0.00143266
0.415886
-0.0014768
0.416611
-0.00148381
0.415426
-0.00149095
0.413994
-0.00146763
0.412701
-0.0014405
0.411792
-0.00137123
0.411063
-0.0012924
0.4105
-0.00124843
0.410111
-0.00115246
0.409815
0.411577
-0.000334496
0.413648
-0.000480645
0.413873
-0.000582031
0.414111
-0.000713075
0.414472
-0.000796436
0.415114
-0.000982404
0.417469
-0.00116245
0.417696
-0.00125484
0.417812
-0.00135104
0.418585
-0.00148838
0.419715
-0.00149793
0.419931
-0.00147212
0.397722
-0.00145244
0.386072
-0.00136273
0.415796
-0.00140676
0.416655
-0.00141286
0.415432
-0.00142422
0.414006
-0.00140327
0.41268
-0.0013828
0.411772
-0.00132051
0.411
-0.00127283
0.410453
-0.00119215
0.41003
-0.00112756
0.40975
0.411238
-0.000360996
0.413764
-0.000459898
0.413972
-0.000558511
0.41421
-0.000687258
0.4146
-0.000925798
0.415353
-0.00122135
0.417764
-0.00114718
0.417622
-0.00123381
0.417899
-0.0013237
0.418675
-0.00145721
0.419849
-0.0014606
0.419934
-0.00143279
0.397694
-0.00141108
0.38605
-0.00131011
0.415695
-0.00134593
0.416691
-0.00135786
0.415444
-0.00137074
0.414019
-0.0013512
0.412661
-0.00131344
0.411734
-0.00130146
0.410988
-0.00123839
0.410389
-0.00118652
0.409979
-0.00112916
0.409693
0.410883
-0.000340052
0.413854
-0.000459838
0.414092
-0.000578515
0.414328
-0.000660163
0.414682
-0.00134932
0.416042
-0.00118827
0.417603
-0.00113527
0.417569
-0.00121762
0.417981
-0.00130459
0.418762
-0.00143139
0.419975
-0.00142706
0.41993
-0.00140155
0.397669
-0.00137596
0.386024
-0.00126668
0.415586
-0.00130208
0.416727
-0.00131268
0.415454
-0.00132666
0.414033
-0.0013101
0.412644
-0.00129879
0.411723
-0.00124634
0.410936
-0.00123365
0.410377
-0.00116434
0.409909
-0.00111275
0.409641
0.410533
-0.000361983
0.413965
-0.000435229
0.414165
-0.000551719
0.414445
-0.00104048
0.415171
-0.00136422
0.416365
-0.00120141
0.417441
-0.00112239
0.41749
-0.00120205
0.418061
-0.00128675
0.418846
-0.00141092
0.4201
-0.00139695
0.419916
-0.00137787
0.39765
-0.00135489
0.386001
-0.00123378
0.415464
-0.00126713
0.41676
-0.00128079
0.415468
-0.00129571
0.414047
-0.00127901
0.412627
-0.00127103
0.411715
-0.00124422
0.410909
-0.00119123
0.410324
-0.0011481
0.409866
-0.00107874
0.409572
0.410209
-0.000336021
0.414052
-0.000454064
0.414283
-0.00054606
0.414537
-0.00114836
0.415773
-0.00131092
0.416528
-0.00117049
0.4173
-0.0011134
0.417433
-0.0011899
0.418137
-0.00127226
0.418929
-0.00139439
0.420222
-0.00137631
0.419898
-0.00136087
0.397634
-0.00133989
0.38598
-0.00121162
0.415336
-0.00124335
0.416792
-0.00125671
0.415481
-0.00127258
0.414063
-0.00125694
0.412612
-0.00125192
0.41171
-0.00122727
0.410884
-0.00120046
0.410297
-0.00113768
0.409803
-0.00109427
0.409529
0.409865
-0.000329109
0.414136
-0.000425785
0.41438
-0.000515559
0.414626
-0.000984395
0.416242
-0.00123414
0.416778
-0.00118762
0.417254
-0.00110321
0.417348
-0.00118512
0.418219
-0.00126356
0.419007
-0.00138507
0.420343
-0.00135883
0.419872
-0.00135193
0.397627
-0.00133434
0.385963
-0.00120012
0.415202
-0.00123252
0.416824
-0.00124131
0.41549
-0.0012621
0.414084
-0.00126591
0.412615
-0.00124197
0.411686
-0.00121796
0.41086
-0.00117244
0.410251
-0.00115572
0.409787
-0.00109337
0.409466
0.409522
-0.000342096
-0.000440985
-0.000506508
-0.000752092
-0.000908115
-0.00118441
-0.00109878
-0.00118264
-0.00125075
-0.00136452
-0.00134334
-0.00134136
-0.00132393
-0.00120875
-0.00123294
-0.00123505
-0.0012566
-0.00123614
-0.00123792
-0.00121396
-0.0011942
-0.00113368
-0.00111922
0.00379046
-0.00416883
-0.0550399
0.0572098
0.00599578
-0.0565942
-0.00325675
-0.00335457
-0.0514006
-0.00706447
0.0520677
0.000815511
-0.000838016
-0.056779
0.0598598
0.00199052
-0.059737
-0.000997577
-0.0011157
0.0577522
-0.00303202
-0.00311912
-0.00185777
0.00211343
-0.0558578
0.0586612
-0.00216667
-0.0589838
0.00128564
0.00120372
0.0599216
-0.000678491
-0.000796895
-0.00284742
0.0031324
-0.0535832
0.0556026
-0.00425951
-0.0560082
0.00466516
0.0583179
0.00148241
0.00141
-0.00234744
0.00253234
-0.0515892
0.0523319
-0.00430372
-0.0527272
0.00469903
0.00478027
0.0551696
0.00231674
-0.00306093
-0.0512934
-0.000691297
0.020816
0.000415225
-0.0103702
-0.0101697
-0.000863841
-0.00886242
-0.00956065
0.0504552
-0.00224791
-0.0504124
0.00220503
0.00450295
0.0520056
0.00427676
-0.00475965
-0.0505905
-0.0473758
0.000207853
0.0468366
0.00589937
-0.0508396
-0.0064604
-0.0499387
-0.0022248
0.0501824
0.00375138
-0.00448975
-0.106886
0.0551711
-0.0548326
0.00345192
-0.0515432
0.00401865
0.0520239
0.0137474
0.00552416
-0.0271467
0.0138017
-0.00293047
-0.00299617
0.0049017
-0.0239679
-0.00531587
0.0243821
0.0054467
-0.0564073
0.110515
0.00596713
-0.10942
-0.00706184
-0.105922
-0.00777436
0.10706
0.00137062
-0.00152111
-0.108977
0.0564793
-0.0564545
0.000790727
0.00313457
0.055479
0.0564515
0.00236061
-0.00254808
-0.0562641
0.0289122
-0.000795519
-0.0288576
0.00148425
-0.000743388
-0.0284626
-0.0024982
0.00240717
0.0285537
0.0145342
0.0004936
-0.0149148
-0.000112958
-0.0146613
0.00231767
-0.00253705
0.0148807
0.00187475
-0.0592764
0.113233
0.00263705
-0.112863
-0.00300645
-0.00628068
0.111492
-0.0011532
0.00153339
-0.108737
0.0554689
-0.0556957
-0.00163093
0.000422628
0.0564796
0.0564873
-0.000686235
0.00082103
-0.0566221
0.0294491
0.000527363
-0.0295274
-0.000721736
0.00027272
-0.0294793
-0.000175328
0.000252599
0.0294658
-6.37942e-05
0.0133596
4.75897e-05
-0.0133486
-5.85562e-05
-0.0135203
7.5383e-05
0.0135308
-8.57994e-05
-0.00189828
-0.0586756
0.11268
-0.00130242
-0.113094
0.00171661
-0.00176676
0.113395
-0.00255259
0.00310976
-0.106842
0.0533581
-0.053624
-0.00258158
-0.00184551
0.0552293
0.054465
-0.0025817
0.00287946
-0.0547628
0.0020367
0.0274063
-0.0275181
-0.00192488
-0.0283402
0.000867637
-0.00160165
0.0281817
0.000892475
0.0141999
-0.00171036
-0.0145537
0.00206418
-0.0137372
-0.000325244
2.46341e-05
0.0140378
-0.00386109
-0.0560612
0.109918
-0.00388499
-0.110728
0.00469493
0.00269965
0.11214
0.0248343
-0.00321662
-0.0249258
0.00166943
0.00163874
-0.01297
-0.00154792
0.00157402
0.0129439
-0.00394464
-0.0530331
0.106708
-0.00453799
-0.107466
0.00529577
0.00511073
0.109104
0.0228597
-0.00241532
-0.0229583
0.00251393
-0.0238507
-0.00300567
0.00313668
0.0237197
-6.05785e-05
-0.000283523
-0.102608
-0.000862608
0.0452045
-0.0449549
0.000613061
0.000430279
0.02099
-0.00123646
-0.0415697
-0.00295613
0.102569
-0.103055
0.00344245
0.00125415
0.0506397
-0.00256694
-0.0284212
0.00252552
-0.00371696
-0.0272259
0.00348479
0.0274581
-0.0535727
0.00456976
0.0541059
-0.00510299
-0.0273064
0.027576
-0.00201256
-0.00197401
0.0285369
-0.0286205
-0.00125566
-0.00122767
0.00379724
-0.0245452
0.0248834
-0.00413542
0.00383348
-0.00407393
-0.027066
0.00206289
-0.0147588
-0.00196533
0.00275575
-0.00283485
0.0138265
-0.0544728
0.00681087
-0.00755874
0.0552207
-0.0274082
-0.0027237
0.027746
0.00514164
0.0147432
0.00206931
-0.0147496
-0.000118196
-0.0294984
0.000381407
-0.000244135
-0.000809783
0.00143371
0.0291426
-0.000854323
0.00197399
0.0566034
-0.00212582
-0.0143984
0.014517
-0.00092844
0.0150152
-0.000137209
-0.0149962
0.0143461
0.0143548
-0.00127455
-0.00138756
-0.000812381
-0.0143815
2.45142e-06
-0.0136025
7.96906e-05
0.000776491
-0.000311472
0.0140692
-0.0589986
0.00366431
0.0593056
-0.00193127
-0.00203997
-0.0146802
0.0143914
0.00106538
0.0148484
0.000131073
-0.0149771
0.0149062
0.00215469
0.00083146
-0.0150181
0.00419502
-0.0586454
-0.00222035
-0.00232792
0.000880791
-0.0284895
-0.00152509
0.000793648
0.000490076
-0.000926015
0.0291666
0.000718463
-0.00101209
0.0563003
0.00119908
-0.0150852
0.0148943
0.000681004
0.0141007
0.000959882
-0.0141798
0.0149597
-0.000119859
0.000509332
-0.0150672
-0.00060268
-0.013371
0.000236502
1.65441e-05
0.0133591
-1.59935e-05
-0.0597122
-0.000799368
0.059517
0.000547717
0.000446894
-0.0146795
0.0147415
-4.54654e-05
0.0139172
-0.000824346
-0.0136956
0.0147791
0.000144734
-2.43271e-05
-0.0146076
-0.000278772
-0.0598467
0.0002597
0.000153486
-0.0268848
-0.00205133
0.0268326
0.00101795
0.00108551
0.0260522
-0.00213064
0.0022166
-0.0261382
0.0139753
0.00099309
-0.0269517
0.00105647
0.00104719
-0.00160524
-0.0130397
0.00167492
-0.0018719
0.00239127
0.0136806
-0.0571979
-0.00371024
0.0568033
0.00206635
0.00203855
-0.0141464
0.0138468
-0.00157232
0.0264333
0.00158239
-0.00299292
-0.0266281
0.014181
-0.00058898
-0.00149765
-0.0143591
-0.00347776
-0.0575832
0.00195619
0.00190679
-0.0252462
-0.00192097
0.0251544
0.00201277
0.0245553
-0.00163119
0.00171428
-0.0246384
-0.00213042
0.0259973
0.00218533
-0.00195693
0.00206037
-0.0253497
-0.003032
-0.0239957
0.00317703
-0.00322255
0.0247088
0.0016904
0.00165763
0.00153353
0.0263445
-0.00299257
0.0255315
-0.00309092
-0.0256572
0.0539464
-0.00456771
-0.0543432
0.00496449
-0.023926
-0.00102197
0.0238557
0.00109226
0.0235763
-1.22062e-05
0.000118182
-0.0236823
-0.00156808
0.024466
0.00165734
-0.00113079
0.00118667
-0.0239818
0.022645
-0.000745821
-0.0230348
0.00113563
-0.00231024
0.00241191
0.022758
0.0046713
-0.00526857
-0.0529754
-0.0269836
0.00359122
-0.024882
0.00354349
0.0251357
0.0127678
0.0037931
-0.0167519
0.000191031
0.00342088
-0.0110816
-0.00363822
0.0112989
-0.0025459
0.00298143
-0.104714
0.0515763
-0.0517501
-0.00217369
-0.0025914
0.053095
0.0522416
-0.00274642
0.00298745
-0.0524827
0.0256562
-0.0257562
-0.0018569
-0.0265123
-0.00203434
0.0264162
0.0107155
-0.00173911
-0.0108655
0.00188916
-0.0110216
-0.00184393
0.00197995
0.0108856
-0.00223415
-0.0509181
-0.00348295
0.104534
-0.10492
0.00386891
0.00509908
0.106012
-0.0114213
0.00279236
0.0117468
-0.00311781
0.013409
0.00304868
-0.00304481
-0.0134128
-0.0244221
0.0247553
0.00456848
0.00520919
-0.0270933
0.00684958
-0.053655
-0.00766738
-0.0266249
-0.00201804
-0.0019509
0.0273059
-0.00269186
0.0541698
0.00298707
-0.010998
-0.000164692
0.0112205
-5.77364e-05
0.0117492
-0.000590723
0.000179964
-0.0113384
-0.0113111
-0.00108709
0.0112359
0.00116232
0.0114382
-0.00110628
0.00117527
-0.0115072
-0.000420445
0.0120925
7.70723e-05
-0.00127813
0.0115341
0.00110083
-0.0113569
-0.00170414
-0.0108752
0.00155775
-0.00222282
-0.0102457
0.00195288
0.0105157
-0.00453298
0.00495296
0.0535264
0.0254011
-0.00309217
0.0244934
-0.00288913
-0.0246362
-0.00103921
0.0112713
0.00120608
0.0111263
-0.000884319
0.000899467
-0.0111415
0.0243575
-0.00286982
0.0235803
-0.0023786
-0.023617
0.0510456
-0.00349929
-0.0513485
0.00380226
6.11172e-06
-0.0238411
0.000436657
0.0233983
0.00222168
-0.048834
0.0243505
0.0237392
-0.000870419
-0.000606947
0.00350425
-0.00379669
-0.0242528
0.00450416
-0.0236368
-0.00483522
0.00335584
-0.047479
-0.00146986
-0.00206786
0.0233992
0.0242618
-0.0245273
0.0241656
0.000367776
0.00347862
0.00925009
3.90743e-05
-0.0258013
0.00566148
0.0262761
-0.00305377
-0.00308246
-0.0132856
0.012851
0.00391328
-0.0112612
0.0114214
0.00326067
0.00398202
-0.0134746
0.00558678
-0.0253488
-0.00603933
-0.0149034
0.00284207
-0.00383236
0.0158937
0.00247815
-0.0145483
-0.00283327
-0.0133703
-9.9746e-06
0.0133039
7.63292e-05
3.04181e-06
-0.0133937
2.04119e-05
-0.0136098
-0.00199696
0.00241252
0.0131942
-0.0023474
-0.0145797
0.00331727
-0.0127266
-0.00313609
0.025248
-0.0126299
0.00166845
0.00157615
0.0121051
-0.00120139
-0.0108495
-5.41761e-05
-0.00158708
-0.0127882
0.00164868
0.0102766
-0.00143232
-0.0102693
0.00142501
-0.00170219
0.0018139
0.0106038
-0.011016
0.0109375
-0.00176539
0.0107193
-0.001654
-0.0108044
0.0233152
-0.00277206
-0.0234501
0.00290698
0.00125879
-0.0128135
0.0115659
-1.11414e-05
0.0281503
0.00328725
-0.0279709
-0.00173835
-0.00172834
0.0115516
-0.0124129
0.00092284
-6.15711e-05
-0.0140294
0.00204043
0.0132477
0.00254552
0.00900626
-1.90879e-07
0.0031849
0.0284482
-0.00177429