/*--------------------------------*- C++ -*----------------------------------*\
| =========                 |                                                 |
| \\      /  F ield         | OpenFOAM: The Open Source CFD Toolbox           |
|  \\    /   O peration     | Version:  5.x                                   |
|   \\  /    A nd           | Web:      www.OpenFOAM.org                      |
|    \\/     M anipulation  |                                                 |
\*---------------------------------------------------------------------------*/
FoamFile
{
    version     2.0;
    format      ascii;
    class       volVectorField;
    location    "200";
    object      U;
}
// * * * * * * * * * * * * * * * * * * * * * * * * * * * * * * * * * * * * * //

dimensions      [0 1 -1 0 0 0 0];

internalField   nonuniform List<vector> 
6584
(
(45.0031 -0.00822506 1.94454e-25)
(45.0022 -0.0180736 9.44708e-24)
(45.0028 -0.0245693 8.57621e-29)
(45.003 -0.0335183 -1.69958e-23)
(45.0035 -0.043008 0)
(45.0035 -0.0535649 0)
(45.0032 -0.0641966 0)
(45.0014 -0.0716236 1.79826e-23)
(44.9985 -0.0732186 1.85638e-23)
(44.9935 -0.0620403 0)
(44.9882 -0.0290471 8.85037e-24)
(44.9844 0.0238717 -6.09058e-24)
(44.9851 0.0840857 -4.71466e-25)
(44.9903 0.131989 1.22732e-24)
(44.9966 0.154949 4.30467e-25)
(45.0032 0.152903 3.82942e-23)
(45.0064 0.136283 3.44798e-23)
(45.0077 0.114111 2.77301e-24)
(45.0073 0.091071 2.4501e-23)
(45.0065 0.070271 1.78154e-23)
(45.0053 0.0530255 0)
(45.0047 0.0378021 0)
(45.0036 0.0271069 2.74799e-23)
(45.0046 0.0121247 1.69321e-23)
(45.0128 -0.0172834 -9.21589e-24)
(45.0109 -0.0364019 -3.59475e-23)
(45.0133 -0.0484876 -4.82575e-23)
(45.0144 -0.0665428 0)
(45.0166 -0.0856487 -6.61753e-24)
(45.0171 -0.107484 -5.44843e-23)
(45.0157 -0.130514 -3.34741e-23)
(45.0072 -0.147732 5.69631e-23)
(44.9952 -0.153957 -1.72108e-24)
(44.962 -0.13381 -1.4181e-23)
(44.9215 -0.0667402 -5.08089e-27)
(44.8943 0.0447106 0)
(44.8989 0.173412 2.00184e-23)
(44.9351 0.274377 1.3926e-23)
(44.9841 0.321722 -8.41604e-23)
(45.018 0.315088 -2.23455e-23)
(45.0322 0.277 -5.31744e-23)
(45.0375 0.22924 -6.94118e-23)
(45.0355 0.181079 -1.81946e-22)
(45.031 0.138696 -1.50817e-22)
(45.0256 0.104427 -1.02195e-23)
(45.022 0.0740099 -4.37993e-24)
(45.0174 0.0541848 0)
(45.0191 0.0252816 1.47278e-23)
(45.0281 -0.0265357 -2.32665e-23)
(45.0268 -0.0538559 0)
(45.0321 -0.070544 -9.49417e-24)
(45.0359 -0.0976553 -6.27169e-23)
(45.0416 -0.12678 -9.55699e-23)
(45.0444 -0.161768 0)
(45.042 -0.20222 0)
(45.0236 -0.23453 -1.65396e-23)
(44.9876 -0.270239 -3.7306e-24)
(44.9293 -0.192894 4.15932e-24)
(44.862 -0.111505 -7.54601e-24)
(44.808 0.0339857 -1.09572e-23)
(44.8108 0.21476 0)
(44.8757 0.360902 0)
(44.9617 0.432221 1.70591e-24)
(45.0458 0.50953 -9.64791e-23)
(45.0854 0.427668 0)
(45.0967 0.34562 -2.99466e-23)
(45.0897 0.267188 0)
(45.0768 0.201557 -2.31741e-23)
(45.0628 0.150693 -6.55651e-23)
(45.0528 0.105816 -3.98486e-23)
(45.0423 0.0788029 0)
(45.0418 0.0381822 1.14867e-23)
(45.0469 -0.0351558 -1.42473e-23)
(45.0478 -0.0690353 0)
(45.0573 -0.0893035 -1.27208e-23)
(45.066 -0.12486 0)
(45.0781 -0.163966 0)
(45.0875 -0.214449 0)
(45.0883 -0.278482 -3.17009e-23)
(45.0646 -0.342301 1.75151e-22)
(44.9974 -0.423979 -9.49799e-24)
(44.8854 -0.347304 1.29025e-23)
(44.7406 -0.255908 -7.7579e-24)
(44.5904 -0.0249585 2.31831e-24)
(44.5696 0.319112 2.11208e-24)
(44.7229 0.596378 0)
(44.9226 0.689347 -1.41204e-22)
(45.0686 0.640519 0)
(45.189 0.590011 0)
(45.192 0.461656 2.32342e-22)
(45.1715 0.344788 1.5499e-22)
(45.1417 0.254291 -5.2754e-23)
(45.114 0.188038 -3.74076e-23)
(45.0933 0.130552 0)
(45.0749 0.0983948 1.64232e-23)
(45.069 0.0493103 1.37204e-23)
(45.0679 -0.04233 -5.51691e-24)
(45.0728 -0.0805319 -3.58694e-25)
(45.0876 -0.102908 -1.68849e-24)
(45.1042 -0.145464 -2.56485e-24)
(45.1265 -0.192923 4.36587e-24)
(45.151 -0.259566 1.34823e-22)
(45.1646 -0.351791 -2.37112e-22)
(45.161 -0.454902 2.09059e-22)
(45.0233 -0.501403 1.25327e-23)
(44.8817 -0.567709 6.21236e-23)
(44.6012 -0.522479 -7.31461e-24)
(44.2014 -0.187282 1.25544e-23)
(44.1 0.475514 2.0337e-25)
(44.4903 0.987024 1.9448e-22)
(44.9273 1.06845 0)
(45.1821 0.915455 1.41867e-22)
(45.2701 0.699828 -3.35843e-23)
(45.3278 0.542867 -1.98442e-22)
(45.2818 0.402619 -1.13401e-22)
(45.2239 0.28856 4.14605e-23)
(45.177 0.211708 -2.91316e-24)
(45.1409 0.144934 -1.759e-24)
(45.1123 0.110489 1.88745e-23)
(45.0982 0.057251 -7.35854e-24)
(45.0896 -0.0472754 2.73528e-24)
(45.1 -0.0869588 -7.23218e-24)
(45.1212 -0.109242 -3.80743e-25)
(45.1486 -0.155821 0)
(45.1848 -0.206518 -2.93237e-23)
(45.2333 -0.28622 -1.5548e-23)
(45.2719 -0.383735 -9.26714e-23)
(45.2333 -0.495463 -2.01615e-23)
(45.1589 -0.663708 7.75827e-23)
(45.0105 -0.890703 3.44706e-22)
(44.485 -0.926939 7.52098e-23)
(43.7266 -0.61543 1.21393e-26)
(43.3294 0.584773 -2.59496e-24)
(44.1773 1.54933 3.38917e-23)
(45.0888 1.64765 -3.2112e-22)
(45.4391 1.2383 0)
(45.495 0.885231 1.79697e-26)
(45.5066 0.590658 4.44426e-23)
(45.4159 0.429809 1.24772e-23)
(45.3195 0.297158 4.42955e-23)
(45.2474 0.216711 -1.76783e-23)
(45.1919 0.145865 0)
(45.1515 0.112854 -9.89696e-24)
(45.1267 0.0606852 -1.43782e-23)
(45.1103 -0.0493811 3.08781e-26)
(45.127 -0.0873533 -3.38143e-24)
(45.155 -0.10681 4.23599e-24)
(45.1946 -0.153267 5.75146e-25)
(45.2472 -0.199922 9.33346e-25)
(45.3246 -0.285235 -4.46455e-23)
(45.4016 -0.378018 -6.1302e-23)
(45.3942 -0.532543 -1.60988e-24)
(45.425 -0.78844 -1.13755e-23)
(45.3788 -1.20635 5.51107e-23)
(44.7822 -1.67608 0)
(43.1448 -1.87549 4.84128e-23)
(41.0496 0.76938 1.93728e-24)
(43.9896 3.21115 1.42518e-22)
(45.4755 2.31357 -2.81179e-24)
(45.9259 1.50644 0)
(45.8301 0.978069 9.67868e-23)
(45.7211 0.56781 1.34768e-23)
(45.564 0.408992 1.16563e-23)
(45.4202 0.271932 -3.37539e-24)
(45.3186 0.198615 -3.80158e-23)
(45.2411 0.13103 0)
(45.1884 0.103894 -9.2493e-24)
(45.1513 0.0585806 -9.22975e-24)
(45.1282 -0.0483804 -3.36348e-24)
(45.1512 -0.0815528 2.93834e-24)
(45.1851 -0.0953847 1.51258e-24)
(45.2364 -0.136858 1.01316e-24)
(45.3049 -0.171106 -1.86854e-24)
(45.4101 -0.248221 2.1324e-23)
(45.5322 -0.313958 6.24916e-27)
(45.59 -0.484162 -1.05067e-23)
(45.7743 -0.756842 8.65029e-27)
(46.014 -1.25347 -1.30878e-22)
(45.9062 -2.21839 -7.64522e-24)
(45.0726 -4.60795 3.06806e-24)
(45.746 5.76638 2.58019e-23)
(46.7366 2.85526 -2.38892e-23)
(46.6457 1.51406 5.09757e-23)
(46.2495 0.902019 -9.16073e-24)
(45.9366 0.448889 3.08151e-23)
(45.7035 0.328215 3.12248e-23)
(45.5118 0.208368 2.36966e-23)
(45.3808 0.155467 -1.2782e-23)
(45.2822 0.0998716 0)
(45.2183 0.0832258 0)
(45.1688 0.0504738 -8.76104e-29)
(45.1418 -0.0444893 -6.30628e-25)
(45.1702 -0.0704506 -1.15581e-25)
(45.208 -0.0765259 -4.57938e-25)
(45.2677 -0.108593 2.3969e-24)
(45.3473 -0.123508 3.04987e-24)
(45.4707 -0.178192 1.45787e-23)
(45.627 -0.197064 3.98038e-23)
(45.7619 -0.337745 0)
(46.086 -0.514285 0)
(46.6256 -0.823148 0)
(47.306 -1.60543 -4.19176e-24)
(48.8414 -3.38203 6.64204e-25)
(50.2986 5.00207 0)
(48.4072 2.19941 0)
(47.3467 1.06245 0)
(46.6342 0.604977 1.08528e-23)
(46.099 0.238595 0)
(45.8037 0.190237 -3.51315e-23)
(45.5769 0.110809 -2.20044e-23)
(45.4237 0.090093 -2.09221e-24)
(45.3086 0.054643 0)
(45.2368 0.0521834 5.69828e-25)
(45.1765 0.0366766 1.13793e-24)
(45.1503 -0.0384185 1.29484e-25)
(45.1823 -0.0559829 -1.84414e-25)
(45.2211 -0.0536062 1.99259e-25)
(45.2839 -0.0738806 9.88817e-25)
(45.3667 -0.0671483 -2.35032e-24)
(45.492 -0.0916824 -1.61085e-25)
(45.6574 -0.0598687 -4.37086e-24)
(45.8443 -0.132093 -2.0061e-25)
(46.2126 -0.142441 0)
(46.8364 -0.119041 -1.15336e-23)
(47.8548 -0.234034 2.24246e-29)
(49.945 -0.36812 -1.55213e-24)
(52.3403 1.23769 -4.03433e-24)
(49.3238 0.562588 -1.42821e-23)
(47.6807 0.262939 -1.09147e-22)
(46.8361 0.14636 0)
(46.1609 -0.0186387 -7.30697e-23)
(45.8393 0.0175548 0)
(45.602 -0.00626733 -7.49548e-25)
(45.4388 0.010791 0)
(45.3157 0.00062144 -8.22293e-25)
(45.2406 0.0138951 1.04805e-25)
(45.1727 0.0183655 -6.91291e-25)
(45.1539 -0.0312243 0)
(45.187 -0.0406768 -1.03968e-24)
(45.2239 -0.0308818 -1.02486e-24)
(45.2843 -0.0398112 -3.58925e-26)
(45.3618 -0.0147811 7.16199e-25)
(45.4733 -0.01129 4.96827e-24)
(45.621 0.057858 1.70359e-23)
(45.8141 0.0623865 6.76879e-24)
(46.1171 0.198479 0)
(46.5839 0.490234 5.45994e-23)
(47.4034 0.973376 1.57951e-23)
(48.8079 2.16745 -8.81602e-25)
(51.3948 -2.43228 -1.73381e-24)
(49.0649 -1.11491 2.45011e-23)
(47.529 -0.553059 4.13739e-24)
(46.7895 -0.327817 6.33488e-23)
(46.1089 -0.261633 3.16988e-22)
(45.8039 -0.155422 1.7689e-22)
(45.5822 -0.122659 -1.19036e-22)
(45.4235 -0.0710583 -8.36268e-23)
(45.3019 -0.0550823 3.68334e-24)
(45.2288 -0.0273332 1.5883e-24)
(45.1572 -0.00263991 -4.08829e-24)
(45.1534 -0.0240306 1.15821e-25)
(45.1856 -0.026942 2.41373e-25)
(45.2185 -0.0121282 4.6467e-25)
(45.2722 -0.0125535 1.33315e-25)
(45.3386 0.0234444 -1.84312e-32)
(45.4272 0.0452042 8.32195e-24)
(45.5406 0.129433 2.6403e-23)
(45.7004 0.188576 6.46396e-24)
(45.8798 0.391621 0)
(46.0823 0.77272 -1.66496e-23)
(46.4409 1.47091 -3.99237e-24)
(46.7705 2.91596 -1.65492e-24)
(49.0156 -4.15491 -2.4406e-25)
(48.0196 -2.1206 0)
(47.0342 -1.10976 -1.03974e-22)
(46.5425 -0.684146 8.2776e-23)
(45.9675 -0.443192 4.65182e-22)
(45.7119 -0.297738 3.03485e-22)
(45.5241 -0.220577 0)
(45.3816 -0.144449 -7.53241e-23)
(45.2692 -0.105827 -4.35999e-23)
(45.2024 -0.0670556 2.79798e-24)
(45.1313 -0.0243172 -3.72169e-24)
(45.1503 -0.0177514 0)
(45.18 -0.016432 1.68865e-25)
(45.2079 0.000469085 -2.02138e-25)
(45.2533 0.00462985 -5.51533e-25)
(45.3066 0.0434556 0)
(45.3714 0.0713298 -1.6748e-24)
(45.4489 0.150794 4.4891e-24)
(45.558 0.22907 -5.31933e-25)
(45.6236 0.416778 6.54166e-25)
(45.6067 0.722856 7.88791e-24)
(45.5611 1.27922 1.50843e-24)
(45.1301 2.26081 0)
(46.4756 -4.11455 -2.44785e-25)
(46.8044 -2.29907 3.83509e-24)
(46.4427 -1.31385 5.17562e-23)
(46.206 -0.863412 5.43037e-24)
(45.7824 -0.545784 2.12823e-22)
(45.5892 -0.392395 2.18908e-22)
(45.441 -0.289793 0)
(45.3211 -0.201942 -9.74855e-25)
(45.2226 -0.146767 1.65275e-23)
(45.1646 -0.101856 9.51358e-24)
(45.0974 -0.0448508 3.29644e-25)
(45.1461 -0.0129407 0)
(45.1726 -0.00982252 0)
(45.1957 0.00652814 0)
(45.2332 0.0116052 0)
(45.2752 0.0467322 -2.1702e-25)
(45.3215 0.0712841 -8.94274e-27)
(45.3724 0.130686 -9.94591e-24)
(45.4124 0.208808 9.88381e-23)
(45.4385 0.329199 0)
(45.3178 0.491579 0)
(45.1245 0.72997 1.714e-23)
(44.5361 0.845609 8.41114e-23)
(32.1257 -1.07094 -1.87308e-24)
(44.9472 -2.50306 -1.68181e-22)
(45.9194 -1.90355 -3.00209e-23)
(45.9562 -1.24145 -2.23137e-25)
(45.8832 -0.885539 -1.23478e-24)
(45.5962 -0.579169 -7.27509e-23)
(45.4614 -0.438626 7.95683e-24)
(45.3483 -0.328992 1.32918e-25)
(45.2513 -0.240668 -8.17296e-23)
(45.168 -0.175948 0)
(45.1193 -0.129699 3.58903e-24)
(45.0582 -0.0629277 -7.82102e-24)
(45.1423 -0.00977797 0)
(45.1654 -0.00693113 -8.84057e-25)
(45.1848 0.00704847 1.84745e-26)
(45.216 0.0104687 0)
(45.2502 0.0384488 0)
(45.2855 0.054646 -3.32402e-23)
(45.3221 0.0948325 9.07088e-24)
(45.3527 0.133408 1.37102e-22)
(45.3433 0.206061 1.40541e-22)
(45.2424 0.249496 1.0655e-22)
(45.0947 0.264168 0)
(44.9664 -0.0485995 -5.96222e-24)
(36.9917 -0.819676 1.78731e-23)
(44.8366 -1.45773 -1.60533e-23)
(45.4833 -1.272 1.59843e-23)
(45.6509 -1.04126 -1.66299e-23)
(45.5438 -0.730147 2.63823e-23)
(45.4376 -0.563461 -3.47846e-24)
(45.3449 -0.444361 -1.12188e-25)
(45.2572 -0.342777 -2.33095e-25)
(45.1809 -0.26197 0)
(45.111 -0.193702 -3.73038e-23)
(45.071 -0.149919 -4.21526e-23)
(45.0166 -0.0779373 -1.07545e-23)
(45.1397 -0.00816367 2.62218e-26)
(45.1598 -0.0070629 -7.68443e-25)
(45.1768 0.00362387 1.73603e-24)
(45.2039 0.00401428 1.8928e-28)
(45.2337 0.0238086 -6.22243e-24)
(45.2642 0.030648 -2.25754e-23)
(45.2973 0.0520875 -8.64393e-23)
(45.3256 0.0669213 -1.44664e-22)
(45.3194 0.0947917 -2.92904e-23)
(45.2672 0.0755908 -4.8275e-24)
(45.23 -0.0100021 0)
(45.2345 -0.225195 -1.25851e-24)
(38.0465 -0.66117 -2.42723e-23)
(45.102 -0.82674 -7.37572e-24)
(45.3907 -0.931418 -4.9601e-24)
(45.488 -0.839 -8.69831e-24)
(45.4087 -0.639652 -1.3732e-22)
(45.3184 -0.526527 0)
(45.248 -0.427177 -1.61308e-23)
(45.1757 -0.339375 -2.45471e-24)
(45.1141 -0.269032 -1.97298e-24)
(45.0551 -0.201709 5.04566e-24)
(45.0224 -0.162785 0)
(44.9751 -0.0894978 0)
(45.1388 -0.00784178 -1.06832e-26)
(45.1566 -0.00934366 7.20668e-26)
(45.1724 -0.00216349 6.32338e-25)
(45.1971 -0.0052051 0)
(45.2257 0.00668126 -2.23168e-24)
(45.2555 0.00569825 0)
(45.2915 0.0102154 -2.61124e-23)
(45.3277 0.0127416 -1.77695e-24)
(45.363 -0.0250251 -2.12917e-25)
(45.3305 -0.0210655 -3.28933e-24)
(45.3847 -0.0981579 1.55529e-23)
(44.8276 -0.250678 -1.6884e-23)
(39.3794 -0.562004 -3.3621e-23)
(45.1829 -0.621477 3.11359e-24)
(45.3816 -0.69406 1.45827e-23)
(45.403 -0.675741 4.82366e-24)
(45.3089 -0.5531 -6.98641e-23)
(45.2301 -0.474543 7.07753e-23)
(45.1696 -0.397129 0)
(45.1064 -0.324612 2.85403e-23)
(45.0546 -0.266033 -1.19195e-24)
(45.0033 -0.20243 6.68748e-24)
(44.976 -0.169593 0)
(44.9349 -0.0979373 0)
(45.1399 -0.00849971 -6.83992e-26)
(45.156 -0.012932 1.14604e-25)
(45.1715 -0.00900524 -8.74277e-25)
(45.1954 -0.0152196 -6.58752e-25)
(45.2247 -0.0101179 0)
(45.2565 -0.0167096 0)
(45.2981 -0.022981 4.65392e-23)
(45.3469 -0.0328841 -8.94952e-24)
(45.3978 -0.0639135 6.34933e-24)
(45.4418 -0.140195 -2.22999e-23)
(45.5006 -0.128543 0)
(44.7304 -0.196217 -1.57215e-23)
(39.859 -0.587759 -1.14638e-22)
(45.2616 -0.438582 1.68493e-23)
(45.3621 -0.491943 5.31592e-23)
(45.3281 -0.51482 8.53373e-23)
(45.2494 -0.470655 5.76585e-23)
(45.1688 -0.417167 6.15325e-23)
(45.1087 -0.36186 -8.69969e-24)
(45.0495 -0.303223 -5.26917e-24)
(45.0031 -0.256411 -1.3305e-23)
(44.9571 -0.198011 -4.79086e-23)
(44.9332 -0.171551 1.20387e-24)
(44.8975 -0.103592 -1.86855e-24)
(45.1429 -0.00983454 -6.17062e-25)
(45.1578 -0.0171353 1.35191e-25)
(45.1738 -0.0159624 -8.94047e-25)
(45.1978 -0.0247563 -1.62786e-24)
(45.2289 -0.0250086 0)
(45.2637 -0.035036 0)
(45.3117 -0.0481131 6.46951e-23)
(45.3689 -0.0611687 3.91441e-24)
(45.4452 -0.104551 -1.10417e-23)
(45.4738 -0.111232 -1.69869e-23)
(45.7048 -0.308751 0)
(43.2035 -0.0201377 -3.3851e-23)
(41.9108 -0.607211 -5.41104e-25)
(45.41 -0.316667 9.69082e-24)
(45.3422 -0.4566 4.19132e-24)
(45.3218 -0.424369 -2.46387e-23)
(45.2164 -0.406202 -1.81853e-23)
(45.1275 -0.366489 1.07214e-23)
(45.0627 -0.327533 -3.45525e-24)
(45.0041 -0.27943 -4.7127e-23)
(44.9596 -0.243235 -1.4483e-23)
(44.9169 -0.190414 -6.27592e-23)
(44.8949 -0.169949 0)
(44.8634 -0.10697 -8.86401e-24)
(45.1476 -0.0115907 -6.02385e-25)
(45.1618 -0.021453 -5.85285e-25)
(45.1786 -0.0224753 0)
(45.2031 -0.0331485 -1.17567e-24)
(45.2367 -0.0375598 0)
(45.2742 -0.0488757 -3.86174e-23)
(45.329 -0.0677287 -5.04981e-24)
(45.3906 -0.0757039 6.42263e-24)
(45.4855 -0.135856 -9.85174e-24)
(45.5199 -0.102824 -1.05303e-23)
(45.7111 -0.317165 -2.84663e-24)
(43.2771 -0.0615821 -9.00402e-23)
(41.9799 -0.490437 3.44098e-23)
(45.3887 -0.244083 -9.53624e-24)
(45.3508 -0.408067 -4.34157e-24)
(45.3187 -0.34748 -1.0104e-24)
(45.1924 -0.356715 -8.97513e-24)
(45.0981 -0.321363 -1.13454e-23)
(45.0274 -0.296105 -2.63121e-23)
(44.9679 -0.255535 -5.97021e-24)
(44.9233 -0.228595 -3.59083e-24)
(44.8824 -0.181091 -2.03271e-23)
(44.8611 -0.165956 -8.82963e-24)
(44.8329 -0.108556 -3.97607e-24)
(45.1536 -0.0135722 0)
(45.1675 -0.0255592 -1.3306e-24)
(45.1854 -0.0282688 -7.59686e-25)
(45.2106 -0.0401084 -8.16121e-25)
(45.2467 -0.0478369 5.34585e-24)
(45.2866 -0.0585958 -4.31908e-23)
(45.3473 -0.0829228 0)
(45.4124 -0.0828638 -1.00185e-23)
(45.5169 -0.155249 0)
(45.566 -0.099863 0)
(45.7311 -0.307687 -1.13512e-25)
(43.3315 -0.077974 2.02632e-25)
(42.0385 -0.416963 1.56107e-23)
(45.3889 -0.198059 -6.1784e-24)
(45.3673 -0.361603 -2.04123e-24)
(45.3155 -0.287606 -2.15577e-24)
(45.1762 -0.316969 2.28324e-24)
(45.0769 -0.281256 -5.07204e-24)
(45.0001 -0.268158 -7.27148e-24)
(44.9391 -0.232632 1.23043e-23)
(44.8932 -0.213734 -3.66233e-24)
(44.8532 -0.171028 0)
(44.8317 -0.160475 1.45121e-28)
(44.806 -0.108779 0)
(45.1606 -0.0156384 0)
(45.1746 -0.0292607 -1.66607e-24)
(45.1936 -0.0332434 -9.67401e-25)
(45.2196 -0.0455886 2.06147e-24)
(45.2581 -0.0560462 0)
(45.2999 -0.064955 1.57723e-24)
(45.3652 -0.0941421 -3.14015e-23)
(45.4341 -0.0858318 -2.00058e-23)
(45.5427 -0.165699 -1.66658e-24)
(45.6054 -0.0966379 8.40836e-26)
(45.7513 -0.293133 1.19155e-23)
(43.3607 -0.0854319 -1.09534e-23)
(42.0722 -0.362927 1.9998e-23)
(45.3937 -0.165835 -2.82518e-24)
(45.3826 -0.322817 4.60773e-24)
(45.3135 -0.2414 -7.81478e-25)
(45.1664 -0.284305 -3.98299e-24)
(45.0614 -0.246495 3.37344e-24)
(44.9791 -0.243828 8.86125e-24)
(44.9161 -0.211371 -1.77182e-28)
(44.8682 -0.199428 -1.76801e-24)
(44.8285 -0.160876 -1.30616e-23)
(44.8064 -0.154179 6.6988e-24)
(44.7825 -0.107996 6.19856e-24)
(45.1685 -0.0176943 -9.62826e-25)
(45.1826 -0.0324648 -1.90553e-24)
(45.2026 -0.0374073 -2.56462e-32)
(45.2294 -0.0496977 4.55117e-24)
(45.27 -0.0624351 1.13638e-23)
(45.3135 -0.0687657 9.23576e-25)
(45.3821 -0.102002 -3.00771e-23)
(45.4548 -0.086304 -1.86001e-23)
(45.5646 -0.170391 1.01716e-23)
(45.6384 -0.0937636 0)
(45.7669 -0.277481 2.42732e-24)
(43.378 -0.0884713 -3.93963e-24)
(42.0925 -0.321428 5.81033e-24)
(45.3957 -0.141762 -2.27827e-24)
(45.3956 -0.289818 -1.96617e-29)
(45.3125 -0.205173 -6.82919e-24)
(45.1608 -0.257098 -3.28816e-24)
(45.0499 -0.216857 -8.03761e-25)
(44.9629 -0.222858 4.8292e-24)
(44.8978 -0.192099 -7.42164e-24)
(44.8476 -0.186116 -1.11153e-23)
(44.8078 -0.151062 -5.53249e-24)
(44.7846 -0.147565 -5.7856e-24)
(44.762 -0.106498 5.42171e-24)
(45.1769 -0.0196756 -8.82137e-33)
(45.1912 -0.0351503 -1.03124e-24)
(45.2122 -0.0408209 1.14937e-24)
(45.2396 -0.0526255 2.38703e-24)
(45.2821 -0.067266 8.95156e-28)
(45.3271 -0.0707331 0)
(45.3978 -0.107171 -7.71369e-25)
(45.4741 -0.0853828 -1.69024e-23)
(45.5833 -0.171219 8.54412e-24)
(45.6667 -0.0912277 0)
(45.7797 -0.261855 -9.34456e-29)
(43.3887 -0.0887589 2.95143e-24)
(42.1052 -0.289091 -6.45573e-24)
(45.3959 -0.123542 0)
(45.4069 -0.261612 4.88907e-25)
(45.3122 -0.1766 2.298e-24)
(45.1577 -0.234181 0)
(45.0411 -0.191807 1.62122e-24)
(44.9504 -0.204846 1.54941e-24)
(44.8831 -0.174928 -1.83186e-23)
(44.8305 -0.173998 -4.65591e-24)
(44.7904 -0.141846 4.69186e-24)
(44.7661 -0.140967 -5.81184e-24)
(44.7443 -0.10452 0)
(45.1855 -0.0215429 1.07079e-24)
(45.2002 -0.0373381 -1.07593e-24)
(45.2219 -0.0435676 0)
(45.2501 -0.0545876 5.40679e-25)
(45.2939 -0.0707918 2.1458e-24)
(45.3403 -0.0714252 1.21824e-25)
(45.4122 -0.110228 0)
(45.4919 -0.0837463 -3.21974e-25)
(45.5997 -0.169473 7.26813e-24)
(45.6914 -0.089003 0)
(45.7904 -0.247041 1.73561e-24)
(43.395 -0.0873576 1.17758e-24)
(42.1127 -0.263287 -4.35371e-24)
(45.3943 -0.109638 4.29393e-25)
(45.4167 -0.237562 -1.45813e-24)
(45.3124 -0.154032 1.51742e-25)
(45.1563 -0.214716 1.14982e-24)
(45.0344 -0.170788 -5.05444e-25)
(44.9408 -0.18939 1.36286e-25)
(44.8713 -0.15984 -6.64281e-24)
(44.8165 -0.163138 2.57134e-24)
(44.7757 -0.133376 2.89256e-24)
(44.7503 -0.13462 -8.01966e-25)
(44.7289 -0.102247 -3.07714e-25)
(45.1943 -0.0232682 -7.23554e-26)
(45.2093 -0.0390733 -1.30059e-24)
(45.2317 -0.0457325 -1.78819e-25)
(45.2605 -0.0557916 0)
(45.3053 -0.0732435 2.15461e-23)
(45.3531 -0.0712806 0)
(45.4253 -0.111657 -1.22084e-23)
(45.5084 -0.0818147 0)
(45.6141 -0.166079 6.06156e-24)
(45.7133 -0.0870956 3.66638e-24)
(45.7983 -0.233267 0)
(43.3975 -0.0851939 9.36197e-25)
(42.1167 -0.242535 0)
(45.3909 -0.0990764 3.54394e-25)
(45.4251 -0.216914 -4.03835e-25)
(45.313 -0.136188 0)
(45.1561 -0.19807 0)
(45.0291 -0.153295 -4.12121e-25)
(44.9335 -0.176134 5.79962e-25)
(44.8616 -0.146761 0)
(44.8049 -0.153514 0)
(44.7634 -0.125731 2.21356e-24)
(44.7368 -0.128667 3.8053e-25)
(44.7156 -0.0998302 -1.81002e-24)
(45.2031 -0.0248311 7.12245e-26)
(45.2185 -0.04041 5.88974e-26)
(45.2414 -0.0473966 0)
(45.2708 -0.0564246 -1.09428e-25)
(45.3162 -0.074821 1.05553e-23)
(45.3653 -0.0706276 -2.27225e-25)
(45.4374 -0.111863 -1.08527e-23)
(45.5235 -0.0798597 -3.69018e-25)
(45.6272 -0.161713 0)
(45.7327 -0.0854035 3.94524e-24)
(45.8036 -0.220681 0)
(43.3971 -0.0831448 0)
(42.1194 -0.225691 0)
(45.3862 -0.0908352 2.69689e-24)
(45.4324 -0.199004 4.1225e-24)
(45.3137 -0.1221 0)
(45.1567 -0.183762 -1.07872e-25)
(45.025 -0.138875 0)
(44.9277 -0.16477 0)
(44.8536 -0.135568 0)
(44.7953 -0.145062 0)
(44.753 -0.118959 -1.82647e-24)
(44.7253 -0.123199 -1.41431e-24)
(44.704 -0.097404 1.91086e-29)
(45.2117 -0.0262129 0)
(45.2276 -0.041402 5.35951e-25)
(45.2508 -0.0486296 -8.32353e-25)
(45.2809 -0.0566414 1.14349e-24)
(45.3265 -0.0756965 9.89529e-24)
(45.3769 -0.0697052 2.03881e-23)
(45.4484 -0.111179 0)
(45.5375 -0.0780672 0)
(45.639 -0.156875 5.99711e-25)
(45.7502 -0.0840413 -4.82065e-25)
(45.8074 -0.209432 -1.0977e-31)
(43.3952 -0.0812858 1.72519e-24)
(42.1201 -0.211555 6.60421e-24)
(45.3802 -0.0843209 2.24607e-24)
(45.4388 -0.183729 1.40258e-25)
(45.3147 -0.111015 0)
(45.1577 -0.171459 -2.83411e-24)
(45.0217 -0.127067 -3.84901e-24)
(44.9234 -0.155028 0)
(44.847 -0.126093 -3.58511e-24)
(44.7873 -0.137705 -3.14146e-39)
(44.744 -0.113045 4.56256e-24)
(44.7154 -0.118275 2.59162e-24)
(44.6938 -0.0950615 2.13621e-24)
(45.2201 -0.0273949 -1.09702e-24)
(45.2364 -0.0420963 4.77112e-25)
(45.2599 -0.0494861 -5.3889e-25)
(45.2907 -0.0565683 2.20044e-24)
(45.3364 -0.0760133 9.05488e-24)
(45.3881 -0.0686892 3.83039e-23)
(45.4587 -0.109868 0)
(45.5505 -0.0765226 0)
(45.65 -0.151865 5.32152e-25)
(45.7664 -0.0830637 0)
(45.8099 -0.199403 0)
(43.3926 -0.0796906 0)
(42.1194 -0.199715 0)
(45.3727 -0.0793173 -1.85204e-24)
(45.4444 -0.170668 -2.73644e-24)
(45.3159 -0.102362 -2.59827e-24)
(45.1591 -0.160893 -4.61551e-24)
(45.0191 -0.117518 -3.22184e-24)
(44.92 -0.146702 0)
(44.8415 -0.118194 -8.8004e-25)
(44.7806 -0.131366 0)
(44.7363 -0.107977 0)
(44.7068 -0.113926 1.17045e-24)
(44.6848 -0.0928856 7.07625e-25)
(45.2282 -0.0283569 -9.54714e-25)
(45.2451 -0.0425328 -5.60871e-25)
(45.2686 -0.0500096 -1.07329e-25)
(45.3002 -0.0563026 7.75327e-27)
(45.3457 -0.075888 -2.50294e-32)
(45.3987 -0.0677118 1.81196e-23)
(45.4683 -0.108137 0)
(45.5627 -0.0752715 -6.00121e-25)
(45.6602 -0.146883 7.30662e-25)
(45.7815 -0.082494 5.18357e-25)
(45.8115 -0.190486 3.46863e-24)
(43.3896 -0.0784153 1.32317e-24)
(42.1178 -0.189862 2.28849e-24)
(45.3637 -0.0756372 0)
(45.4494 -0.159487 0)
(45.3172 -0.0957256 1.40306e-26)
(45.1607 -0.151851 1.91594e-24)
(45.0171 -0.109933 1.05844e-29)
(44.9174 -0.139634 -1.6105e-24)
(44.8368 -0.111744 0)
(44.775 -0.125973 0)
(44.7295 -0.10374 5.12939e-25)
(44.6993 -0.11017 0)
(44.6768 -0.0909473 0)
(45.236 -0.0290779 0)
(45.2536 -0.0427372 -9.6384e-25)
(45.2771 -0.0502307 -5.84426e-25)
(45.3095 -0.0559141 -1.00529e-24)
(45.3546 -0.0754204 0)
(45.4089 -0.0668582 0)
(45.4773 -0.106135 0)
(45.5741 -0.0743605 -1.08436e-24)
(45.67 -0.142086 0)
(45.7959 -0.0823545 -1.25843e-25)
(45.812 -0.182594 1.4755e-24)
(43.3865 -0.0775059 5.48318e-25)
(42.1155 -0.181731 1.88202e-24)
(45.3536 -0.0731253 2.40367e-24)
(45.454 -0.149947 1.80503e-24)
(45.3187 -0.0908084 0)
(45.1626 -0.144169 -1.56569e-24)
(45.0155 -0.104073 -1.81296e-24)
(44.9155 -0.133699 0)
(44.8328 -0.106624 0)
(44.7702 -0.121466 0)
(44.7236 -0.10032 4.69502e-25)
(44.6927 -0.107017 0)
(44.6695 -0.08931 0)
(45.2436 -0.02953 3.03636e-26)
(45.2618 -0.0427272 -8.4831e-25)
(45.2853 -0.0501656 8.58649e-26)
(45.3185 -0.0554601 0)
(45.3632 -0.0746855 4.23365e-25)
(45.4187 -0.066146 -5.24175e-25)
(45.4859 -0.103974 0)
(45.5851 -0.073808 -5.02341e-25)
(45.6794 -0.137563 5.95733e-25)
(45.8097 -0.0826453 4.60167e-25)
(45.8117 -0.175643 -8.57482e-26)
(43.3836 -0.0769768 4.35103e-25)
(42.113 -0.175099 3.05937e-24)
(45.3422 -0.0716749 4.22753e-26)
(45.4582 -0.141889 -3.65439e-26)
(45.3203 -0.0873973 1.30533e-24)
(45.1645 -0.137726 1.08885e-26)
(45.0143 -0.0997477 -9.52204e-26)
(44.9141 -0.128797 0)
(44.8293 -0.102736 -1.09615e-24)
(44.7661 -0.117797 -9.13344e-25)
(44.7182 -0.0976991 0)
(44.6868 -0.104477 1.0109e-24)
(44.6627 -0.08803 7.3909e-26)
(45.2509 -0.029678 0)
(45.2698 -0.0425076 -4.63161e-25)
(45.2931 -0.0498247 -1.1288e-25)
(45.3273 -0.0549914 6.29795e-27)
(45.3714 -0.0737309 0)
(45.4283 -0.0656198 7.60548e-24)
(45.494 -0.101764 -1.56049e-24)
(45.5956 -0.0736286 -3.67496e-25)
(45.6884 -0.133389 -5.02697e-25)
(45.823 -0.0833695 -3.64513e-25)
(45.8106 -0.16957 9.37122e-25)
(43.381 -0.076844 6.43728e-25)
(42.1104 -0.16981 1.21284e-24)
(45.3298 -0.0712066 4.09609e-26)
(45.4622 -0.135199 -1.08814e-24)
(45.322 -0.0853306 -9.69096e-25)
(45.1666 -0.132432 2.12405e-26)
(45.0134 -0.0968083 -9.07619e-26)
(44.9131 -0.124857 0)
(44.8262 -0.100002 -7.54278e-25)
(44.7626 -0.114933 -7.12676e-25)
(44.7133 -0.0958717 0)
(44.6814 -0.102565 3.3954e-25)
(44.6565 -0.0871621 -4.93713e-25)
(45.2581 -0.029476 -3.97701e-25)
(45.278 -0.0420759 4.35416e-25)
(45.301 -0.0492082 -9.08639e-25)
(45.3363 -0.0545175 7.0184e-27)
(45.3795 -0.0725958 2.94658e-25)
(45.438 -0.065315 7.34402e-24)
(45.502 -0.0995905 -7.84275e-25)
(45.6061 -0.0738359 -2.33034e-25)
(45.6975 -0.129616 -3.99707e-25)
(45.8364 -0.0844066 -7.02974e-25)
(45.8087 -0.164224 -8.34142e-25)
(43.379 -0.0771027 -2.16051e-25)
(42.1079 -0.16563 -9.49283e-25)
(45.3161 -0.0716876 0)
(45.466 -0.129931 -7.27625e-25)
(45.3238 -0.0845097 -6.57607e-25)
(45.1688 -0.128221 9.30308e-27)
(45.0126 -0.0951252 0)
(44.9124 -0.121806 5.0184e-26)
(44.8234 -0.0983393 7.62667e-26)
(44.7594 -0.112828 -5.20573e-25)
(44.7087 -0.0948202 -5.60762e-25)
(44.6764 -0.101285 2.20867e-25)
(44.6504 -0.0867557 0)
(45.2643 -0.0288096 -2.96081e-25)
(45.2852 -0.0413981 3.70134e-25)
(45.3077 -0.0482624 -3.41005e-25)
(45.3443 -0.0540565 0)
(45.3865 -0.0712808 0)
(45.4466 -0.0652727 -1.63629e-24)
(45.5088 -0.0974967 5.81619e-25)
(45.6155 -0.0744673 -3.09763e-25)
(45.7053 -0.126375 -5.35415e-25)
(45.8485 -0.0859407 -7.65744e-26)
(45.8062 -0.159826 5.95248e-25)
(43.3777 -0.0778101 0)
(42.1059 -0.162722 0)
(45.3029 -0.0730146 0)
(45.4695 -0.125904 0)
(45.3254 -0.0848067 -1.25092e-26)
(45.1709 -0.125052 0)
(45.0119 -0.0946687 0)
(44.912 -0.119645 4.64278e-26)
(44.821 -0.0977726 0)
(44.7569 -0.111513 0)
(44.7048 -0.0946009 0)
(44.6723 -0.100703 2.00242e-25)
(44.6451 -0.0869152 0)
(45.2736 -0.0277097 0)
(45.2966 -0.0405459 -1.61717e-26)
(45.3178 -0.0470603 -6.41167e-26)
(45.3573 -0.0536646 4.1597e-27)
(45.3966 -0.0698765 8.99643e-26)
(45.4607 -0.0655349 -3.06604e-24)
(45.5185 -0.0956408 3.48364e-26)
(45.6307 -0.0756107 1.39683e-28)
(45.7162 -0.123761 8.10945e-32)
(45.866 -0.0864007 -1.49913e-29)
(45.802 -0.154899 7.4481e-25)
(43.3774 -0.0789303 0)
(42.1036 -0.159189 7.5848e-25)
(45.2839 -0.0755853 -1.21647e-25)
(45.4741 -0.124956 3.20462e-25)
(45.3267 -0.0862566 -1.16388e-25)
(45.1745 -0.122764 0)
(45.0107 -0.0950888 0)
(44.9121 -0.118074 0)
(44.8174 -0.0979763 0)
(44.7537 -0.110726 0)
(44.699 -0.0949883 0)
(44.6666 -0.10064 1.27144e-25)
(44.6373 -0.0875721 0)
(48.5248 -3.7191 9.25039e-25)
(50.0581 5.85552 3.25497e-24)
(45.3224 6.4299 1.50189e-23)
(49.9359 -0.75667 -1.52649e-24)
(52.6831 1.87325 -6.0818e-25)
(50.5735 5.45142 -2.71536e-24)
(49.0358 1.94312 -8.175e-25)
(51.913 -2.20657 -6.56311e-24)
(52.7793 1.30274 -1.95943e-24)
(47.0212 2.90941 -2.72282e-24)
(49.3469 -4.32896 1.02241e-23)
(51.6301 -2.58988 0)
(45.2904 2.39806 2.75546e-28)
(46.5537 -4.54227 -6.57928e-24)
(48.9924 -4.46498 5.67529e-24)
(44.535 1.01761 0)
(36.1299 -0.388806 -1.14642e-24)
(31.5898 -1.17119 3.52043e-24)
(44.6944 -2.98146 3.56835e-23)
(46.2323 -4.43091 -9.95113e-24)
(44.5558 -4.38465 7.20435e-24)
(41.0815 -0.125208 1.90611e-24)
(44.6834 6.0639 2.10059e-23)
(43.1561 2.82082 4.51137e-23)
(47.0085 -1.86846 -5.2325e-24)
(48.3014 -3.32478 2.64011e-25)
(45.4102 -4.11605 -9.87331e-24)
(47.9088 10.6743 0)
(42.3045 9.82362 -1.19578e-23)
(49.8333 5.35046 0)
(48.2623 3.02365 4.90823e-25)
(46.661 3.36664 -6.05742e-23)
(47.8201 -0.596431 5.66436e-24)
(49.6278 -0.685526 -1.40686e-24)
(48.5926 -3.0264 3.01738e-25)
(49.535 -2.29105 -2.7177e-25)
(50.9609 -2.74197 2.51417e-25)
(50.1079 -4.58434 -2.69982e-25)
(52.8802 5.1129 2.65783e-24)
(51.6212 7.80832 1.13348e-24)
(52.2521 1.76089 2.46126e-25)
(49.6688 1.26335 -1.71633e-23)
(48.7319 2.68663 6.72051e-24)
(47.5895 0.726895 1.14637e-23)
(48.8736 1.71924 7.18561e-25)
(49.642 -0.326766 -2.48816e-27)
(49.7426 0.748806 9.45106e-29)
(51.1206 1.30912 -1.48096e-24)
(51.4454 -0.507936 -1.94378e-26)
(52.5841 -1.94148 1.0861e-25)
(53.4038 1.53858 -2.20879e-24)
(51.6308 -2.07595 -7.86406e-24)
(49.6258 -0.832772 2.15728e-24)
(49.7952 0.717168 -1.76694e-23)
(46.6942 1.41907 -1.05935e-23)
(47.0301 2.65091 1.17406e-24)
(48.6688 1.93103 0)
(48.0596 2.65261 0)
(48.4212 3.76992 -5.11769e-25)
(49.7427 3.05809 -5.93629e-26)
(47.314 -5.21389 -2.22372e-25)
(49.9629 -4.01258 2.13294e-24)
(49.3401 -4.03235 4.60707e-28)
(48.504 -2.22886 3.32716e-23)
(49.4167 -1.27169 2.78829e-23)
(44.1125 -6.28262 -8.51157e-25)
(45.7488 -5.92687 -9.74089e-26)
(46.7754 -4.21914 4.63127e-24)
(47.0589 -2.63759 0)
(48.1439 -2.42156 0)
(40.9452 -4.90984 8.97218e-25)
(42.3719 -5.97638 0)
(44.8471 0.0470836 0)
(39.1544 -0.356884 1.12855e-23)
(36.4665 -0.463683 8.67667e-28)
(36.2249 -0.912325 7.84171e-24)
(44.2517 -1.58971 0)
(44.5897 -2.7473 0)
(49.9437 -4.8591 2.22329e-25)
(48.0472 -6.72658 1.38352e-24)
(47.285 -4.52863 8.56585e-24)
(48.1741 -7.14524 3.8065e-25)
(50.1158 -5.05152 9.64205e-25)
(43.2477 -7.67225 1.63161e-23)
(47.7473 -7.4503 1.79797e-24)
(51.4972 7.99082 -1.36851e-25)
(48.2749 10.4997 -1.64235e-25)
(48.1934 6.75953 -2.82497e-24)
(48.4454 9.86628 -2.9173e-25)
(51.4149 7.78184 8.00094e-26)
(51.4236 -0.763091 2.2783e-25)
(51.0433 -2.48836 0)
(49.6889 -1.91028 3.71752e-25)
(51.1466 -2.65561 8.34978e-27)
(51.452 -0.681868 7.13751e-28)
(50.2994 -4.75689 -4.67653e-25)
(51.1081 -2.78508 9.11658e-27)
(53.3812 1.8094 -3.19088e-24)
(52.9403 4.92091 5.93973e-24)
(52.0792 3.52602 -4.69207e-25)
(52.9295 4.66231 -7.97172e-25)
(53.4211 2.11822 1.50071e-24)
(51.5466 7.6106 1.03024e-24)
(52.8679 4.85914 2.90802e-24)
(51.7797 4.04333 -4.81739e-25)
(49.902 2.94357 0)
(50.9965 1.54772 -1.24737e-24)
(49.6046 1.09023 2.7034e-25)
(50.6251 1.75755 -1.05344e-25)
(49.1785 3.12701 1.17786e-26)
(51.4516 -0.542112 -6.77861e-28)