/*--------------------------------*- C++ -*----------------------------------*\
| =========                 |                                                 |
| \\      /  F ield         | OpenFOAM: The Open Source CFD Toolbox           |
|  \\    /   O peration     | Version:  5.x                                   |
|   \\  /    A nd           | Web:      www.OpenFOAM.org                      |
|    \\/     M anipulation  |                                                 |
\*---------------------------------------------------------------------------*/
FoamFile
{
    version     2.0;
    format      ascii;
    class       volScalarField;
    location    "400";
    object      massFlux;
}
// * * * * * * * * * * * * * * * * * * * * * * * * * * * * * * * * * * * * * //

dimensions      [0 0 0 0 0 0 0];

internalField   nonuniform List<scalar> 
6584
(
0.0241652
0.0241651
0.0241651
0.0241652
0.0241652
0.0241652
0.0241652
0.0241652
0.0241652
0.0241652
0.0241652
0.0241652
0.0241652
0.0241652
0.0241652
0.0241652
0.0241652
0.0241652
0.0241652
0.0241652
0.0241651
0.0241651
0.0241651
0.0241651
0.0241388
0.0241388
0.0241388
0.0241388
0.0241388
0.0241389
0.0241389
0.024139
0.024139
0.024139
0.024139
0.024139
0.024139
0.024139
0.024139
0.024139
0.024139
0.0241389
0.0241389
0.0241389
0.0241388
0.0241388
0.0241388
0.0241387
0.0241124
0.0241124
0.0241124
0.0241124
0.0241124
0.0241125
0.0241126
0.0241127
0.0241128
0.0241259
0.0241259
0.0241259
0.0241259
0.0241259
0.0241259
0.0241128
0.0241127
0.0241126
0.0241126
0.0241125
0.0241125
0.0241125
0.0241124
0.0241124
0.024086
0.0240861
0.0240861
0.0240861
0.0240861
0.0240862
0.0240863
0.0240864
0.0240865
0.0240996
0.0240996
0.0240995
0.0240995
0.0240996
0.0240996
0.0240997
0.0240864
0.0240863
0.0240863
0.0240862
0.0240862
0.0240861
0.0240861
0.024086
0.0240597
0.0240597
0.0240598
0.0240598
0.0240598
0.0240599
0.0240599
0.0240599
0.0240732
0.0240733
0.0240731
0.024073
0.024073
0.0240731
0.0240733
0.0240733
0.0240733
0.0240601
0.02406
0.0240599
0.0240599
0.0240598
0.0240597
0.0240597
0.0240334
0.0240334
0.0240334
0.0240335
0.0240335
0.0240336
0.0240337
0.0240467
0.0240467
0.0240466
0.0240531
0.0240528
0.0240528
0.0240531
0.0240468
0.0240471
0.0240471
0.0240341
0.0240338
0.0240337
0.0240336
0.0240335
0.0240334
0.0240334
0.0240071
0.0240071
0.0240071
0.0240072
0.0240073
0.0240074
0.0240075
0.0240205
0.0240204
0.0240202
0.024026
0.0240287
0.0240284
0.0240259
0.0240271
0.024021
0.0240211
0.0240081
0.0240077
0.0240075
0.0240074
0.0240073
0.0240072
0.0240071
0.0239808
0.0239808
0.0239809
0.0239809
0.023981
0.0239812
0.0239814
0.0239944
0.0239942
0.0239942
0.0239995
0.0240007
0.024002
0.0240012
0.0239954
0.0239953
0.0239823
0.0239817
0.0239814
0.0239812
0.023981
0.0239809
0.0239808
0.0239545
0.0239545
0.0239546
0.0239547
0.0239549
0.023955
0.0239554
0.0239684
0.0239684
0.0239687
0.0239739
0.023975
0.0239769
0.0239761
0.0239701
0.0239697
0.0239565
0.0239557
0.0239553
0.023955
0.0239548
0.0239546
0.0239545
0.0239282
0.0239282
0.0239284
0.0239285
0.0239287
0.0239289
0.0239294
0.0239424
0.0239426
0.0239434
0.0239489
0.023951
0.0239539
0.0239519
0.0239452
0.0239443
0.0239307
0.0239298
0.0239292
0.0239288
0.0239286
0.0239284
0.0239282
0.0239019
0.023902
0.0239021
0.0239023
0.0239025
0.0239028
0.0239034
0.0239165
0.023917
0.023918
0.0239241
0.0239272
0.0239312
0.0239278
0.0239202
0.0239189
0.023905
0.0239038
0.0239031
0.0239027
0.0239023
0.0239021
0.0239019
0.0238756
0.0238757
0.0238759
0.0238761
0.0238764
0.0238768
0.0238774
0.0238906
0.0238912
0.0238925
0.0238991
0.0239027
0.0239074
0.0239032
0.023895
0.0238934
0.0238792
0.0238779
0.0238771
0.0238765
0.0238761
0.0238758
0.0238756
0.0238493
0.0238495
0.0238496
0.0238499
0.0238502
0.0238507
0.0238514
0.0238645
0.0238654
0.0238667
0.0238735
0.023877
0.0238822
0.0238779
0.0238696
0.0238677
0.0238532
0.0238518
0.0238509
0.0238503
0.0238498
0.0238495
0.0238493
0.0238231
0.0238232
0.0238234
0.0238236
0.023824
0.0238245
0.0238252
0.0238257
0.0238392
0.0238404
0.0238468
0.0238494
0.0190824
0.023852
0.0238519
0.0238438
0.0238419
0.0238272
0.0238257
0.0238248
0.023824
0.0238235
0.0238232
0.0238229
0.0237968
0.0237969
0.0237971
0.0237974
0.0237978
0.0237983
0.023799
0.0237993
0.0238127
0.0238139
0.0238203
0.0238194
0.0228916
0.0238255
0.0238185
0.0238176
0.023802
0.0238009
0.0237994
0.0237984
0.0237978
0.0237972
0.0237968
0.0237965
0.0237705
0.0237706
0.0237708
0.0237712
0.0237716
0.023772
0.0237726
0.023773
0.0237864
0.0237877
0.0237876
0.0237929
0.0229541
0.0237924
0.0237922
0.0237914
0.0237758
0.0237746
0.023773
0.023772
0.0237713
0.0237707
0.0237704
0.0237701
0.0237442
0.0237443
0.0237446
0.0237449
0.0237453
0.0237457
0.0237463
0.0237468
0.0237475
0.0237615
0.0237614
0.0237438
0.0233904
0.023766
0.0237658
0.023765
0.0237494
0.0237483
0.0237466
0.0237456
0.0237448
0.0237442
0.0237439
0.0237435
0.0237179
0.0237181
0.0237183
0.0237186
0.023719
0.0237194
0.02372
0.0237206
0.0237214
0.023722
0.0237352
0.0237091
0.0233749
0.0237396
0.0237264
0.0237246
0.0237231
0.0237219
0.0237202
0.0237191
0.0237184
0.0237177
0.0237174
0.023717
0.0236916
0.0236918
0.023692
0.0236924
0.0236928
0.0236931
0.0236938
0.0236944
0.0236952
0.0236959
0.0236932
0.0230385
0.0235301
0.0237004
0.0237001
0.0236983
0.0236967
0.0236955
0.0236938
0.0236927
0.0236919
0.0236912
0.0236908
0.0236904
0.0236653
0.0236655
0.0236657
0.0236661
0.0236665
0.0236669
0.0236676
0.0236683
0.0236691
0.0236697
0.0236649
0.0230137
0.0235048
0.0236741
0.0236737
0.023672
0.0236703
0.023669
0.0236673
0.0236662
0.0236653
0.0236647
0.0236643
0.0236638
0.023639
0.0236392
0.0236394
0.0236398
0.0236403
0.0236406
0.0236414
0.0236421
0.023643
0.0236436
0.0236365
0.0229886
0.0234794
0.0236479
0.0236474
0.0236456
0.0236439
0.0236426
0.0236408
0.0236397
0.0236388
0.0236381
0.0236377
0.0236372
0.0236127
0.0236129
0.0236131
0.0236135
0.023614
0.0236144
0.0236153
0.023616
0.0236169
0.0236175
0.0236083
0.0229635
0.0234539
0.0236216
0.0236211
0.0236193
0.0236175
0.0236162
0.0236144
0.0236132
0.0236123
0.0236116
0.0236112
0.0236107
0.0235864
0.0235866
0.0235869
0.0235873
0.0235878
0.0235882
0.0235891
0.0235899
0.0235909
0.0235914
0.0235801
0.0229383
0.0234284
0.0235954
0.0235949
0.023593
0.0235911
0.0235897
0.0235879
0.0235867
0.0235858
0.023585
0.0235846
0.0235841
0.0235601
0.0235603
0.0235606
0.023561
0.0235615
0.023562
0.023563
0.0235638
0.0235648
0.0235653
0.023552
0.022913
0.0234027
0.0235692
0.0235686
0.0235667
0.0235647
0.0235633
0.0235614
0.0235601
0.0235592
0.0235585
0.023558
0.0235575
0.0235338
0.023534
0.0235343
0.0235348
0.0235353
0.0235358
0.0235368
0.0235377
0.0235388
0.0235392
0.023524
0.0228876
0.023377
0.023543
0.0235424
0.0235405
0.0235383
0.0235368
0.0235349
0.0235336
0.0235326
0.0235319
0.0235314
0.0235309
0.0235075
0.0235077
0.0235081
0.0235085
0.0235091
0.0235096
0.0235107
0.0235116
0.0235127
0.0235131
0.0234959
0.0228625
0.0233514
0.0235168
0.0235162
0.0235142
0.023512
0.0235104
0.0235084
0.0235071
0.0235061
0.0235053
0.0235048
0.0235043
0.0234812
0.0234815
0.0234818
0.0234823
0.0234829
0.0234835
0.0234846
0.0234855
0.0234867
0.0234871
0.0234676
0.0228375
0.0233258
0.0234907
0.02349
0.023488
0.0234856
0.023484
0.023482
0.0234806
0.0234796
0.0234788
0.0234783
0.0234777
0.0234549
0.0234552
0.0234555
0.023456
0.0234567
0.0234573
0.0234584
0.0234594
0.0234607
0.023461
0.0234394
0.0228126
0.0233002
0.0234646
0.0234638
0.0234617
0.0234593
0.0234577
0.0234555
0.0234542
0.0234531
0.0234522
0.0234517
0.0234512
0.0234287
0.0234289
0.0234293
0.0234298
0.0234305
0.0234311
0.0234323
0.0234333
0.0234347
0.023435
0.0234112
0.0227877
0.0232746
0.0234385
0.0234377
0.0234355
0.023433
0.0234313
0.0234291
0.0234277
0.0234265
0.0234257
0.0234251
0.0234246
0.0234024
0.0234027
0.023403
0.0234036
0.0234043
0.0234049
0.0234062
0.0234073
0.0234087
0.0234089
0.0233831
0.0227627
0.023249
0.0234123
0.0234115
0.0234093
0.0234067
0.0234049
0.0234026
0.0234012
0.0234
0.0233992
0.0233986
0.023398
0.0233761
0.0233764
0.0233768
0.0233773
0.0233781
0.0233788
0.0233801
0.0233813
0.0233828
0.0233829
0.023355
0.0227378
0.0232233
0.0233862
0.0233853
0.023383
0.0233804
0.0233785
0.0233762
0.0233747
0.0233735
0.0233726
0.023372
0.0233715
0.0233499
0.0233502
0.0233506
0.0233511
0.0233519
0.0233527
0.0233541
0.0233553
0.0233568
0.0233568
0.0233269
0.0227129
0.0231977
0.0233601
0.0233592
0.0233568
0.023354
0.0233521
0.0233497
0.0233482
0.023347
0.0233461
0.0233454
0.0233449
0.0233236
0.0233239
0.0233243
0.0233249
0.0233257
0.0233265
0.023328
0.0233292
0.0233308
0.0233308
0.0232988
0.0226881
0.023172
0.023334
0.023333
0.0233306
0.0233277
0.0233257
0.0233233
0.0233217
0.0233204
0.0233195
0.0233189
0.0233183
0.0232974
0.0232977
0.0232981
0.0232986
0.0232995
0.0233004
0.0233019
0.0233032
0.0233048
0.0233047
0.0232707
0.0226633
0.0231463
0.0233079
0.0233069
0.0233044
0.0233014
0.0232993
0.0232968
0.0232952
0.0232939
0.0232929
0.0232923
0.0232917
0.0232711
0.0232714
0.0232719
0.0232724
0.0232733
0.0232743
0.0232759
0.0232772
0.0232789
0.0232786
0.0232425
0.0226385
0.0231206
0.0232818
0.0232807
0.0232781
0.0232751
0.0232729
0.0232704
0.0232687
0.0232673
0.0232664
0.0232657
0.0232652
0.0232449
0.0232452
0.0232457
0.0232462
0.0232472
0.0232482
0.0232498
0.0232512
0.0232529
0.0232526
0.0232143
0.0226139
0.023095
0.0232557
0.0232546
0.0232519
0.0232487
0.0232465
0.0232439
0.0232422
0.0232408
0.0232398
0.0232391
0.0232386
0.0239781
0.0239796
0.0240013
0.023954
0.0239568
0.0239767
0.0239302
0.0239342
0.023954
0.0239058
0.0239106
0.0239313
0.0238803
0.0238856
0.0239076
0.0238529
0.0176678
0.0188253
0.0238592
0.0238824
0.0240041
0.0240283
0.0240047
0.024029
0.0239802
0.0239785
0.0240013
0.0239884
0.0240005
0.0239799
0.0239819
0.0240006
0.0239551
0.0239541
0.0239754
0.0239659
0.0239581
0.0239732
0.0239553
0.0239736
0.0239568
0.0239578
0.0239758
0.0239304
0.0239302
0.0239511
0.0239421
0.0239135
0.0239286
0.023844
0.0238991
0.023934
0.0239339
0.0239518
0.0239054
0.0239057
0.0239272
0.0239181
0.0238987
0.0239042
0.0238955
0.0238627
0.0239105
0.0239097
0.0239279
0.0238924
0.0239023
0.0238855
0.0238847
0.0239035
0.02387
0.0238807
0.0238261
0.019393
0.0177105
0.0219708
0.0238321
0.0238557
0.0239751
0.0239869
0.0239875
0.0239864
0.0239724
0.0240003
0.0239881
0.0239746
0.0239876
0.0239885
0.0239873
0.023976
0.0239316
0.0239552
0.0239629
0.0239386
0.0238699
0.0239694
0.023942
0.0239024
0.0239543
0.0239652
0.0239591
0.0239388
0.0239751
0.02396
0.0239681
0.023905
0.0239122
0.0239391
0.0238348
0.02385
0.0238663
0.0238345
0.0238615
0.0238405
0.0239427
0.0239247
0.0239191
0.023938
0.0239255
0.0239455
0.023825
0.0238437
0.0238515
0.0238218
0.0239026
0.0238971
0.0239196
0.0239144
0.0239073
0.0239187
0.0239147
0.0239226
0.0238555
0.0238555
0.0238457
0.0238549
0.0238822
0.0238912
0.023906
0.0238962
0.0238983
0.0238484
0.023824
0.023855
0.0238495
0.0238558
0.0238682
0.0239907
0.0239886
0.0240009
0.0239917
0.0239992
0.0238799
0.0238801
0.0239026
0.0238932
0.0238842
0.0238914
0.0237552
0.0236872
0.023859
0.0238589
0.0238783
0.0239994
0.0239918
0.0240011
0.0239889
0.0239917
0.0238923
0.0238979
0.0239151
0.0167618
0.0181435
0.0219801
0.022481
0.0182328
0.019847
0.0236733
0.0235342
0.0238952
0.0238948
0.023884
0.0225371
0.0228157
0.0238824
0.0238709
0.0238726
0.0240151
0.0240137
0.0240022
0.0240024
0.0240138
0.0240152
0.0239908
0.0239934
0.0239911
0.0239997
0.023992
0.0239951
0.0239628
0.0239656
0.0238728
0.023876
0.0238856
0.0238815
0.0238954
0.023546
0.0238994
0.0238008
0.0237624
0.0237767
0.0238113
0.0238762
0.0239067
0.0239814
0.0237488
0.0239581
0.0237038
0.0239795
0.0239646
0.0239912
0.0239931
0.0239896
0.0239287
0.0239808
0.0239817
0.0239023
0.0238979
0.0239605
0.0239585
0.023924
0.023927
0.0239448
0.0239605
0.0239648
0.023955
0.0239591
0.023944
0.0239683
0.023972
0.0239765
0.0239662
0.0239706
0.0239668
0.0238417
0.0238424
0.023845
0.0238426
0.0238047
0.0238092
0.0239188
0.0239385
0.0239426
0.023933
0.0239371
0.0239181
0.0239323
0.0239495
0.0239536
0.023944
0.0239481
0.0239315
0.0168765
0.023834
0.018293
0.016784
0.0199708
0.0183893
0.0238366
0.0238083
0.0169265
0.0238115
0.0239027
0.0239024
0.0239169
0.0239274
0.0239316
0.0239217
0.023926
0.0239169
0.021172
0.0218663
0.0238508
0.0212662
0.0200877
0.0221101
0.0213866
0.0238521
0.0199939
0.02106
0.0238863
0.0236997
0.0237696
0.023564
0.0236848
0.0238876
0.023498
0.0227958
0.0228854
0.0186121
0.0228467
0.0227595
0.0203751
0.0237934
0.023804
0.0239975
0.0238538
0.0238531
0.0238769
0.0238671
0.0238633
0.0238728
0.0216409
0.0238379
0.0238512
0.0239974
0.0238738
0.023883
0.02389
0.018492
0.0187216
0.0170091
0.022755
0.0227304
0.0189135
0.019253
0.023758
0.0237896
0.01533
0.0240066
0.0240071
0.0240006
0.0240004
0.0240072
0.0240067
0.0239653
0.0239694
0.0239648
0.0239575
0.0239625
0.0239701
0.0239185
0.0239453
0.0239409
0.0239512
0.0239468
0.0239206
0.0238568
0.0238894
0.0238914
0.0238652
0.0231279
0.0229682
0.0238747
0.0238146
0.0238348
0.0237889
0.0237793
0.0191202
0.0239949
0.0239925
0.024
0.0239772
0.0239702
0.0239646
0.0239826
0.0239841
0.0239889
0.023978
0.0239826
0.023981
0.0239415
0.0239572
0.0239527
0.0239633
0.0239587
0.0239448
0.0239229
0.0233306
0.0237038
0.0229896
0.0230777
0.0238814
0.0237407
0.0237816
0.0239499
0.0239117
0.0239371
0.0239515
0.0239619
0.0239634
0.023953
0.0239552
0.0239411
0.0239395
0.0239351
0.0239088
0.0238386
0.0226783
0.0224089
0.0238563
0.0228569
0.0229628
0.0223618
0.0224429
0.0238354
0.0238398
0.0238229
0.023922
0.0239394
0.0239414
0.0239309
0.0239335
0.023919
0.0239356
0.0239502
0.0239523
0.0239421
0.0239441
0.0239281
0.0239029
0.0237934
0.0238176
0.0237627
0.023744
0.0239001
0.0239123
0.0239159
0.0239203
0.0239099
0.0239145
0.0239111
0.0238564
0.0226298
0.0221871
0.023075
0.0229469
0.0238563
0.0202256
0.0203794
0.0238532
0.0232063
0.0231127
0.0200455
0.020183
0.023313
0.0231682
0.0239946
0.0239975
0.0239957
0.0229758
0.023731
0.0230871
0.023161
0.0231412
0.0237224
0.0239961
0.0239948
0.0239981
0.0239935
0.023995
0.0169283
0.0173849
0.0185104
0.0184952
0.0222287
0.0191538
0.0189438
0.019593
0.0192143
0.0222928
0.0187061
0.0190192
0.0236233
0.0235998
0.0226775
0.0201502
0.0197855
0.0192871
0.0194611
0.0239882
0.0239899
0.0239928
0.0239862
0.023989
0.0239872
0.0239583
0.0239692
0.0238601
0.0238861
0.0238905
0.0238673
0.0235805
0.0238226
0.0238061
0.0238389
0.0238276
0.0235739
0.0237655
0.0237482
0.0238008
0.0237752
0.0237879
0.023382
0.0234645
0.0232243
0.0233397
0.0237823
0.0228777
0.0229366
0.0238517
0.0239755
0.0239664
0.0239848
0.0239783
0.0238784
0.0239187
0.0239019
0.0239602
0.0239258
0.0239842
0.0239895
0.0239862
0.0239822
0.0239763
0.0239775
0.0239718
0.0239781
0.0239746
0.023982
0.0239853
0.0239761
0.0239809
0.0239842
0.023982
0.0239785
0.0231929
0.0232707
0.023917
0.0226165
0.0222746
0.0233946
0.0226902
0.0217391
0.0213849
0.0221645
0.0218825
0.0238855
0.0231076
0.0231716
0.023712
0.0236449
0.0238935
0.0237675
0.0235596
0.0234765
0.0236323
0.0235806
0.0239522
0.023791
0.0238166
0.0239149
0.0239353
0.0239588
0.0239611
0.0239485
0.0239418
0.0239559
0.0239581
0.0227244
0.0227223
0.0238396
0.0207619
0.0207296
0.0192406
0.0205908
0.0205409
0.0209851
0.0206908
0.0205721
0.0226975
0.0228208
0.0238532
0.0207888
0.0203939
0.0212924
0.0209094
0.0196317
0.0191854
0.0202411
0.0198182
0.0238369
0.0225029
0.0226491
0.0238242
0.0238192
0.0239368
0.0239387
0.0239212
0.0239182
0.0239342
0.0239361
0.0239474
0.0239495
0.0239348
0.0239289
0.0239447
0.0239468
0.0170098
0.0174642
0.022749
0.0229294
0.0225093
0.0226845
0.0169347
0.0193574
0.0231633
0.0228989
0.0229782
0.0231198
0.0190292
0.0216786
0.0217854
0.0212446
0.0216386
0.0173332
0.0222688
0.0224602
0.0218471
0.0221656
0.0173126
0.023772
0.0237875
0.023903
0.0236959
0.0237326
0.0237398
0.0236939
0.0237329
0.0239006
0.0237333
0.0237582
0.0214608
0.0179765
0.0179703
0.0187983
0.0180842
0.0215614
0.0184981
0.0204027
0.017995
0.020579
0.0236287
0.0238508
0.0238422
0.0238602
0.0238535
0.0236389
0.0234416
0.0234654
0.0204561
0.0206275
0.0195959
0.0199811
0.023406
0.0233452
0.0240053
0.024007
0.0240267
0.0238693
0.0238677
0.0238571
0.0240027
0.0240031
0.023999
0.0239984
0.024003
0.0240028
0.024015
0.0240144
0.024003
0.0239756
0.023971
0.0239674
0.023956
0.0239409
0.0239382
0.0238477
0.0238958
0.0239277
0.0239233
0.0239017
0.0238068
0.0237986
0.0238634
0.0238227
0.023834
0.0239013
0.0239804
0.0239819
0.0239772
0.0239425
0.0239542
0.0239749
0.023986
0.023983
0.0239851
0.0239672
0.0238921
0.0239375
0.0239055
0.0239353
0.0239324
0.0239523
0.023947
0.0239477
0.0239396
0.0239649
0.0239664
0.0239624
0.0239078
0.0239336
0.0239292
0.0228031
0.0226885
0.023846
0.023859
0.0238187
0.0238145
0.0238371
0.0239238
0.0239349
0.0239355
0.0239372
0.0239456
0.0239463
0.0239362
0.0239368
0.0239264
0.0238024
0.0229793
0.0228621
0.0239173
0.0239283
0.0239296
0.0239019
0.0239036
0.0239082
0.0185205
0.018512
0.023301
0.0232332
0.0238523
0.0185496
0.0185334
0.0238356
0.0238359
0.0238631
0.0239924
0.0239925
0.0166769
0.0169
0.0170049
0.0180255
0.0183329
0.0167866
0.0168332
0.0183103
0.0180995
0.0196436
0.0234078
0.0233803
0.0235565
0.0204371
0.0202139
0.0227152
0.0240081
0.0240075
0.0240009
0.0239897
0.0239899
0.0239905
0.0239916
0.0239844
0.0239855
0.0239938
0.0239968
0.0239951
0.0239547
0.0239531
0.0239607
0.0239672
0.0239637
0.0239612
0.0238672
0.0238793
0.0238253
0.023831
0.0238881
0.0238761
0.0237997
0.0238133
0.0236097
0.0236131
0.023694
0.0236833
0.0235461
0.0236209
0.0236301
0.0239008
0.0238384
0.0238504
0.0238863
0.0237976
0.0239159
0.0239015
0.0239748
0.0239685
0.0239447
0.0235518
0.0234977
0.023866
0.0237656
0.0236209
0.0239922
0.0239904
0.0239868
0.0239873
0.0239815
0.0239851
0.023946
0.0239812
0.0239832
0.0238248
0.0238665
0.0239658
0.0234275
0.0233625
0.023921
0.02393
0.023971
0.0239725
0.0239713
0.0239633
0.0239679
0.0239694
0.023845
0.0226781
0.0227072
0.0238045
0.0238125
0.0239414
0.0239421
0.0239331
0.0239306
0.0239401
0.0239408
0.0169846
0.018172
0.0202018
0.0203296
0.0187851
0.0188972
0.0166456
0.0230584
0.0230001
0.0238053
0.0172817
0.0171003
0.0181858
0.0182089
0.0170737
0.0186782
0.0187273
0.0169441
0.0169746
0.0239257
0.023927
0.023917
0.023916
0.023923
0.0239244
0.0207226
0.0230899
0.0231483
0.0229638
0.0230272
0.0205214
0.0237329
0.0238515
0.0238617
0.0238547
0.0238533
0.0237437
0.023591
0.0237222
0.0237078
0.0234579
0.0234184
0.0235079
0.018787
0.0189104
0.0189534
0.0186093
0.0229291
0.0208599
0.0205474
0.0211074
0.0209319
0.0227205
0.0227232
0.0227413
0.0234861
0.023552
0.0238115
0.0239965
0.0239975
0.0239956
0.0185071
0.0185732
0.0203905
0.0203214
0.0167926
0.0191031
0.0188127
0.0188013
0.0187336
0.0187828
0.0192015
0.0154189
0.0233486
0.0234009
0.0240039
0.0240033
0.023999
0.0239461
0.0239436
0.0239568
0.0239582
0.0239641
0.0239691
0.0239609
0.0239627
0.023853
0.0238926
0.0237588
0.0237694
0.0237694
0.0237585
0.0238641
0.0237928
0.0237887
0.0230931
0.0228105
0.0228076
0.0228644
0.022852
0.0230482
0.0239685
0.023973
0.0239738
0.023971
0.0239721
0.0239666
0.0239086
0.0239479
0.0239293
0.0239223
0.0239403
0.0239484
0.0239491
0.0238198
0.0238214
0.0238531
0.0238284
0.0239336
0.0239343
0.0239229
0.0239442
0.0239449
0.0239364
0.0239272
0.0239374
0.0239381
0.0237627
0.0237977
0.0237844
0.0238082
0.0238044
0.0237585
0.0185117
0.0185348
0.0185997
0.0185703
0.0200953
0.0192073
0.0191754
0.0228412
0.0228461
0.0232697
0.0229501
0.0230167
0.0228278
0.0228788
0.0232183
0.0239941
0.0239934
0.0239936
0.0239941
0.0239967
0.0239969
0.0239981
0.023995
0.0239957
0.0239958
0.023064
0.0234462
0.0234255
0.0235028
0.0234736
0.0230894
0.023238
0.0233466
0.023302
0.0234087
0.0233867
0.0231984
0.0239956
0.0239962
0.0239951
0.0239902
0.0239874
0.0239937
0.0239926
0.0166844
0.01781
0.0170535
0.0170055
0.0185081
0.018502
0.01995
0.0200613
0.0190327
0.0169661
0.0168039
0.0184781
0.0176281
0.0176368
0.0175583
0.0193571
0.0177112
0.0173126
0.0234264
0.0234651
0.0236435
0.0233139
0.0233262
0.023282
0.0232906
0.0235767
0.0233684
0.0233848
0.0193211
0.018616
0.0186761
0.0185706
0.0185684
0.0193721
0.0239888
0.0239896
0.0239891
0.0239856
0.0239863
0.0239879
0.0239463
0.0239593
0.0239511
0.0239487
0.0239566
0.0239588
0.0239517
0.0239543
0.0238636
0.0238826
0.0237842
0.0237875
0.0237742
0.0237793
0.0238896
0.0238338
0.0238356
0.0237867
0.0237902
0.023871
0.0237868
0.0236411
0.0236178
0.0235591
0.0236741
0.0236622
0.0237583
0.0236457
0.0236421
0.0236836
0.0236619
0.0237533
0.0237944
0.0236984
0.0237096
0.0236555
0.0236781
0.0237856
0.0236329
0.023263
0.023548
0.0235282
0.0228486
0.0228778
0.0238398
0.023929
0.0239225
0.0238249
0.023901
0.0239529
0.0239387
0.0236411
0.023594
0.0238113
0.023822
0.0239079
0.0237407
0.0236918
0.0239646
0.0239728
0.0239849
0.0239788
0.0239539
0.023924
0.0239529
0.0239762
0.0239779
0.023979
0.0239749
0.0239762
0.023973
0.0239696
0.0239729
0.023983
0.0239816
0.0239804
0.0239845
0.0239825
0.023984
0.0239775
0.023979
0.0239765
0.0239785
0.0225259
0.0223951
0.0232052
0.022303
0.0224184
0.0220551
0.0227539
0.0216087
0.0214905
0.0220651
0.0219769
0.0236783
0.0233627
0.0234366
0.0232109
0.0232851
0.0236589
0.0238784
0.0237601
0.023794
0.0234796
0.0236801
0.0238432
0.0233016
0.0231824
0.0235378
0.0226949
0.0227806
0.0225413
0.0226179
0.0235132
0.0236192
0.0230818
0.0231432
0.0228739
0.0229746
0.0236009
0.0239181
0.0239328
0.0207965
0.0193457
0.0195545
0.0189142
0.0191222
0.0207665
0.0196035
0.0196715
0.019666
0.0201411
0.0205991
0.0177398
0.0179658
0.0181091
0.0177486
0.0207473
0.0206524
0.0185411
0.0187207
0.0181896
0.0183764
0.0206141
0.0206838
0.0205641
0.0211961
0.0210451
0.0194613
0.0193035
0.0201051
0.0199863
0.0238108
0.0238157
0.0239339
0.0239428
0.0239435
0.0239388
0.0239394
0.0239298
0.0170527
0.0197406
0.0200162
0.0179412
0.0166425
0.019102
0.0194072
0.0176612
0.017467
0.02171
0.0194174
0.0194444
0.0214501
0.0191839
0.0186843
0.0194527
0.0193918
0.0215727
0.0180871
0.0178668
0.0183521
0.0185776
0.0172262
0.017287
0.0178532
0.023779
0.0238434
0.0238389
0.0238495
0.0238466
0.0237833
0.0237086
0.0237261
0.0237238
0.0236906
0.0236903
0.0237059
0.0237322
0.0238173
0.0238119
0.0238325
0.0238247
0.023743
0.0179475
0.0188371
0.0189512
0.018667
0.0187491
0.0179516
0.0185448
0.0195835
0.0197956
0.0191173
0.0193405
0.0182971
0.0184484
0.0175937
0.0176498
0.0176216
0.0176056
0.0180088
0.0184049
0.0185658
0.017835
0.0181186
0.0179742
0.0237432
0.0237343
0.0236152
0.0234364
0.023492
0.0186154
0.0187613
0.0197501
0.0188565
0.0186702
0.0191278
0.0190364
0.0198861
0.0186356
0.0186274
0.0227599
0.0227842
0.0240598
0.0240597
0.0240731
0.0240596
0.0240595
0.0240729
0.0240595
0.0240596
0.024073
0.0240597
0.02406
0.0240732
0.0240333
0.0240331
0.0240464
0.0240328
0.0240325
0.024053
0.0240322
0.0240319
0.0240527
0.024032
0.0240325
0.0240528
0.0240328
0.0240333
0.0240533
0.0240337
0.0240339
0.0240469
0.0240072
0.0240066
0.0240264
0.0240061
0.0240047
0.0240256
0.0240181
0.0240178
0.0240287
0.0240171
0.0240176
0.0240284
0.0240191
0.0240195
0.0240261
0.0240076
0.0240082
0.024021
0.0239814
0.0239807
0.024
0.023993
0.0239928
0.0239993
0.0239973
0.023997
0.0240004
0.0239922
0.0239936
0.0240032
0.0239823
0.023983
0.0239956
0.023956
0.0239555
0.0239743
0.0239676
0.0239676
0.0239738
0.0239719
0.0239719
0.023975
0.0239682
0.0239692
0.0239782
0.0239579
0.0239583
0.0239706
0.0239307
0.0239305
0.0239492
0.0239427
0.023943
0.0239491
0.023948
0.0239481
0.023951
0.0239454
0.0239458
0.0239545
0.0239338
0.0239336
0.023946
0.0239053
0.0239054
0.0239243
0.0239179
0.0239183
0.0239245
0.0239242
0.0239243
0.0239273
0.0239224
0.0239221
0.023931
0.0239094
0.0239088
0.0239213
0.0238797
0.0238799
0.0238991
0.0238996
0.0238997
0.0239029
0.0238982
0.0238973
0.0239066
0.0238843
0.0238836
0.0238963
0.0238537
0.0238538
0.0238734
0.0238724
0.0238723
0.0238787
0.0238585
0.023858
0.0238708
0.023827
0.0238266
0.0238399
0.0238269
0.0238263
0.0238462
0.0238394
0.0238336
0.0238437
0.0198297
0.0237008
0.0237198
0.0238322
0.0238327
0.0238524
0.0238318
0.023832
0.023845
0.0238008
0.0238004
0.0238135
0.0238007
0.0237999
0.0238197
0.0237996
0.0209562
0.0208975
0.0229399
0.0238053
0.0238254
0.0238054
0.0238061
0.0238257
0.0238053
0.0238056
0.0238187
0.0237745
0.023774
0.0237872
0.0237624
0.0223668
0.0209721
0.0233978
0.0237777
0.0237985
0.0237792
0.0237798
0.0237929
0.023978
0.0239811
0.0239812
0.0239825
0.0239836
0.0239789
0.0240011
0.0239979
0.0239981
0.023954
0.0239569
0.0239569
0.0239596
0.0239597
0.0239555
0.0239773
0.0239728
0.0239738
0.0239303
0.0239333
0.0239332
0.023937
0.0239375
0.0239334
0.0239541
0.02395
0.0239512
0.023906
0.0239091
0.0239089
0.0239137
0.0239146
0.0239101
0.023932
0.0239277
0.0239284
0.0238889
0.0238886
0.0238854
0.0239071
0.0239041
0.0239045
0.023847
0.0238601
0.0238637
0.0167654
0.0199215
0.0199335
0.0225339
0.0225389
0.0154757
0.0238822
0.023879
0.0238792
0.0240028
0.0240141
0.0240146
0.0239995
0.0239994
0.0239984
0.0240284
0.0240174
0.024017
0.0239994
0.0239996
0.0240081
0.0240079
0.0240044
0.0240289
0.0240181
0.0240184
0.0239801
0.0239864
0.0239866
0.023988
0.0239862
0.0239799
0.023999
0.0239926
0.0239913
0.0239901
0.0239897
0.0239869
0.0240001
0.0239982
0.0239986
0.0239812
0.0239905
0.0239891
0.0239881
0.0239881
0.023982
0.0240005
0.0239942
0.0239943
0.0239552
0.0239614
0.0239613
0.0239631
0.0239614
0.0239554
0.0239737
0.0239676
0.0239662
0.0239659
0.0239689
0.0239689
0.0239607
0.0239643
0.0239626
0.0239744
0.0239728
0.0239713
0.023972
0.0239698
0.0239724
0.0239575
0.0239662
0.0239653
0.0239638
0.0239641
0.0239582
0.023976
0.02397
0.0239698
0.0239307
0.0239368
0.0239366
0.0239392
0.0239371
0.023931
0.0239493
0.0239432
0.0239422
0.0239422
0.0239451
0.023945
0.0239149
0.0239355
0.023934
0.0239453
0.0239435
0.0239257
0.0239341
0.0239429
0.0239426
0.0239399
0.0239406
0.0239346
0.0239524
0.0239465
0.0239458
0.0239058
0.0239121
0.0239117
0.023915
0.0239125
0.0239063
0.0239249
0.0239187
0.0239181
0.0239183
0.0239213
0.0239211
0.0239009
0.0239218
0.0239174
0.0239218
0.0239205
0.0239034
0.0238938
0.0238441
0.0238503
0.0239098
0.023919
0.0239195
0.0239158
0.0239166
0.0239105
0.0239287
0.0239227
0.0239219
0.0238934
0.0238634
0.0238685
0.0238908
0.0238913
0.023902
0.0238851
0.0238914
0.0238951
0.023891
0.0238918
0.0238854
0.0239043
0.0238981
0.0238973
0.0238715
0.023868
0.0238667
0.0238749
0.0238739
0.0238793
0.0238226
0.0238302
0.0238327
0.0191834
0.0237757
0.0237626
0.022736
0.0227375
0.0179026
0.0238249
0.0238347
0.0217293
0.0238387
0.0238398
0.0238305
0.0238537
0.0238431
0.0238455
0.0239769
0.0239777
0.0239761
0.0239884
0.0239835
0.023982
0.0239843
0.0239842
0.0239874
0.0239848
0.0239825
0.0239865
0.0239985
0.0239982
0.024
0.0239876
0.0239894
0.0239897
0.0239755
0.0239742
0.0239733
0.0239874
0.0239865
0.0239868
0.0239884
0.0239853
0.0239855
0.0239858
0.0239862
0.0239878
0.023977
0.0239784
0.0239778
0.0239348
0.0239491
0.0239472
0.0239607
0.0239588
0.0239518
0.0239599
0.0239599
0.0239629
0.0239343
0.023896
0.0239071
0.0237598
0.0237662
0.0238736
0.0239145
0.0239199
0.0239449
0.0239654
0.0239611
0.0239624
0.0239579
0.0239608
0.0239618
0.0239722
0.023974
0.0239755
0.0239626
0.0239634
0.0239608
0.0239709
0.0239713
0.0239669
0.0239059
0.0239245
0.0239231
0.0239326
0.0239312
0.023911
0.0239361
0.0239363
0.0239392
0.0238361
0.0236939
0.0236896
0.0237359
0.0237313
0.0238485
0.0238629
0.0237473
0.0237535
0.023687
0.0236859
0.0238341
0.0239431
0.0239389
0.0239399
0.0239276
0.0239281
0.0239194
0.0239483
0.0239486
0.0239445
0.0238282
0.0233841
0.0233154
0.023652
0.0236378
0.0238415
0.0238529
0.0237451
0.0237406
0.0232937
0.0232172
0.0238185
0.0239027
0.023889
0.02389
0.0238568
0.0238622
0.0238985
0.0239205
0.0239161
0.0239166
0.0239132
0.0239176
0.023919
0.0239092
0.0239106
0.0239086
0.0239182
0.0239265
0.023927
0.0239203
0.0239217
0.0239157
0.0239255
0.0239263
0.023922
0.023856
0.0237554
0.0237484
0.0237847
0.0237811
0.0238559
0.0238476
0.0236785
0.0236655
0.0237407
0.0237323
0.0238542
0.0238836
0.0238766
0.0238758
0.0238698
0.023873
0.0238901
0.0239046
0.0239062
0.0239077
0.0238974
0.023902
0.0239005
0.0239014
0.0239011
0.023898
0.0238445
0.0233647
0.02332
0.0232495
0.0233345
0.0238416
0.0238545
0.0237905
0.0237878
0.0238613
0.0238348
0.0238305
0.0239906
0.0239938
0.023994
0.0239937
0.023995
0.02399
0.0240001
0.0239967
0.0239955
0.0239987
0.0239975
0.023998
0.0238899
0.0238872
0.0238808
0.0239
0.0238936
0.0238931
0.0238934
0.0238966
0.0238964
0.0238875
0.0238957
0.0238926
0.0239019
0.0238988
0.0238885
0.0237474
0.0236445
0.0236597
0.023538
0.023564
0.0237006
0.0238592
0.0238658
0.0238691
0.0239983
0.023998
0.0239992
0.0239906
0.0239921
0.0239929
0.0239956
0.0239972
0.0240023
0.0239905
0.0239955
0.0239939
0.0239948
0.0239947
0.0239915
0.0238948
0.0239098
0.0239049
0.0239158
0.0239113
0.0238956
0.023912
0.0239122
0.0239152
0.0220752
0.0211189
0.0210132
0.0216472
0.0215504
0.0224187
0.0236593
0.0234896
0.0235121
0.0238949
0.0238918
0.023892
0.0238903
0.023891
0.0238957
0.0238847
0.0238894
0.0238887
0.02259
0.0218307
0.021742
0.0222035
0.0221477
0.0227834
0.0238775
0.0238783
0.0238815
0.0238718
0.0238751
0.0238758
0.0238759
0.0238757
0.0238724
0.0240153
0.0240092
0.0240088
0.0240098
0.0240096
0.0240155
0.0240012
0.0240075
0.0240079
0.0240043
0.024004
0.0240021
0.0240156
0.0240096
0.02401
0.0240089
0.0240093
0.0240153
0.0239936
0.0239906
0.0239917
0.0239963
0.0239977
0.0239997
0.0239925
0.0239935
0.0239929
0.0239968
0.0239964
0.0239946
0.0238532
0.0238611
0.0238944
0.0238999
0.023893
0.0238931
0.0237971
0.0237339
0.0237411
0.0236735
0.0236853
0.0237688
0.0237946
0.0238566
0.0238558
0.0238574
0.0238571
0.0237993
0.0238778
0.0238729
0.0238718
0.0239754
0.0239809
0.0239831
0.0239773
0.0239584
0.0239725
0.0239703
0.0239814
0.0239783
0.023992
0.023991
0.0239898
0.0239914
0.0239911
0.0239927
0.02398
0.0239791
0.0239799
0.0239825
0.0239818
0.0239809
0.0238163
0.0238246
0.0239068
0.0238938
0.0238013
0.0238086
0.0239473
0.023951
0.0239623
0.0239565
0.0239399
0.0239436
0.0239528
0.0239537
0.0239456
0.023962
0.0239614
0.02396
0.0239642
0.0239628
0.0239634
0.0239563
0.0239558
0.0239544
0.0239586
0.0239572
0.0239577
0.0239433
0.0239513
0.023952
0.0239697
0.0239706
0.0239694
0.0239735
0.023973
0.0239715
0.023976
0.0239745
0.023975
0.0239677