/*--------------------------------*- C++ -*----------------------------------*\
| =========                 |                                                 |
| \\      /  F ield         | OpenFOAM: The Open Source CFD Toolbox           |
|  \\    /   O peration     | Version:  5.x                                   |
|   \\  /    A nd           | Web:      www.OpenFOAM.org                      |
|    \\/     M anipulation  |                                                 |
\*---------------------------------------------------------------------------*/
FoamFile
{
    version     2.0;
    format      ascii;
    class       volScalarField;
    location    "400";
    object      p;
}
// * * * * * * * * * * * * * * * * * * * * * * * * * * * * * * * * * * * * * //

dimensions      [0 2 -2 0 0 0 0];

internalField   nonuniform List<scalar> 
6584
(
20.9985
19.174
17.3491
15.5245
13.6999
11.8754
10.0509
8.22698
6.40325
4.57944
2.75503
0.929421
-0.897749
-2.72634
-4.55576
-6.38533
-8.21456
-10.0433
-11.8717
-13.6997
-15.5275
-17.3545
-19.1807
-21.0058
21
19.1784
17.3547
15.5304
13.7061
11.8806
10.0538
8.22834
6.40442
4.58088
2.75674
0.93132
-0.895913
-2.72481
-4.55462
-6.38501
-8.21558
-10.0459
-11.8761
-13.7054
-15.5334
-17.3606
-19.1855
-21.0071
21.0004
19.1816
17.3613
15.5386
13.7146
11.8892
10.0603
8.23131
6.40611
5.03831
3.21552
1.3912
-0.435612
-2.26499
-4.09592
-6.38876
-8.22387
-10.0562
-11.8864
-13.7149
-15.5418
-17.3669
-19.1884
-21.0081
21.0004
19.1822
17.3636
15.5437
13.7214
11.8971
10.0685
8.23813
6.41028
5.04064
3.21959
1.397
-0.42962
-2.26158
-4.10111
-5.93985
-8.23988
-10.0703
-11.898
-13.7244
-15.5488
-17.3704
-19.1898
-21.0089
21
19.182
17.3638
15.5455
13.7256
11.9031
10.0777
8.25299
6.87544
5.04551
3.22529
1.40533
-0.42062
-2.26545
-4.1204
-5.96384
-7.79675
-10.0832
-11.9082
-13.7319
-15.553
-17.3723
-19.191
-21.0096
20.9996
19.1817
17.3635
15.5455
13.7271
11.9071
10.0862
8.72019
6.89698
5.07325
3.47082
1.64818
-0.173607
-2.0494
-4.14455
-5.98288
-7.8109
-10.094
-11.9167
-13.737
-15.5557
-17.374
-19.1921
-21.0103
20.9992
19.1812
17.3631
15.5449
13.7267
11.9079
10.0884
8.72244
6.90345
5.08809
3.50491
1.80291
-0.0131936
-2.07254
-3.93851
-6.00245
-7.82545
-10.1037
-11.923
-13.7405
-15.558
-17.3755
-19.1931
-21.0109
20.9988
19.1807
17.3625
15.5442
13.7257
11.9067
10.0878
8.72268
6.90063
5.07995
3.49292
1.80982
-2.02743
-3.97591
-6.0225
-7.83845
-10.1101
-11.9271
-13.7432
-15.5598
-17.3767
-19.1939
-21.0113
20.9984
19.1803
17.362
15.5435
13.7246
11.9051
10.0852
8.71995
6.89406
5.06393
3.4591
1.72111
-2.14409
-4.01609
-6.03812
-7.84551
-10.112
-11.9286
-13.745
-15.5612
-17.3775
-19.1944
-21.0115
20.9982
19.1799
17.3615
15.5428
13.7238
11.904
10.0833
8.71661
6.88722
5.05215
3.43776
1.68305
-2.19457
-4.03712
-6.04439
-7.84731
-10.11
-11.9263
-13.7441
-15.5614
-17.3777
-19.1946
-21.0114
20.998
19.1796
17.3612
15.5424
13.7233
11.9035
10.0827
8.71496
6.88499
5.05079
3.43838
1.69489
-2.16847
-4.02649
-6.03659
-7.84119
-10.1038
-11.9204
-13.7394
-15.5594
-17.3774
-19.1942
-21.011
20.998
19.1795
17.3611
15.5423
13.7234
11.9039
10.0832
8.71522
6.88728
5.05821
3.4556
1.73722
-2.0967
-3.99198
-6.01719
-7.82793
-10.0935
-11.9116
-13.7318
-15.554
-17.3751
-19.1935
-21.0103
20.9981
19.1796
17.3612
15.5426
13.7239
11.905
10.0847
8.71723
6.89207
5.06874
3.47657
1.78433
-2.0212
-3.94925
-5.99207
-7.81006
-10.0797
-11.9002
-13.7222
-15.5461
-17.3709
-19.1922
-21.0094
20.9982
19.1798
17.3615
15.543
13.7246
11.9061
10.0862
8.26413
6.89619
5.07407
3.48213
1.77713
0.0596411
-2.06829
-3.91036
-5.96421
-7.78985
-10.0633
-11.8868
-13.7108
-15.5379
-17.3652
-19.1891
-21.0082
20.9984
19.1799
17.3617
15.5433
13.725
11.9066
10.0857
8.25966
6.8919
5.05782
3.4599
1.64736
-0.172999
-2.03384
-4.10685
-5.94101
-8.22574
-10.052
-11.8778
-13.7026
-15.5304
-17.3575
-19.1824
-21.0055
20.9985
19.18
17.3617
15.5433
13.725
11.906
10.083
8.25145
6.87594
5.04947
3.22881
1.63538
-0.194953
-2.25889
-4.09824
-5.93267
-8.21901
-10.0462
-11.8721
-13.7001
-15.526
-17.3518
-19.177
-21.0026
20.9986
19.18
17.3616
15.5431
13.7244
11.9044
10.0786
8.24624
6.41562
5.04762
3.22431
1.3992
-0.425878
-2.26064
-4.09624
-5.92778
-8.21269
-10.0395
-11.8666
-13.6946
-15.5217
-17.3481
-19.1755
-21.0011
20.9986
19.1799
17.3613
15.5426
13.7233
11.9013
10.0732
8.24167
6.41395
4.59027
3.22118
1.397
-0.433968
-2.26292
-4.55109
-6.38087
-8.20884
-10.036
-11.8632
-13.6906
-15.5174
-17.3443
-19.1716
-20.999
20.9985
19.1797
17.3608
15.5419
13.7222
11.8979
10.068
8.23843
6.41211
4.58807
2.75995
0.937418
-0.890593
-2.7236
-4.54975
-6.37919
-8.2065
-10.0337
-11.8606
-13.6877
-15.5145
-17.3416
-19.1685
-20.997
20.9984
19.1794
17.3603
15.5411
13.721
11.8952
10.0645
8.23674
6.4108
4.58663
2.75908
0.935021
-0.89248
-2.72298
-4.54898
-6.37793
-8.20471
-10.0319
-11.8585
-13.6855
-15.5124
-17.3394
-19.1661
-20.9954
20.9983
19.179
17.3597
15.5402
13.7197
11.8933
10.0623
8.23551
6.40984
4.58546
2.75825
0.933038
-0.894119
-2.72279
-4.54863
-6.37701
-8.2034
-10.0305
-11.8569
-13.6837
-15.5106
-17.3375
-19.1641
-20.9941
20.9981
19.1786
17.3589
15.5391
13.7184
11.8918
10.0609
8.23454
6.40879
4.58448
2.75749
0.931927
-0.894952
-2.72281
-4.5485
-6.37638
-8.20247
-10.0295
-11.8557
-13.6824
-15.5092
-17.336
-19.1624
-20.9929
20.9978
19.1782
17.3582
15.5382
13.7171
11.8906
10.0597
8.23337
6.40788
4.58371
2.75698
0.931213
-0.895482
-2.72281
-4.54843
-6.37591
-8.20178
-10.0287
-11.8547
-13.6813
-15.508
-17.3346
-19.1609
-20.992
20.9975
19.1777
17.3575
15.5372
13.7159
11.8894
10.0586
8.23229
6.40707
4.58289
2.75657
0.930709
-0.895861
-2.72282
-4.54838
-6.37552
-8.20127
-10.028
-11.8539
-13.6805
-15.507
-17.3335
-19.1598
-20.9912
20.9973
19.1772
17.3567
15.5362
13.7147
11.8882
10.0576
8.23129
6.40614
4.58208
2.75624
0.930327
-0.896125
-2.72281
-4.54834
-6.37524
-8.20086
-10.0275
-11.8532
-13.6798
-15.5062
-17.3326
-19.1587
-20.9905
20.997
19.1767
17.356
15.5353
13.7135
11.8871
10.0567
8.23034
6.40521
4.58131
2.75543
0.92964
-0.896681
-2.72306
-4.54853
-6.3752
-8.20076
-10.0273
-11.853
-13.6795
-15.5056
-17.3319
-19.1578
-20.9898
20.9967
19.1763
17.3553
15.5345
13.7125
11.8861
10.0558
8.22951
6.40432
4.57989
2.75401
0.92828
-0.897879
-2.7241
-4.54955
-6.37603
-8.20154
-10.028
-11.8537
-13.68
-15.5059
-17.332
-19.1579
-20.9897
20.9964
19.1758
17.3547
15.5336
13.7114
11.8851
10.055
8.2287
6.40306
4.57812
2.75231
0.926547
-0.89958
-2.7257
-4.55112
-6.37746
-8.20292
-10.0293
-11.8549
-13.6811
-15.5069
-17.333
-19.1587
-20.99
20.9961
19.1753
17.354
15.5328
13.7105
11.8842
10.0542
8.2275
6.40141
4.57642
2.75063
0.924858
-0.901242
-2.72728
-4.55267
-6.37889
-8.20429
-10.0305
-11.8561
-13.6822
-15.5079
-17.334
-19.1597
-20.9903
20.9959
19.1749
17.3534
15.5321
13.7096
11.8832
10.0531
8.22582
6.39978
4.57472
2.74898
0.923205
-0.902867
-2.72882
-4.55421
-6.3803
-8.20568
-10.0318
-11.8574
-13.6834
-15.509
-17.335
-19.1607
-20.9907
20.9956
19.1745
17.3529
15.5313
13.7086
11.8818
10.0512
8.22413
6.39814
4.57304
2.74735
0.921581
-0.904464
-2.73035
-4.55571
-6.38172
-8.20707
-10.0331
-11.8586
-13.6846
-15.5101
-17.3361
-19.1617
-20.9911
20.9954
19.1741
17.3523
15.5307
13.7071
11.8794
10.0492
8.22245
6.39652
4.5714
2.74573
0.919976
-0.906039
-2.73186
-4.55721
-6.38311
-8.20845
-10.0344
-11.8598
-13.6858
-15.5113
-17.3372
-19.1628
-20.9915
20.9952
19.1738
17.3518
15.5296
13.7047
11.8765
10.0472
8.22076
6.39491
4.56974
2.74413
0.918395
-0.907594
-2.73336
-4.55867
-6.38452
-8.20982
-10.0357
-11.8611
-13.687
-15.5124
-17.3383
-19.1638
-20.9918
20.995
19.1734
17.3514
15.5281
13.7017
11.8737
10.0452
8.21907
6.3933
4.5681
2.74252
0.91683
-0.909137
-2.73481
-4.56014
-6.3859
-8.21119
-10.037
-11.8624
-13.6882
-15.5136
-17.3394
-19.1648
-20.9922
20.9949
19.1731
17.351
15.5265
13.6989
11.8709
10.0432
8.21737
6.39164
4.56642
2.74088
0.915294
-0.910659
-2.73624
-4.56159
-6.38723
-8.21257
-10.0383
-11.8636
-13.6894
-15.5148
-17.3405
-19.1659
-20.9925
20.9948
19.1729
17.3506
15.5255
13.697
11.8686
10.0412
8.21567
6.39006
4.56476
2.73923
0.913757
-0.912188
-2.73765
-4.56301
-6.38861
-8.21395
-10.0396
-11.865
-13.6906
-15.516
-17.3416
-19.1671
-20.993
1.7297
-1.91573
-1.79573
1.6849
-1.98072
-1.92902
1.69118
-1.95882
-1.98272
1.73096
-1.88574
-1.95145
1.77968
-1.8033
-1.87529
1.79044
0.185563
0.0649318
-1.73513
-1.79373
1.81911
0.217084
-1.77847
-1.70988
3.46728
1.96382
2.03243
-1.03807
-0.893234
-2.13236
-3.56074
-3.52144
3.441
1.92122
1.95594
1.70061
0.925164
0.951215
-1.20713
-1.16577
-2.19228
-3.5945
-3.57208
3.43626
1.92512
1.91948
1.68213
0.906952
0.905772
-1.24464
-1.25092
-2.17558
-3.5903
-3.59717
3.45038
1.96033
1.92842
1.7084
0.953977
0.931028
-1.12946
-1.18104
-2.10636
-3.55461
-3.58355
-1.00195
-1.07762
-2.03014
-3.50666
-3.54301
-0.902964
-0.944151
1.65134
0.162348
0.176313
-0.0646581
-1.56645
-1.72716
0.955924
1.0063
1.76128
0.887633
0.83489
0.995496
0.897561
-1.16239
-1.0789
-1.86923
-1.15898
-1.21573
0.906647
0.921802
1.69553
0.833087
0.814615
0.830553
0.834384
-1.2465
-1.21251
-1.9664
-1.26839
-1.28482
-1.21849
-1.26454
-1.95912
0.927896
0.909386
1.68349
0.816788
0.839811
0.814887
0.81464
-1.18655
-1.2405
-1.97613
-1.27769
-1.24461
-1.28786
-1.28143
-1.97986
0.841119
0.870819
0.842125
0.837346
-1.08094
-1.12791
-1.9156
-1.18266
-1.16475
-1.24017
-1.18459
-1.92527
0.917993
0.947297
0.875455
0.913062
-0.950445
-0.995567
-1.15852
-1.11401
-1.84365
0.968182
0.940019
0.949746
0.966685
-0.852529
-0.898794
1.77334
1.01655
1.10287
-0.545653
-0.392014
3.47171
2.00389
1.96595
1.75667
1.02512
0.98997
-0.491642
-0.517008
-1.96542
-3.46175
-3.49461
0.618739
0.495244
-1.01541
-1.14476
-1.85116
0.985494
0.957681
1.71364
0.419855
0.436733
0.521791
0.53626
0.433849
0.468023
-0.520898
-0.543827
-1.83343
-1.10766
-1.06396
0.537723
0.545374
-1.05798
-1.01819
-1.76622
0.223041
0.95483
1.00758
-0.874497
-0.747045
0.0954228
-0.573278
-0.980618
-0.623267
-0.462233
-0.604486
-0.959483
-1.18722
-1.18921
-1.25943
-1.25917
-1.15799
-1.15552
-1.02078
-0.629301
-1.05298
-0.467104
-0.489129
-0.575162
-0.550968
-0.925366
0.427887
0.860038
0.463631
0.484444
0.465377
0.852397
0.487672
0.547534
0.937014
0.480784
0.426986
-1.12829
-1.1239
0.818789
0.81879
0.845372
0.84449
-1.22028
-1.21734
-1.2581
-1.60913
-1.59915
-1.62002
-1.61203
-1.26112
-1.23867
-1.57539
-1.55618
-1.59517
-1.5807
-1.23931
0.827919
0.829676
0.812282
0.812836
-1.20223
-1.20694
-1.24619
-1.60632
-1.61727
-1.58715
-1.60188
-1.24194
-1.29597
-1.62495
-1.6219
-1.62011
-1.62465
-1.29596
0.423768
0.852672
0.475691
0.455602
0.492874
0.473873
0.856862
0.822084
0.459213
0.825684
-1.10365
-1.10595
-1.21231
-1.56514
-1.58132
-1.5426
-1.55966
-1.21082
0.493749
0.518855
0.891955
0.523181
0.49285
0.548667
0.526705
0.897418
0.470905
0.491382
-0.969555
-0.600557
-0.578656
-0.621991
-0.600047
-0.976183
-0.537588
0.527941
0.538345
0.195234
0.546374
0.525862
-0.0137801
-0.415533
-0.464651
-0.0539719
3.48614
2.13093
2.00817
1.7955
1.13068
1.11763
-0.030308
-0.74175
-0.788433
0.431546
1.05769
1.02977
1.76293
0.305593
0.298862
0.172866
0.523494
0.505234
0.307548
0.320437
-0.36634
-0.401606
0.0323025
0.311089
0.623075
0.631213
-0.370029
-0.274686
0.17614
0.934212
1.29407
1.2834
-1.19047
-1.03041
-1.17418
0.904457
1.26626
1.26701
1.26762
1.26519
0.904382
-1.25369
-1.25554
-1.14252
-1.1604
-0.225985
-0.229603
-0.919406
-0.54817
-0.556151
0.882517
0.872547
0.200234
0.951824
0.559765
0.669388
-1.14578
-0.989997
-1.02372
-1.19843
-1.51345
-1.4795
-1.54875
-1.52245
-1.20894
0.910396
1.27277
1.26751
1.28164
1.27357
0.912091
0.824478
0.630713
0.658231
0.625256
0.624831
0.81667
0.660952
0.660386
0.839153
-1.23753
-1.20689
-1.26375
-1.42117
-1.39407
-1.4431
-1.43704
-1.27616
1.26902
1.27248
0.91739
0.822064
0.645366
0.623092
0.813138
0.624249
0.625386
0.618281
0.617972
0.813131
-1.18574
-1.22799
-1.26551
-1.43163
-1.43771
-1.36941
-1.40629
-1.24365
-1.293
-1.44764
-1.44339
-1.44067
-1.44451
-1.2902
-1.09023
-0.916449
-0.915508
-0.984096
-0.964365
-1.11972
-1.19125
-1.51938
-1.5368
-1.4962
-1.51341
-1.18508
0.932349
0.572491
0.55126
0.6181
0.607204
0.93653
0.327934
0.329068
0.957874
0.627647
0.621297
0.330025
0.328559
-0.221001
-0.219856
-0.49049
-0.16121
-0.466334
-0.271885
-0.503532
-0.332133
-0.307715
-0.343964
-0.508319
0.559215
0.384632
0.485863
0.36223
0.539622
0.411452
0.421184
0.315616
0.309284
0.529553
0.36103
0.36221
0.361483
0.358862
0.530554
0.434475
0.443118
-0.528668
-0.529305
0.541756
0.375073
0.368283
0.317307
0.31144
-0.668681
-0.821258
-0.781182
-0.863837
-0.832979
-0.689187
-1.18588
-1.17898
-1.25588
-1.2583
-1.14824
-1.15479
-0.663732
-0.814853
-0.825153
-0.801854
-0.812954
-0.658302
-0.833833
-0.856404
-0.829858
-0.830628
-0.476348
-0.294881
-0.28757
-0.314419
-0.296303
-0.478957
-0.23496
-0.266245
0.455103
0.651668
0.641951
0.675072
0.656333
0.456051
0.619597
0.621392
0.637272
0.6211
0.513688
0.701012
0.680651
0.455251
0.450135
-0.97165
-0.983185
-1.14224
-0.930736
-0.894256
-0.873494
-0.919995
-0.900959
-1.10583
-0.952118
-0.964579
0.622721
0.625252
0.822953
0.565271
0.563205
0.603103
0.567822
0.565606
0.566597
0.564025
0.566572
0.816544
0.625043
0.623337
0.597173
0.591802
0.621553
0.605399
0.600318
0.604619
0.593512
0.598518
0.839778
0.659628
0.657489
-1.23483
-1.21066
-1.42748
-1.42148
-1.25892
-1.27315
-1.43618
-1.42862
0.651405
0.647537
0.824329
0.593576
0.593713
0.550926
0.588836
0.584915
0.596601
0.592394
0.587316
0.622135
0.624001
0.813532
0.565219
0.562654
0.566927
0.565391
0.557509
0.55324
0.562013
0.559296
0.812312
0.619212
0.62144
-1.18835
-1.2217
-1.42052
-1.42818
-1.26016
-1.2386
-1.40928
-1.41694
-1.44909
-1.4472
-1.29477
-1.29233
-1.44676
-1.44776
0.42365
0.459167
0.643382
0.649191
0.632326
0.640214
0.447216
0.486884
0.66292
0.638856
0.651424
0.659607
0.47945
0.612056
0.610966
0.605598
0.611622
0.467694
0.625447
0.630836
0.611821
0.622993
0.462378
-0.941182
-0.922866
-1.09418
-0.875119
-0.902251
-0.860426
-0.865371
-0.907168
-1.11512
-0.954655
-0.935978
0.501194
0.323377
0.328917
0.357293
0.324677
0.505159
0.314793
0.476135
0.331371
0.48017
-0.61976
-0.790408
-0.798495
-0.776029
-0.786897
-0.61166
-0.559678
-0.57071
0.332082
0.345504
0.315447
0.329289
-0.198113
-0.219585
-2.01308
-3.50863
-3.4777
-1.758
-1.06822
-1.03667
0.361814
0.494511
0.483121
-0.0243042
0.0202378
0.292618
-1.74269
-1.00181
-0.998712
1.31061
1.29681
0.937669
-1.20121
-1.16117
-1.16805
-1.24925
-1.25239
1.28402
1.29112
0.940051
-1.14279
-1.13474
-1.17439
-0.912929
-0.895926
-1.06679
0.97337
1.33228
1.31465
0.681663
0.684467
0.839579
-0.923526
-0.945871
-1.10037
0.853647
0.667855
0.680632
-1.24289
-1.17539
-1.18146
-1.21602
-1.34314
-1.34068
-1.28174
-1.38952
-1.38324
-1.24996
0.919751
1.27518
1.28087
0.657668
0.648946
0.834834
-1.19038
-1.15505
-1.14905
-1.23671
-1.27401
-1.33503
-1.33801
-1.28976
-1.34717
-1.34536
-1.34099
-1.34369
-1.28519
0.816387
0.669071
0.662222
-1.22393
-1.36158
-1.36729
-1.13928
-1.4726
-1.4903
0.215098
0.213035
0.635964
0.629777
0.959712
0.220334
0.217476
-0.550681
-0.533582
-0.883542
-0.532736
-0.483563
0.415943
0.384605
0.388876
0.438023
0.431183
0.374411
0.379214
0.41493
0.409208
0.463371
-0.497824
-0.488514
-0.539705
0.371695
0.373743
0.54225
-0.831543
-0.420334
-0.44224
-0.592627
-0.635687
-0.688469
-0.673647
-0.767131
-0.750773
-0.768239
-0.72851
-0.546517
-1.13102
-1.13576
-1.18467
-1.18796
-1.13326
-1.13548
-1.2609
-1.25932
-1.10285
-1.10058
-1.15726
-1.15196
-1.10062
-1.09846
-0.706102
-0.715198
-0.683309
-0.689821
-0.6389
-0.724843
-0.733708
-1.06335
-0.892159
-0.885386
0.429446
0.461637
0.519024
0.519119
0.548619
0.542076
0.480045
0.499995
0.503424
0.515934
0.498973
0.459511
0.701217
0.706894
0.521218
0.468757
0.403816
0.407043
0.429436
-0.796479
-0.785017
0.656932
0.662377
0.851947
0.506167
0.508889
-1.22448
-1.21465
-1.36755
-1.36189
-1.23014
-1.24554
-1.3771
-1.37211
0.832987
0.649103
0.651051
-1.19638
-1.21132
-1.35225
-1.35215
-1.29594
-1.29603
-1.35192
-1.35209
0.427101
0.476282
0.530973
0.532009
0.510969
0.509537
0.451394
0.672878
0.670574
0.818915
0.494942
0.491455
0.503199
0.509597
0.462868
0.515048
0.513338
0.487502
0.484507
-1.34956
-1.35505
-1.21892
-1.20024
-1.33785
-1.34427
0.505776
0.656277
0.663955
0.642174
0.648007
0.499116
-0.58974
-0.73576
-0.773029
-0.723324
-0.729796
-0.58738
-0.619637
-0.680274
-0.679994
-0.54087
-0.503119
-0.586768
0.187656
0.223927
0.236654
0.225226
0.553026
0.383105
0.37433
0.385515
0.384317
0.524265
-0.0616146
-0.0880621
-0.282994
-0.279684
-0.454193
0.402603
0.431372
0.369058
0.301639
0.298721
0.328024
0.328726
0.166356
0.320619
0.276254
0.272715
0.269427
0.273746
0.322264
0.101562
-0.153618
-0.187831
-0.331853
-0.071291
-0.114955
-1.14977
-1.15505
-1.19562
-1.0345
-1.06155
-1.06444
-1.07389
-1.0674
-1.25245
-1.25356
-1.02872
-1.03647
-1.01403
-1.02035
-1.16717
-1.12601
-1.11782
-0.233478
-0.179285
-0.168652
-0.192361
-0.188055
-0.237475
-1.00019
-1.04332
-1.0363
-1.06059
-1.05237
-1.01218
-1.23971
-1.21472
-1.18309
-1.18334
-1.2788
-1.33831
-1.3358
-1.16787
-1.16106
-1.19019
-1.23381
-1.32821
-1.33184
-1.27037
-1.34987
-1.3485
-1.29127
-1.28816
-1.34601
-1.34773
-0.979333
-1.01683
-1.0114
-1.00819
-1.01418
-0.971916
0.211053
0.209437
0.22556
0.222213
0.329773
0.27411
0.275996
-0.117071
-0.118749
-0.218926
-0.155146
-0.164634
-0.159969
-0.154465
-0.217466
-0.438117
-0.455538
-0.513214
-0.38172
-0.198923
-0.278001
-0.23752
-0.34455
-0.319863
-0.251275
-0.320808
-0.377712
-0.386048
-0.371529
-0.372663
-0.312006
-0.3594
-0.394424
-0.398054
-0.395014
-0.400586
-0.354414
0.398246
0.46567
0.435794
0.381817
0.376474
0.398591
0.391213
0.412316
0.435972
0.390792
0.386139
0.314437
0.312272
0.414301
0.416689
0.363391
0.371923
0.371876
0.430761
0.365253
0.367697
0.354241
0.454647
0.38941
0.375582
-0.466581
-0.47273
-0.528651
-0.426408
-0.431918
-0.406356
-0.416571
-0.533436
-0.4785
-0.4702
0.313975
0.259689
0.264612
0.25161
0.255018
0.311469
-0.717953
-0.702481
-0.647245
-0.707081
-0.74122
-0.732579
-1.10628
-1.18307
-1.1383
-1.14411
-1.0882
-1.08132
-1.10135
-1.09545
-1.25874
-1.25983
-1.06045
-1.06779
-1.04468
-1.05287
-1.15343
-1.09481
-1.08778
-1.1105
-1.10426
-1.1516
-1.07392
-0.695963
-0.699074
-0.649014
-0.697119
-0.701483
-0.840676
-0.791392
-0.781184
-0.811473
-0.80226
-0.849042
-0.832272
-0.776062
-0.772159
-0.773616
-0.770437
-0.831356
-0.739025
-0.309281
-0.368061
-0.371509
-0.244372
-0.255689
0.423637
0.518321
0.517698
0.457673
0.463704
0.532326
0.523401
0.492124
0.495872
0.559764
0.557244
0.620606
0.492311
0.490169
0.400228
0.399401
0.459579
0.368168
0.434173
0.394416
0.400606
-0.977573
-1.0304
-1.0255
-1.03376
-1.03277
-0.977099
-0.950406
-0.940996
-0.887022
-0.836944
-0.851177
-0.824114
-0.828433
-0.881066
-0.910151
-0.862708
-0.870334
-0.902052
0.563803
0.562628
0.597786
0.547793
0.549354
0.536181
0.572312
0.565926
0.566323
0.564806
0.565702
0.591957
0.530532
0.53316
0.533412
0.531121
0.590773
0.619933
0.562252
0.561732
0.539535
0.558665
0.615093
0.509636
0.502028
0.602016
0.546773
0.544628
0.550605
0.548709
0.603521
0.595529
0.539059
0.535897
0.542201
0.539955
0.596866
-1.22913
-1.21109
0.595209
0.543681
0.546038
0.53909
0.541087
0.594884
0.553862
0.545421
0.537868
0.571496
0.584346
0.523184
0.526949
0.522142
0.520417
0.588242
0.590919
0.534915
0.537062
0.530279
0.53294
0.589326
0.565116
0.564659
0.56729
0.565654
0.55644
0.555013
0.561372
0.561193
-1.19112
-1.21625
-1.29586
-1.35194
-1.35104
-1.34945
-1.35089
-1.2945
0.428695
0.526135
0.529947
0.474006
0.447661
0.511424
0.518075
0.501662
0.498336
0.61168
0.553455
0.555921
0.609306
0.553848
0.537945
0.557243
0.557011
0.610423
0.508723
0.505008
0.51291
0.51521
0.46612
0.484117
0.498309
-0.937745
-0.993742
-0.995787
-0.983017
-0.988879
-0.930824
-0.885569
-0.894353
-0.855203
-0.825288
-0.820131
-0.858245
-0.945371
-0.995112
-1.00094
-0.994461
-0.992854
-0.938723
0.323624
0.378772
0.379855
0.380636
0.379377
0.325612
0.34017
0.401629
0.409827
0.383798
0.391502
0.32842
0.306619
0.359788
0.356056
0.366707
0.363921
0.333361
0.37838
0.381056
0.355065
0.362122
0.329121
-0.677047
-0.680401
-0.624876
-0.549093
-0.580859
0.209697
0.213112
0.322101
0.262099
0.251471
0.27666
0.274256
0.326913
0.229832
0.22877
-0.0998064
-0.110341
3.23159
2.09596
2.31518
1.64292
0.278401
0.493695
-0.179077
-1.57149
-1.33877
-2.04286
-3.20577
-3.19461
5.08594
3.95459
4.16249
3.50055
2.13588
2.10169
1.68115
0.207694
0.284236
-0.0216747
-1.58737
-1.579
-2.06151
-3.47068
-3.44653
-3.93196
-5.07699
-5.06545
5.08535
3.95081
3.9567
3.49909
2.04032
2.14749
1.82852
1.16381
1.12867
0.0168081
-0.744838
-0.75099
-1.97342
-2.55862
-2.54545
-3.96609
-5.10174
-5.08835
5.07242
3.92554
3.94599
3.48511
3.02999
3.04032
1.79879
1.57492
1.58844
-2.07433
-2.74923
-2.72061
-4.00704
-5.12652
-5.11414
5.0569
3.90329
3.91884
3.4518
2.9886
2.9973
1.71336
1.47741
1.4857
-2.17161
-2.81736
-2.79505
-4.03493
-5.1446
-5.13711
5.05009
3.89823
3.90044
3.43585
2.97097
2.97271
1.68189
1.44448
1.44553
-2.19398
-2.83541
-2.83401
-4.0321
-5.14537
-5.14755
5.05374
3.90896
3.89977
3.44154
2.98005
2.97573
1.69894
1.46544
1.46078
-2.14372
-2.80067
-2.81695
-4.00208
-5.12743
-5.13841
5.06346
3.92624
3.91315
1.74368
1.5156
1.50806
-2.06746
-2.74062
-2.76412
-3.95998
-5.09858
-5.11372
5.07315
3.93925
3.93032
-1.99533
-2.57074
-2.58551
-3.91951
-5.06709
-5.08281
5.06822
4.15151
4.16171
3.46119
2.1028
2.11811
1.76883
1.09603
1.10375
0.0302407
-0.308782
-0.35297
-2.03452
-3.42413
-3.45176
-4.11804
-5.03451
-5.05137
5.05151
4.14078
4.14383
3.23064
2.09333
2.10027
1.63791
0.26731
0.285793
-0.190765
-1.56988
-1.56793
-2.02965
-3.18038
-3.41865
-4.10066
-5.02041
-5.0247
3.22635
2.31612
2.31848
1.39981
0.491878
0.26237
-0.422754
-1.3453
-1.57069
-2.25921
-3.17935
-3.17816
1.49513
1.50586
1.73937
-1.90056
-1.63078
-1.65453
-1.56096
-1.58187
-1.81388
1.44745
1.45027
1.68768
-1.97726
-1.7151
-1.72124
-1.6614
-1.6801
-1.94052
1.45649
1.45269
1.68806
-1.96543
-1.70292
-1.69165
-1.72216
-1.72342
-1.98325
1.50096
1.49453
1.72493
-1.89544
-1.62313
-1.66339
-1.68709
-1.67241
-1.94336
-1.81317
-1.58701
-1.57667
-1.65338
-1.64188
-1.86461
1.10843
1.13436
1.7978
0.160494
0.295417
0.288769
-0.0668721
-0.0954217
0.0997733
-1.56649
-1.55614
-1.78416
1.11328
1.17388
1.82943
0.421543
0.455156
0.481174
0.900397
0.941178
0.263938
0.259192
0.353118
-1.76424
-1.52466
-1.54074
-0.993913
-0.994349
-1.73398
3.00741
3.01857
3.47618
1.99229
2.56193
2.54787
2.58979
2.57648
2.00259
-1.02094
-0.884974
-0.914598
-0.768058
-0.792956
-0.914153
-2.78773
-2.75869
-2.08995
-3.54813
-3.09831
-3.11442
-3.06489
-3.08132
-3.53483
2.97622
2.98154
3.44576
1.93172
2.51633
2.51021
2.53528
2.5247
1.93644
1.46388
1.47018
1.70662
0.928163
1.04785
1.04475
1.07133
1.06657
0.947015
-1.11735
-1.11725
-1.16819
-2.83381
-2.82121
-2.17842
-3.5892
-3.15044
-3.15702
-3.12889
-3.14106
-3.58177
2.97265
2.97098
3.43541
1.91895
2.50517
2.50764
2.50635
2.50471
1.91784
1.44518
1.44437
1.68166
0.905561
1.0271
1.02821
1.02719
1.02644
0.905081
-2.82296
-2.83203
-2.1911
-3.59497
-3.15806
-3.15245
-3.16048
-3.16083
-3.59741
2.9915
2.98542
3.44566
1.94495
2.52437
2.53209
2.51183
2.5175
1.9402
1.47609
1.47059
1.70353
0.943501
1.29455
1.30293
1.04878
1.0515
0.933558
-1.13242
-1.06927
-1.06774
-2.77219
-2.79321
-2.13469
-3.56545
-3.12245
-3.10949
-3.14433
-3.13425
-3.57525
-1.00831
-0.869573
-0.859908
-1.02223
-1.01869
-1.07415
-2.60146
-2.61633
-2.05808
-3.5188
-3.06777
-3.05389
-3.09578
-3.08172
-3.53102
-0.908217
-0.792963
-0.787576
-0.830624
-0.824082
-0.9378
1.19868
1.09301
1.65389
0.190511
0.868544
0.860609
0.50194
0.497397
0.145887
-0.747029
-0.740719
-0.0394606
-1.57129
-0.977927
-1.0988
-1.02495
-0.985803
-1.70148
0.961036
1.08167
1.07625
1.35985
1.33798
0.980543
1.7498
1.51781
1.53117
0.877146
0.719975
0.736043
0.981723
0.872432
0.889643
0.777319
0.789927
0.909194
-1.15744
-1.10777
-1.1142
-1.02714
-1.0357
-1.0876
-1.64864
-1.66782
-1.88597
-1.17378
-1.2794
-1.2657
-1.33967
-1.33183
-1.22758
0.907715
1.02925
1.02806
1.04178
1.03873
0.917867
1.69113
1.45393
1.45849
0.830033
0.769944
0.773444
0.752003
0.752377
0.815691
0.775686
0.777273
0.836553
-1.7027
-1.7127
-1.97246
-1.27069
-1.31669
-1.31351
-1.22681
-1.35531
-1.34817
-1.31133
-1.30707
-1.25966
-1.95053
-1.68517
-1.69909
0.924868
1.04308
1.04585
1.02987
1.0317
0.912459
1.68541
1.44946
1.44694
0.81814
0.756781
0.75354
0.780036
0.777775
0.838223
0.813847
0.751441
0.751833
0.75105
0.749727
0.814159
-1.71567
-1.70672
-1.97127
-1.29381
-1.29736
-1.24771
-1.98226
-1.72257
-1.71832
0.84515
0.699698
0.692838
0.753389
0.749547
0.866475
0.843835
0.784033
0.782359
0.690941
0.68556
0.833785
-1.08383
-1.02738
-1.02509
-1.0702
-1.07239
-1.1264
-1.64579
-1.62903
-1.90566
-1.17557
-1.31299
-1.31868
-1.27555
-1.28172
-1.1711
-1.23505
-1.28487
-1.28926
-1.32437
-1.33085
-1.19538
-1.93459
-1.66713
-1.65134
0.922933
0.811407
0.806061
0.837558
0.834235
0.943986
0.880699
0.76451
0.758378
0.800853
0.795538
0.908006
-0.956819
-0.843749
-0.837168
-0.856646
-0.847882
-0.989177
-1.15199
-1.26297
-1.26932
-1.44917
-1.46664
-1.13312
-1.85405
-1.63055
-1.61951
0.973878
0.647528
0.638558
0.612663
0.642737
0.97021
0.952977
0.843093
0.84039
-0.879018
-0.524215
-0.496784
1.54556
1.56037
1.78605
1.05237
1.39137
1.36728
1.36955
1.353
1.06547
-0.315978
-0.347134
-0.416538
1.98873
2.55741
2.56523
2.54042
2.54898
1.98318
1.53037
1.52307
1.75021
1.01031
1.29616
1.30453
1.27881
1.2875
1.00519
-0.494694
-0.434724
-0.432017
-0.457302
-0.456281
-0.514295
-2.54383
-2.55705
-1.98752
0.599229
0.549092
0.572541
0.425724
0.4373
0.508188
-1.07291
-1.41667
-1.38154
-1.46795
-1.42969
-1.09265
-1.83252
-1.60438
-1.6269
0.973153
1.31997
1.27184
1.30659
1.3161
0.969253
1.71911
1.48803
1.48192
0.525446
0.47048
0.467359
0.479224
0.47671
0.53384
-0.525576
-0.468176
-0.461591
-1.60855
-1.59771
-1.82323
-1.08861
-1.42597
-1.44346
-1.34942
-1.42047
-1.08237
0.53966
0.483851
0.481709
0.488612
0.487541
0.543955
-1.03978
-1.3279
-1.33915
-1.30753
-1.3173
-1.03412
-1.77498
-1.54628
-1.53703
0.571724
0.609833
0.285501
1.02433
0.712201
0.677263
0.70826
0.72102
1.02444
-0.858397
-0.726297
-0.745642
-0.426906
-0.415442
-0.82192
0.153351
-0.27498
-0.298442
-0.837512
-0.87415
-1.00135
-0.52548
-0.667217
-0.638446
-0.65741
-0.640726
-0.586387
-0.937249
-0.819424
-0.843536
-0.881546
-0.87188
-1.01467
-1.05691
-1.00167
-0.998859
-0.470681
-0.411679
-0.408431
-0.430084
-0.427098
-0.486209
-0.565867
-0.709957
-0.716569
-0.696509
-0.70321
-0.561978
-0.931552
-0.817544
-0.811048
0.704376
0.715612
0.868048
0.845287
0.68669
0.700115
0.494201
0.560288
0.553913
0.613128
0.6023
0.536843
0.92254
0.804882
0.819514
-1.07659
-1.08132
-1.134
-1.11744
-1.06574
-1.07138
0.75457
0.755341
0.820247
0.817588
0.75387
0.754253
0.783815
0.785326
0.847743
0.842422
0.781762
0.782812
-1.31978
-1.31688
-1.25578
-1.60596
-1.50126
-1.50427
-1.49474
-1.49727
-1.60262
-1.61759
-1.5117
-1.51356
-1.50693
-1.50946
-1.61501
-1.26492
-1.32631
-1.32289
-1.29187
-1.2888
-1.2367
-1.56947
-1.4659
-1.47168
-1.45257
-1.45954
-1.56317
-1.59059
-1.48642
-1.49087
-1.47684
-1.48172
-1.58585
-1.24024
-1.29442
-1.29224
0.769244
0.768268
0.82716
0.830418
0.771066
0.77027
0.749595
0.750021
0.813112
0.812169
0.749169
0.749437
-1.31223
-1.31618
-1.25056
-1.61032
-1.49915
-1.49485
-1.50695
-1.50326
-1.61409
-1.59233
-1.48412
-1.48293
-1.49068
-1.48723
-1.59734
-1.23816
-1.30427
-1.30818
-1.62444
-1.51659
-1.5166
-1.51504
-1.51609
-1.62351
-1.62221
-1.51276
-1.5102
-1.51595
-1.51475
-1.62385
0.736698
0.702057
0.84917
0.492124
0.548021
0.549867
0.532677
0.5336
0.472427
0.861571
0.74473
0.740045
0.829859
0.683229
0.674416
-1.04956
-1.04662
-1.10132
-1.10801
-1.05328
-1.05147
-1.26548
-1.26616
-1.21317
-1.57046
-1.46291
-1.45713
-1.47646
-1.46939
-1.57586
-1.54834
-1.44029
-1.43445
-1.45165
-1.44608
-1.5541
-1.2085
-1.26252
-1.26378
0.495904
0.43829
0.437432
0.463406
0.457993
0.514801
0.77781
0.771293
0.886344
0.518834
0.576405
0.58056
0.551466
0.55325
0.493047
0.538963
0.682845
0.688544
0.670421
0.676651
0.53533
0.902782
0.78987
0.783949
0.472539
0.415401
0.416228
0.436037
0.433579
0.488612
-0.856678
-0.850389
-0.963129
-0.59793
-0.655259
-0.657962
-0.636184
-0.639856
-0.582478
-0.659693
-0.661992
-0.600235
-0.982806
-0.869472
-0.863144
0.530886
0.389179
0.385732
0.401722
0.391963
0.534619
0.548227
0.491341
0.489911
-0.423323
-0.278172
-0.263088
-0.405486
-0.402772
-0.461083
2.13437
2.58264
2.58302
2.57217
2.57807
2.01872
1.12663
1.34759
1.35138
1.3388
1.34337
1.12206
-0.265841
-0.261772
-0.0237472
-0.752194
-0.501598
-0.500945
-0.489101
-0.517041
-0.771343
1.04723
1.32722
1.33344
1.31259
1.32021
1.04326
1.76895
1.54417
1.53743
0.222135
0.232851
0.198988
0.51582
0.405061
0.383654
0.397194
0.40103
0.509465
-0.376919
-0.245524
-0.225039
-0.253374
-0.258147
-0.386074
0.114821
-0.020901
-0.0502127
0.423504
0.486827
0.334548
0.633063
0.539095
0.523615
0.513381
0.534178
0.632748
-0.351111
-0.269474
-0.289967
-0.125961
-0.0711416
-0.280576
0.266229
0.0149668
0.0271817
1.05439
1.05097
0.931085
1.28964
1.17066
1.17427
1.16439
1.1676
1.28741
-1.1706
-1.11676
-1.11784
1.02595
1.0263
0.904791
1.26557
1.14626
1.14603
1.14798
1.14712
1.26712
1.26587
1.14641
1.14729
1.14577
1.14613
1.26643
0.904633
1.02604
1.0258
-1.08063
-1.07421
-1.13708
-0.80465
-0.798608
-0.913622
-0.567764
-0.683895
-0.690102
-0.672116
-0.677831
-0.561917
0.880577
0.658837
0.609774
0.649181
0.65381
0.876667
0.208362
0.428408
0.423741
0.836128
0.854171
0.966956
0.602214
0.742973
0.720544
0.785948
0.765748
0.618974
-1.09339
-1.10028
-1.15214
-1.30296
-1.29165
-1.18677
-1.50192
-1.39643
-1.4076
-1.37221
-1.38487
-1.49183
-1.54078
-1.4365
-1.44477
-1.41784
-1.42762
-1.53227
-1.21841
-1.32282
-1.31328
1.03213
1.03053
0.908945
1.27008
1.15068
1.15249
1.14807
1.14944
1.26974
1.27803
1.15882
1.1617
1.1542
1.15653
1.27671
0.914453
1.03612
1.03388
0.761398
0.765539
0.827804
0.639738
0.702633
0.696614
0.7147
0.709971
0.652093
0.625107
0.689067
0.688927
0.689392
0.689162
0.624911
0.815506
0.752585
0.753041
0.661377
0.71849
0.71733
0.719223
0.718949
0.661032
0.837252
0.778235
0.779239
-1.3157
-1.3173
-1.26917
-1.41919
-1.37173
-1.37082
-1.44045
-1.38531
-1.38718
-1.38182
-1.38377
-1.4399
1.26938
1.15088
1.14947
1.15449
1.15275
1.27172
0.915086
1.03365