/*--------------------------------*- C++ -*----------------------------------*\
| =========                 |                                                 |
| \\      /  F ield         | OpenFOAM: The Open Source CFD Toolbox           |
|  \\    /   O peration     | Version:  5.x                                   |
|   \\  /    A nd           | Web:      www.OpenFOAM.org                      |
|    \\/     M anipulation  |                                                 |
\*---------------------------------------------------------------------------*/
FoamFile
{
    version     2.0;
    format      ascii;
    class       volScalarField;
    location    "400";
    object      p_rgh;
}
// * * * * * * * * * * * * * * * * * * * * * * * * * * * * * * * * * * * * * //

dimensions      [0 2 -2 0 0 0 0];

internalField   nonuniform List<scalar> 
6584
(
0.00486069
0.00527373
0.00576765
0.00650368
0.00743974
0.00863763
0.0100758
0.0117598
0.0134963
0.0151461
0.0161884
0.0160716
0.0144141
0.0113403
0.00744036
0.00340849
-0.000217247
-0.00329098
-0.00573747
-0.00762931
-0.00903732
-0.0100835
-0.0107642
-0.0113064
0.00471557
0.00516814
0.00563337
0.00636407
0.00728064
0.00848203
0.00994348
0.0117217
0.0136018
0.0154809
0.0167589
0.0167976
0.0150814
0.0117488
0.00755375
0.00321329
-0.000547775
-0.0036679
-0.00608875
-0.00793356
-0.00928318
-0.0102948
-0.0109223
-0.0115017
0.00440391
0.00486593
0.00527731
0.00597228
0.00683862
0.00803385
0.00955463
0.0115987
0.0138123
0.0158434
0.0183845
0.0194428
0.018103
0.0142781
0.00912389
0.00252864
-0.00155705
-0.00475876
-0.00708763
-0.00877687
-0.00996439
-0.0108543
-0.0113675
-0.0119202
0.00399434
0.00442484
0.00475678
0.00537152
0.00613837
0.00726568
0.0088244
0.0111461
0.0142262
0.0171732
0.0213652
0.0240908
0.0229274
0.0172813
0.00991095
0.0032995
-0.00328259
-0.00656023
-0.00866269
-0.0100554
-0.0109762
-0.0116543
-0.0120016
-0.0124542
0.00351826
0.00387629
0.00409829
0.00456951
0.00515827
0.00608193
0.00752185
0.00990707
0.0128274
0.0182077
0.0249926
0.0312689
0.0307879
0.0211882
0.0095417
0.000846234
-0.00461887
-0.0093402
-0.0109364
-0.0117529
-0.0122705
-0.0126297
-0.0127609
-0.0130451
0.00300324
0.00324778
0.00332699
0.00357706
0.00387834
0.00433734
0.00535387
0.0068922
0.0108
0.0168789
0.0268347
0.043317
0.0488836
0.029545
0.00635025
-0.00463465
-0.00965715
-0.0130035
-0.0137763
-0.0137854
-0.0137704
-0.0137103
-0.0135824
-0.0136366
0.00248977
0.00258696
0.00250107
0.00246615
0.00239551
0.0022113
0.00250494
0.00341641
0.005351
0.0103044
0.0235098
0.0548102
0.0950407
0.0306409
-0.00200454
-0.015158
-0.0169489
-0.0176828
-0.0170503
-0.016011
-0.0153443
-0.0147887
-0.0143783
-0.0141571
0.00202408
0.00195658
0.00170497
0.00135815
0.000867002
-6.33732e-05
-0.000880693
-0.00111389
-0.00260155
-0.00341743
0.00112152
0.0225735
-0.0140791
-0.0313216
-0.0313056
-0.0264058
-0.022793
-0.0203654
-0.0181617
-0.016795
-0.0157262
-0.0150434
-0.0145304
0.00164955
0.00142402
0.00103547
0.000409877
-0.00046459
-0.00206429
-0.00403132
-0.00580806
-0.0111876
-0.0203916
-0.0338126
-0.0694417
-0.126839
-0.0712339
-0.0484747
-0.035623
-0.0271969
-0.0230397
-0.0198443
-0.0178748
-0.0163688
-0.0154704
-0.0146883
0.00139861
0.00104826
0.000582119
-0.000220633
-0.0013262
-0.00328008
-0.00596985
-0.00892755
-0.0165494
-0.0305327
-0.0538491
-0.107239
-0.177216
-0.0945195
-0.058046
-0.0410183
-0.029554
-0.0243556
-0.0206644
-0.0183518
-0.0165823
-0.0155698
-0.0145825
0.00128468
0.00086301
0.000395908
-0.000440946
-0.00155703
-0.0034294
-0.00613181
-0.00938792
-0.0164958
-0.0290712
-0.0500639
-0.0926825
-0.154667
-0.0893218
-0.0557593
-0.0405011
-0.0290913
-0.0239364
-0.0204096
-0.0181014
-0.0162962
-0.0152953
-0.014196
0.00129839
0.000865751
0.000469253
-0.000264249
-0.00118581
-0.00260724
-0.00467771
-0.00732822
-0.0117556
-0.0184967
-0.0289291
-0.0459246
-0.0901585
-0.0634584
-0.0441115
-0.0347628
-0.0260653
-0.021938
-0.0191358
-0.0171574
-0.0155303
-0.0146583
-0.0135491
0.00141072
0.00101974
0.000741088
0.000201896
-0.000402446
-0.00120112
-0.00232266
-0.00386173
-0.00508006
-0.00536555
-0.00423139
0.00621874
-0.0265059
-0.0328652
-0.0292029
-0.026416
-0.0215315
-0.0189443
-0.0171312
-0.015689
-0.0143918
-0.0137232
-0.0126937
0.00158209
0.0012681
0.00112242
0.000806732
0.000537578
0.000333064
7.42966e-05
0.000767967
0.000638243
0.00466261
0.0110898
0.0316862
0.0865787
0.0121765
-0.0100536
-0.0163661
-0.0181858
-0.0167019
-0.0156362
-0.0147807
-0.0139324
-0.0130186
-0.012587
-0.0116984
0.00177265
0.00155127
0.00152616
0.0014125
0.00142057
0.00164032
0.00201152
0.00314848
0.00431795
0.00899738
0.0158513
0.0290556
0.0384656
0.0170494
-0.000244925
-0.00800197
-0.0111545
-0.012378
-0.0125242
-0.0124218
-0.0121054
-0.0115522
-0.0113511
-0.0106344
0.0019495
0.00182028
0.00188783
0.00192956
0.00212747
0.00259475
0.00328308
0.00475394
0.00612069
0.00982559
0.0152178
0.020023
0.0185897
0.0119967
0.0032546
-0.00343931
-0.00756056
-0.0091274
-0.00991738
-0.0102829
-0.0103673
-0.0101157
-0.0101052
-0.00956846
0.00209015
0.00204266
0.00217041
0.0023173
0.00261717
0.00320177
0.00395059
0.00548846
0.00719677
0.00897591
0.0117448
0.013321
0.0158049
0.00998786
0.003708
-0.00117367
-0.00479218
-0.0067096
-0.0078072
-0.00845256
-0.00880305
-0.00877457
-0.0089083
-0.00853937
0.00218221
0.0022016
0.00235941
0.00256833
0.00289668
0.00350175
0.00415559
0.005458
0.00671424
0.00891952
0.00912725
0.0116451
0.00828465
0.00702601
0.00261653
-0.000771709
-0.00294236
-0.00500903
-0.00615138
-0.00694711
-0.00744624
-0.00757362
-0.00780205
-0.00757848
0.00222157
0.00229265
0.00245667
0.00269671
0.00300399
0.00357936
0.00407239
0.00516456
0.00569355
0.0076452
0.00567969
0.00930546
0.00860727
0.00221843
0.00254721
-0.000669364
-0.0021019
-0.00391883
-0.0049163
-0.00575195
-0.00630246
-0.00653001
-0.00680919
-0.00670579
0.00221
0.00231972
0.00247366
0.00272697
0.0029869
0.00352308
0.00384421
0.00482953
0.00488729
0.0067632
0.0053525
0.00719784
0.00658415
0.00224324
0.00236279
-0.000592909
-0.00150963
-0.00315747
-0.0039831
-0.00480902
-0.0053499
-0.00563853
-0.00593532
-0.00592798
0.00215265
0.00229093
0.00242486
0.00268255
0.00288248
0.0033834
0.00354508
0.00445194
0.00423275
0.00580826
0.00462103
0.00510251
0.0046056
0.00184089
0.00194162
-0.000549621
-0.00109794
-0.00260896
-0.0032641
-0.00406191
-0.00455904
-0.00488423
-0.00517553
-0.00524347
0.00205636
0.00221587
0.00232436
0.00258268
0.00271848
0.00318856
0.00321331
0.00403624
0.00364735
0.00490858
0.00385029
0.00383271
0.00343901
0.00135104
0.00149387
-0.000560117
-0.000852766
-0.00221849
-0.00271064
-0.0034696
-0.00390358
-0.00424946
-0.00452005
-0.00464615
0.00192859
0.00210432
0.00218535
0.00244343
0.00251744
0.00296142
0.00287855
0.00362285
0.00314707
0.00417343
0.00325608
0.0029659
0.00264792
0.000982939
0.00112998
-0.000582454
-0.000706636
-0.0019322
-0.00228186
-0.00299731
-0.00335962
-0.00371596
-0.00395666
-0.00412724
0.00177683
0.00196551
0.00201947
0.00227788
0.00229653
0.00271912
0.0025572
0.00323195
0.00272216
0.00356689
0.00277062
0.0022991
0.00204044
0.000686137
0.000831892
-0.000604043
-0.000615818
-0.00171295
-0.00194439
-0.00261575
-0.00290579
-0.00326623
-0.00347234
-0.0036766
0.00160805
0.00180762
0.00183635
0.00209609
0.00206756
0.00247251
0.00225561
0.00286888
0.00235613
0.00305734
0.00236711
0.00178406
0.00157202
0.000441746
0.000585854
-0.000622491
-0.000558139
-0.00153869
-0.00167385
-0.00230225
-0.00252369
-0.00288406
-0.0030541
-0.00328359
0.00142862
0.0016376
0.00164376
0.00190564
0.00183849
0.0022287
0.00197617
0.0025358
0.00203931
0.00262768
0.00202575
0.00137927
0.00120938
0.000247663
0.000387465
-0.000634723
-0.000519142
-0.00139485
-0.00145253
-0.00203936
-0.00219803
-0.00255537
-0.00268997
-0.00293795
0.00124411
0.0014613
0.00144782
0.00171226
0.00161461
0.00199212
0.00171906
0.0022324
0.00176396
0.0022674
0.00173786
0.0010624
0.000933313
9.47258e-05
0.000229932
-0.000639531
-0.000489326
-0.00127075
-0.00126652
-0.00181386
-0.00191625
-0.00226843
-0.00236927
-0.00262995
0.0010594
0.00128352
0.00125325
0.00152004
0.00139905
0.00176516
0.00148311
0.00195703
0.00152197
0.00196252
0.00149705
0.000812019
0.000712133
-3.36825e-05
0.000106678
-0.000634659
-0.000460173
-0.00115725
-0.00110396
-0.00161374
-0.00166695
-0.00201193
-0.00208167
-0.00235024
0.000878719
0.00110807
0.00106362
0.00133175
0.00119362
0.00154881
0.00126633
0.00170727
0.00130699
0.00169981
0.00129104
0.000606025
0.000533589
-0.000133022
1.3343e-05
-0.000620568
-0.000428355
-0.0010498
-0.000957209
-0.00143099
-0.00144149
-0.00177727
-0.00181863
-0.00209082
0.00070582
0.000938075
0.000881686
0.00114931
0.000999014
0.00134287
0.00106577
0.00147858
0.00111432
0.00147095
0.00111295
0.000435492
0.000389342
-0.000207519
-5.46218e-05
-0.000596581
-0.000391201
-0.000944306
-0.000820305
-0.00125895
-0.00123254
-0.00155677
-0.00157236
-0.00184393
0.000544028
0.000775857
0.000709384
0.000973541
0.000815272
0.001147
0.000878275
0.00126515
0.000937589
0.00126717
0.000955962
0.000293396
0.000272839
-0.000260355
-0.000100346
-0.000561526
-0.000346697
-0.000837055
-0.000688286
-0.00109209
-0.00103417
-0.00134385
-0.00133629
-0.00160251
0.00039655
0.00062321
0.000548453
0.000804467
0.000642314
0.000959279
0.000702169
0.00106341
0.000772119
0.00108058
0.000813752
0.000174345
0.000178593
-0.00029331
-0.000126289
-0.000514395
-0.000293809
-0.000725215
-0.000558119
-0.000926018
-0.000842034
-0.00113321
-0.0011052
-0.00136045
0.000266441
0.000480649
0.000400044
0.000641171
0.000479092
0.000774472
0.000533946
0.00086626
0.000611841
0.000901552
0.000678932
7.53396e-05
0.000103746
-0.000304349
-0.000132891
-0.000452211
-0.000231984
-0.000605197
-0.000427574
-0.000755912
-0.000652393
-0.000918748
-0.000873557
-0.00111009
0.000157452
0.000349861
0.000266965
0.00048433
0.000328066
0.00059282
0.000374923
0.000671042
0.000455076
0.000723596
0.000543547
-6.51877e-06
4.39096e-05
-0.000292485
-0.000122384
-0.000374415
-0.000163676
-0.000476729
-0.000298943
-0.00058188
-0.000467501
-0.000701011
-0.000643427
-0.00085185
7.14309e-05
0.000220063
0.000144868
0.000315172
0.000182621
0.000390253
0.000214486
0.000446841
0.000282723
0.000508081
0.000383327
-5.70802e-05
6.10781e-06
-0.000236349
-8.88894e-05
-0.000264261
-8.82883e-05
-0.000321673
-0.000167766
-0.000382509
-0.00027604
-0.000454461
-0.000395069
-0.000553264
1.71394e-05
0.000122926
6.18913e-05
0.000185702
8.32927e-05
0.000234572
0.000103662
0.000272217
0.000153377
0.000328436
0.000209449
-0.000109431
-4.24534e-05
-0.000168559
-5.18413e-05
-0.00016151
-2.787e-05
-0.000191226
-7.06772e-05
-0.00022275
-0.000135009
-0.000261709
-0.000209719
-0.000320349
-0.0607622
-0.125307
-0.0098014
-0.105544
-0.189364
-0.138245
-0.0968643
-0.170126
-0.191464
-0.05281
-0.10347
-0.163369
0.000948666
-0.0317338
-0.0940871
0.0305495
0.0958454
0.0910941
0.0154444
-0.0239174
0.0331377
0.0958454
0.00567161
0.0416644
-0.0256623
-0.0534299
0.0181368
-0.100075
0.0389127
-0.115393
-0.069747
-0.0315492
-0.0511045
-0.095789
-0.0613591
-0.0900979
-0.12979
-0.102852
-0.234607
-0.197706
-0.174774
-0.104709
-0.0811099
-0.0531117
-0.0893566
-0.0973566
-0.107452
-0.145167
-0.147792
-0.265941
-0.271544
-0.161128
-0.104871
-0.108106
-0.035164
-0.0498599
-0.0855676
-0.077695
-0.0973086
-0.121656
-0.168539
-0.209283
-0.0986899
-0.0768767
-0.0997157
-0.0671626
-0.111615
-0.0336512
-0.0403558
-0.0677838
0.0205992
-0.0148194
0.0319183
0.0282325
0.0879971
0.0308308
0.0244251
0.0174487
-0.0979122
-0.0464149
-0.0285622
-0.0516608
-0.105442
0.061176
-0.0414542
-0.193961
-0.111959
-0.0800144
-0.10681
-0.190269
-0.146838
-0.132753
-0.0951496
-0.137023
-0.152764
-0.110252
-0.136128
-0.268942
-0.236614
-0.175074
-0.238224
-0.254195
-0.193275
-0.236315
-0.167879
-0.124719
-0.143078
-0.10578
-0.148661
-0.127504
-0.152618
-0.150395
-0.21166
-0.263668
-0.185928
-0.247721
-0.215474
-0.255675
-0.249857
-0.189274
-0.0968608
-0.0654711
-0.125477
-0.101023
-0.114961
-0.164492
-0.130423
-0.1607
-0.114198
-0.212828
-0.163839
-0.139269
-0.0157474
0.0158201
-0.0604651
-0.0209567
-0.0204279
-0.0612537
-0.10819
-0.0669275
-0.0661236
0.0397136
0.0547631
0.0185964
0.0379162
0.0455636
0.0239614
-0.0161016
-0.0358757
0.0545424
-0.0531636
0.106876
-0.00990084
-0.00137084
-0.0436318
-0.0245931
-0.0216052
-0.0588342
0.0131804
-0.0101724
0.0102805
-0.0111963
-0.0318607
0.114598
-0.0105583
0.0306328
-0.09304
-0.0625932
-0.0636115
-0.0933515
-0.071907
-0.0937149
-0.0796897
0.011055
0.0286175
-0.0778255
-0.0441681
-0.0138298
-0.0368471
-0.0572187
-0.0610923
-0.0220021
0.0294171
0.0373876
-0.016782
0.0168676
-0.00287877
0.158396
0.106499
0.0749231
0.0558058
0.0980878
0.158181
-0.0715794
-0.0442978
-0.067698
0.0957539
-0.0498959
-0.024068
-0.225066
-0.222274
-0.273398
-0.273353
-0.189788
-0.192424
-0.0850208
-0.0702093
-0.0884216
0.0378901
0.0160945
-0.0108163
0.0114858
0.00155626
-0.0869603
-0.0797613
-0.112903
-0.0833537
-0.115261
-0.0871741
-0.0776402
-0.0167351
-0.000725146
-0.0243876
-0.081327
-0.162134
-0.157609
-0.146657
-0.146925
-0.123016
-0.124193
-0.261174
-0.261363
-0.245326
-0.21406
-0.203809
-0.22418
-0.216815
-0.245942
-0.214933
-0.18066
-0.161771
-0.199932
-0.18598
-0.218326
-0.141436
-0.139324
-0.154908
-0.154115
-0.247202
-0.248671
-0.232016
-0.212172
-0.222049
-0.193479
-0.20803
-0.230235
-0.258289
-0.228823
-0.225916
-0.224595
-0.228589
-0.258185
-0.0956422
-0.0847396
-0.0963384
-0.110916
-0.0784625
-0.0939686
-0.0801846
-0.116337
-0.112861
-0.112104
-0.136868
-0.140162
-0.191138
-0.172713
-0.187911
-0.151285
-0.167415
-0.186745
-0.0176301
0.00888693
-0.0431515
-0.0449286
-0.0755197
-0.0193682
-0.0409838
-0.0374464
-0.0399597
-0.0204115
-0.0376633
-0.0383141
-0.0141971
-0.066729
-0.0406563
-0.0437226
-0.0396422
0.0494543
0.0626327
0.0741317
0.0384127
0.046422
0.0914324
0.0572931
0.0400934
0.20421
0.00867117
0.0231448
0.00347107
0.0191873
0.0326534
0.0176163
0.0601387
0.0435572
0.0469267
0.166759
0.0135441
-0.0166569
-0.0177074
0.0300033
0.0321037
0.0762686
0.0616476
0.074181
0.0337575
0.0345815
0.0667218
0.0606506
0.0806531
0.239227
0.172501
0.128816
0.127126
0.172142
0.241249
-0.12
-0.100107
-0.110873
-0.230343
-0.218916
-0.210042
-0.148643
-0.127516
-0.126375
-0.12647
-0.128686
-0.148965
-0.270331
-0.272052
-0.178734
-0.200541
0.0474481
0.0406
0.0066604
0.0142704
0.0329599
0.0555696
0.0488023
0.0611449
0.0146839
-0.00463732
0.107263
-0.181468
-0.206125
-0.217408
-0.146012
-0.120141
-0.0872436
-0.154558
-0.128942
-0.156749
-0.142401
-0.121435
-0.126626
-0.112633
-0.120649
-0.140486
-0.142376
-0.155476
-0.147216
-0.165173
-0.163537
-0.150193
-0.14547
-0.141739
-0.130948
-0.2668
-0.246506
-0.242772
-0.225323
-0.224777
-0.244607
-0.239972
-0.251269
-0.124228
-0.120316
-0.136535
-0.146493
-0.155122
-0.158679
-0.15449
-0.167405
-0.165627
-0.162492
-0.166639
-0.152485
-0.226534
-0.258245
-0.241595
-0.235239
-0.239655
-0.20124
-0.211509
-0.223874
-0.257313
-0.247865
-0.244486
-0.24216
-0.244929
-0.254695
-0.124595
-0.126473
-0.118424
-0.176873
-0.164405
-0.153114
-0.140249
-0.12951
-0.145819
-0.108085
-0.123957
-0.13354
-0.000460262
0.00575834
-0.0166397
0.0249653
0.0121721
0.00403642
0.0498036
0.0562032
0.0278324
0.0349478
0.0278575
0.0432903
0.0481549
0.0563704
0.0504239
0.0094614
0.150996
0.0345423
0.0159059
0.00299477
0.00438363
0.0185646
0.00136683
-0.000394712
0.0548367
0.0542126
0.15732
0.0274259
0.0360943
-0.0903635
-0.0865141
0.0199198
0.0284589
0.0203787
0.025576
0.0164407
0.0326679
0.027549
0.0223159
-0.0655719
-0.058307
-0.0232817
-0.0264683
0.0324133
0.0340816
0.0339851
0.0352917
0.0386743
-0.108009
-0.0858286
-0.0467617
-0.126331
-0.0968335
-0.118279
-0.229149
-0.213546
-0.271629
-0.273759
-0.181563
-0.198093
-0.0847101
-0.0797191
-0.089782
-0.0665632
-0.0763887
-0.0791832
-0.103909
-0.113272
-0.092887
-0.100667
0.0286292
0.0363108
0.044331
0.0199651
0.0323343
0.0259003
0.0321453
0.020263
-0.102045
-0.0856026
-0.0976766
-0.0644921
-0.0810058
-0.0981235
-0.11398
-0.120614
-0.101315
-0.111464
-0.0547939
-0.0386974
-0.0589697
-0.0558898
-0.0636724
-0.17994
-0.203211
-0.178161
-0.19277
-0.158104
-0.135454
-0.189245
-0.164228
-0.138919
-0.159138
-0.175814
-0.159465
-0.156446
-0.142941
-0.156713
-0.162384
-0.150762
-0.156297
-0.167676
-0.169143
-0.163228
-0.165546
-0.150068
-0.162361
-0.160153
-0.133925
-0.139277
-0.122738
-0.131554
-0.146387
-0.149231
-0.140742
-0.145317
-0.129995
-0.140439
-0.135793
-0.2665
-0.2585
-0.233255
-0.226607
-0.244405
-0.250353
-0.239687
-0.233918
-0.150866
-0.1569
-0.145015
-0.159633
-0.154159
-0.172244
-0.160344
-0.146981
-0.134714
-0.152396
-0.147816
-0.168199
-0.167532
-0.154051
-0.172019
-0.173353
-0.16957
-0.171959
-0.171868
-0.170523
-0.172953
-0.171959
-0.153699
-0.166946
-0.168029
-0.237331
-0.254767
-0.226664
-0.232423
-0.238629
-0.22529
-0.215431
-0.223617
-0.248836
-0.247218
-0.258224
-0.256011
-0.246928
-0.247514
-0.101575
-0.102804
-0.0946176
-0.0906359
-0.105738
-0.0965314
-0.108497
-0.0805795
-0.0758081
-0.0722071
-0.0878062
-0.0786965
-0.08356
-0.1312
-0.123887
-0.1317
-0.133721
-0.117386
-0.11402
-0.108742
-0.121008
-0.113538
-0.119441
-0.139176
-0.129737
-0.128006
-0.137302
-0.146122
-0.116541
-0.133367
-0.15267
-0.149661
-0.16112
-0.144702
-0.00593695
-0.00656475
-0.0178633
0.013195
-0.00126744
-0.001464
0.0165659
-0.0286785
-0.0206513
-0.0255016
-0.054037
-0.0544364
-0.0633939
-0.0412868
-0.0514941
-0.0506358
-0.053758
-0.0567351
0.0592037
0.070834
0.0407576
0.0420705
0.0716547
0.0585672
-0.00110884
-0.0197276
0.00325912
0.00282526
0.021311
0.0360124
0.31979
0.247064
0.218458
0.225328
0.260077
0.325617
0.0336639
0.0785575
0.0456073
-0.0833192
-0.0973101
-0.116296
-0.232767
-0.246764
-0.248527
-0.268731
-0.271578
-0.107808
-0.0999945
-0.111872
-0.223857
-0.220692
-0.20652
-0.11558
-0.105777
-0.101877
-0.0799704
-0.0612901
-0.0792077
-0.117001
-0.109431
-0.0999471
-0.12833
-0.152163
-0.133286
-0.115045
-0.127097
-0.119206
-0.267549
-0.251145
-0.253576
-0.238618
-0.25679
-0.255617
-0.252933
-0.220914
-0.21637
-0.23014
-0.133832
-0.117448
-0.11116
-0.133551
-0.142112
-0.132594
-0.214159
-0.228373
-0.225761
-0.261823
-0.245784
-0.250536
-0.252217
-0.256293
-0.258745
-0.257893
-0.254014
-0.255626
-0.252096
-0.1234
-0.130837
-0.132389
-0.204656
-0.195852
-0.199836
-0.0902604
-0.0865349
-0.102673
0.0495482
0.0511081
0.0443157
0.0373294
0.0300155
0.0474552
0.0482759
0.0379469
0.0509475
0.0355855
-0.0418357
-0.0373142
-0.0919755
-0.0795481
-0.0809307
-0.0817489
-0.0755031
-0.077098
-0.0786615
-0.042857
-0.0478438
-0.047359
-0.0385522
-0.0355058
-0.0337789
0.0385496
0.0349933
0.033216
0.0892045
0.146908
0.113972
-0.0852468
-0.0853743
-0.0742089
-0.0587346
-0.142489
-0.133785
-0.033923
0.00570724
0.0120104
-0.230098
-0.24128
-0.227578
-0.219432
-0.219673
-0.222632
-0.275119
-0.2738
-0.187799
-0.184145
-0.187126
-0.194171
-0.204784
-0.195862
-0.0896304
-0.0924209
-0.0663227
-0.069334
-0.0731824
-0.0950085
-0.098401
-0.0986327
-0.102086
-0.0915309
-0.0912082
-0.10846
-0.104942
-0.10849
-0.075723
-0.0814585
-0.0883315
-0.126844
-0.12918
-0.111322
-0.116808
-0.119044
-0.00845129
-0.0326664
-0.0464319
-0.0358152
-0.0387823
-0.0359082
-0.0742602
-0.16026
-0.151943
-0.134278
-0.129283
-0.116454
-0.131659
-0.133245
-0.262166
-0.261471
-0.200156
-0.194225
-0.206137
-0.22783
-0.211387
-0.205917
-0.13481
-0.144107
-0.149072
-0.24439
-0.25007
-0.260811
-0.260866
-0.258498
-0.258478
-0.260616
-0.260616
-0.0975883
-0.0986754
-0.0976189
-0.0954081
-0.110543
-0.10818
-0.109824
-0.121059
-0.128282
-0.120422
-0.130499
-0.128959
-0.138645
-0.136597
-0.114639
-0.114796
-0.112495
-0.128265
-0.127917
-0.184465
-0.19045
-0.201587
-0.176214
-0.171552
-0.178009
-0.0561117
-0.0519525
-0.0452451
-0.0674069
-0.0600745
-0.0619405
-0.0279022
-0.0298507
-0.0380909
-0.0174834
-0.0239028
-0.0243381
-0.0608167
-0.0608277
-0.0632838
-0.0463845
-0.0434327
-0.0657845
0.0642417
0.0653965
0.0730659
0.0412219
0.0447566
0.0416795
0.0400328
0.04772
0.0428605
0.0440756
0.0858082
0.0699311
0.0473954
0.0543967
0.0501291
0.129485
0.219372
0.0855833
0.0308894
0.0314043
0.0678837
0.0942495
0.100766
0.0340686
0.0353065
0.0351956
0.0357365
0.0354199
0.0340362
0.098783
0.0889761
0.0737777
0.158051
0.23242
0.199021
-0.245641
-0.245808
-0.23141
-0.224045
-0.213711
-0.20638
-0.228242
-0.224352
-0.270296
-0.271379
-0.184432
-0.186419
-0.175958
-0.180639
-0.203397
-0.21696
-0.213712
0.0441269
0.0463847
0.0495766
0.039861
0.043869
0.0416272
-0.209418
-0.196164
-0.193082
-0.203307
-0.199692
-0.213307
-0.266661
-0.240195
-0.253882
-0.25886
-0.251915
-0.254623
-0.253562
-0.244566
-0.233076
-0.216872
-0.261293
-0.246827
-0.24882
-0.244169
-0.259866
-0.259235
-0.256642
-0.253712
-0.256972
-0.257908
-0.169721
-0.161026
-0.167295
-0.154984
-0.157716
-0.166035
0.052658
0.054207
0.0442678
0.045296
0.0448457
0.0444963
0.0432488
0.0591928
0.0569499
0.0550153
0.0580065
0.058421
0.0520923
0.0543331
0.0530268
0.000379576
-0.0144509
-0.0149463
0.012449
0.121747
0.103198
0.140458
0.0412509
0.059979
0.0817955
0.00780502
0.00888764
0.00511263
0.0160546
0.0127776
0.0116093
-0.005645
-0.00311619
-0.0095578
0.00155768
-0.00142281
-0.00179149
0.0705415
0.0771202
0.0489974
-0.00667189
-0.0218587
0.0199565
0.0117827
-0.0911858
-0.0832379
-0.0826816
-0.0849391
0.0232159
0.0261652
0.0148819
0.0180639
0.0199186
-0.0689752
-0.0736218
-0.0715811
-0.0454563
-0.0393822
-0.0540182
-0.0514875
-0.0558788
-0.0636511
-0.021669
-0.0192133
-0.0207704
-0.0201537
-0.0249765
-0.0133821
-0.0167166
-0.0302435
-0.0323265
-0.0284201
0.036081
0.0366275
0.0361868
0.0372777
0.0369846
0.0371103
-0.100446
-0.0879843
-0.0954638
-0.131075
-0.124755
-0.111346
-0.242319
-0.227891
-0.242734
-0.244794
-0.231434
-0.230637
-0.234951
-0.232886
-0.273666
-0.274664
-0.194105
-0.198518
-0.188837
-0.191444
-0.18429
-0.181013
-0.17812
-0.210929
-0.20788
-0.196075
-0.207775
-0.0792852
-0.0862619
-0.0758254
-0.0724225
-0.0755264
-0.107193
-0.11362
-0.109755
-0.118833
-0.116856
-0.110369
-0.0957305
-0.0938572
-0.0907552
-0.10556
-0.0980637
-0.098056
-0.104284
0.0233015
0.0216074
0.0182755
0.0276066
0.0237641
-0.0968785
-0.0979345
-0.101659
-0.10535
-0.094928
-0.087846
-0.0932444
-0.123301
-0.125075
-0.126033
-0.124006
-0.118407
-0.117521
-0.121104
-0.0578523
-0.049889
-0.0471522
-0.0344883
-0.0720356
-0.0733834
-0.0654712
-0.184639
-0.181462
-0.176129
-0.190844
-0.186809
-0.193338
-0.205233
-0.196362
-0.151497
-0.162134
-0.170448
-0.141749
-0.152621
-0.144225
-0.184196
-0.175382
-0.181277
-0.173528
-0.15869
-0.16134
-0.151649
-0.157443
-0.156283
-0.162783
-0.1615
-0.168221
-0.16863
-0.164117
-0.164873
-0.136222
-0.138331
-0.135969
-0.141556
-0.140125
-0.137879
-0.125003
-0.129515
-0.12791
-0.137118
-0.131093
-0.127446
-0.134731
-0.138561
-0.14745
-0.150605
-0.149391
-0.153045
-0.151953
-0.148474
-0.142098
-0.144195
-0.143182
-0.148413
-0.147174
-0.143985
-0.263618
-0.259619
-0.15766
-0.1587
-0.158573
-0.156497
-0.158076
-0.155833
-0.170973
-0.159174
-0.1608
-0.162453
-0.144897
-0.149462
-0.149609
-0.147959
-0.149588
-0.140279
-0.150705
-0.153324
-0.154868
-0.150358
-0.151567
-0.149082
-0.171956
-0.17209
-0.169851
-0.171751
-0.170921
-0.170386
-0.172489
-0.171497
-0.240857
-0.25215
-0.25876
-0.260914
-0.260431
-0.259017
-0.259952
-0.257487
-0.099293
-0.0961064
-0.0970243
-0.099965
-0.109423
-0.104358
-0.0993108
-0.133961
-0.132214
-0.128814
-0.13069
-0.132338
-0.133848
-0.13746
-0.13981
-0.134573
-0.136677
-0.135375
-0.135745
-0.135478
-0.118024
-0.117188
-0.116177
-0.12755
-0.120092
-0.135924
-0.138087
-0.140835
-0.131836
-0.135086
-0.132966
-0.140675
-0.142775
-0.12141
-0.12854
-0.122362
-0.12913
-0.157036
-0.148677
-0.151875
-0.143239
-0.145588
-0.152699
-0.0117187
-0.0119685
-0.00705716
-0.018811
-0.0158261
-0.0154894
0.00863932
0.00947583
0.0125064
-0.0013158
0.00453761
0.00354825
0.0116864
-0.0297709
-0.0290579
-0.0347698
-0.0314605
-0.0221164
-0.0231374
-0.0213373
-0.028515
-0.0275748
-0.0238031
-0.0554695
-0.058495
-0.0573448
-0.0503409
-0.0603523
0.0563871
0.0593922
0.0422712
0.0420082
0.0380575
0.0420715
0.0415889
0.0419387
0.0424115
0.0435495
0.0644324
0.060458
0.0267361
0.0361973
0.028402
0.0398289
0.0444741
0.0323114
0.0434201
0.0331814
0.0268929
0.0278689
0.0154179
0.0152765
0.0142551
0.0210642
0.0218002
0.0257865
0.0456156
0.0387674
0.0556573
0.0866137
0.050028
0.0858268
0.0449588
0.0358859
0.0322839
0.00754502
0.0130361
0.00204822
-0.00507794
-7.05267e-05
0.00436808
0.00604348
0.0188101
0.00884716
0.0270954
0.0459289
0.0553635
0.0882107
0.0756268
0.136565
0.0945487
0.0768682
0.0292543
0.0131626
0.0193741
-0.0220432
-0.0212184
-0.0118383
-0.0121489
-0.0219753
-0.000269732
-0.00762908
-0.00825429
0.00296674
0.010517
0.0136931
0.0282897
-0.0588428
-0.052934
-0.0258013
-0.0620251
-0.0453131
-0.0328117
-0.0268066
-0.0432395
-0.0285769
-0.0409704
-0.0498906
-0.0412801
-0.0772702
-0.0866094
-0.07821
-0.15403
-0.120247
-0.0978762
-0.091519
-0.0655872
-0.0568266
-0.0312415
-0.0455945
-0.0455762
-0.0551223
-0.0658529
-0.0647412
-0.108212
-0.119208
-0.11832
-0.177462
-0.140308
-0.137735
-0.0933153
-0.0708241
-0.0704041
-0.0245537
-0.0312174
-0.0431467
-0.0459633
-0.0532277
-0.0585333
-0.0881313
-0.0953808
-0.100532
-0.13213
-0.111308
-0.125134
-0.0710811
-0.0599558
-0.0670624
-0.011815
-0.0103095
-0.0260899
-0.0388377
-0.0406797
-0.0488366
-0.0647713
-0.0608772
-0.0803282
-0.0401848
-0.0404653
-0.050676
0.000174392
0.00585334
-0.00551167
-0.00706793
-0.0173166
-0.0280526
-0.0145155
-0.0214508
-0.0304398
0.0073841
0.0109338
0.00803528
0.0158792
0.0270483
0.0264174
0.0334618
0.0443398
0.04886
0.0600718
0.0668309
0.0643915
0.0177275
0.00266908
-0.00638077
-0.0037759
-0.00833279
-0.0141008
0.00975411
0.0130729
0.0125332
0.0162432
0.0206642
0.0254397
0.0220421
0.0225418
0.0384
0.0227092
0.0168219
0.0223026
0.0143564
0.00709158
0.00378008
0.00236254
-0.00213333
-0.00463757
0.0133629
0.0164379
0.018191
0.0136961
0.0191586
0.017895
0.0192003
0.0104859
0.0150675
0.0111652
0.00658234
0.00743165
-0.068658
-0.0577639
-0.0509762
-0.110427
-0.123928
-0.147098
-0.00250876
-0.021992
-0.0268518
-0.116523
-0.113782
-0.102872
-0.185866
-0.206513
-0.212437
-0.153753
-0.172058
-0.149517
-0.105275
-0.109493
-0.100425
-0.176194
-0.195834
-0.185151
-0.213321
-0.214626
-0.192142
-0.056561
-0.0636074
-0.059432
-0.11217
-0.121125
-0.106288
-0.180854
-0.167087
-0.1559
-0.0399773
-0.0385188
-0.0297664
-0.0972924
-0.0868646
-0.0845391
0.0471077
0.0368844
0.0220523
0.0964965
0.0902354
0.0850652
0.0862614
0.0774789
0.0945582
-0.0213278
-0.0129982
-0.0163681
0.0663041
0.0900073
0.052741
0.375228
0.333179
0.34224
0.0829893
0.102213
0.13743
0.368854
0.387305
0.0176381
0.0289022
0.0154351
0.0678255
0.0779977
0.0384265
-0.0311731
-0.0199389
-0.0167306
-0.0244567
-0.0223796
-0.0366314
0.00702067
-0.00735494
-0.0137946
-0.0834273
-0.0907707
-0.119508
0.0497421
0.0263743
0.0192808
-0.0906418
-0.0620617
-0.0739315
-0.0572004
-0.0612614
-0.0771625
-0.0293851
-0.0449281
-0.044343
-0.0617143
-0.0567309
-0.0467259
-0.0856023
-0.0679861
-0.0738238
-0.0492428
-0.0597679
-0.0809329
-0.100253
-0.0939095
-0.0840629
-0.126705
-0.120041
-0.123172
-0.0960302
-0.100856
-0.107027
-0.205533
-0.208813
-0.201882
-0.137269
-0.124197
-0.160804
-0.0988765
-0.113575
-0.120558
-0.0915659
-0.103859
-0.0910265
-0.0625695
-0.0650704
-0.0547946
-0.0968051
-0.077083
-0.0737569
-0.077251
-0.078309
-0.0982592
-0.118007
-0.119086
-0.108195
-0.146776
-0.139587
-0.138348
-0.140237
-0.140965
-0.148511
-0.130381
-0.137466
-0.175011
-0.108091
-0.124239
-0.119995
-0.124645
-0.125873
-0.109312
-0.0397145
-0.0468645
-0.0408956
-0.0670054
-0.0540179
-0.0451707
-0.0686007
-0.061926
-0.0723038
-0.0837618
-0.0897542
-0.083065
-0.108085
-0.0963148
-0.0872121
-0.116989
-0.114097
-0.119069
-0.172355
-0.17042
-0.16747
-0.0871529
-0.104808
-0.123969
-0.0854039
-0.0952283
-0.0845315
-0.113426
-0.105023
-0.0931737
-0.073147
-0.075871
-0.0667545
-0.112706
-0.109638
-0.108421
-0.0403018
-0.051778
-0.0567542
-0.0492483
-0.051048
-0.0405077
-0.0733301
-0.0619744
-0.0584796
0.0161645
0.0198792
0.0245565
-0.0131727
-0.00731603
-0.00924
0.0357707
0.0421993
0.033322
0.0529227
0.0458508
0.0406737
0.0720893
0.07006
0.060922
0.036927
0.0411049
0.0525412
0.0246471
0.0362426
0.030181
0.0388319
0.0374529
0.0231284
-0.0924877
-0.0853873
-0.0909598
-0.0330031
-0.0554526
-0.0727861
-0.0402801
-0.0455068
-0.0318439
-0.0623028
-0.0761775
-0.060938
0.0462496
0.0508064
0.0693759
-0.0479814
-0.0351579
-0.0294792
-0.190085
-0.19802
-0.202103
-0.117243
-0.125781
-0.120559
-0.0861591
-0.104696
-0.0962461
-0.121336
-0.113469
-0.100142
-0.172146
-0.164918
-0.175384
-0.145589
-0.138122
-0.139357
-0.126004
-0.12877
-0.135718
-0.0994983
-0.110179
-0.105643
-0.139249
-0.142528
-0.14066
-0.156795
-0.156152
-0.151545
-0.13912
-0.13752
-0.133993
-0.1942
-0.204171
-0.181075
-0.240354
-0.231609
-0.228159
-0.20342
-0.187841
-0.180575
-0.226985
-0.224322
-0.234148
-0.15937
-0.177061
-0.190677
-0.127874
-0.122993
-0.120048
-0.136727
-0.135069
-0.140904
-0.10349
-0.113107
-0.115956
-0.148151
-0.150419
-0.152012
-0.129591
-0.131393
-0.128927
-0.153744
-0.157758
-0.157196
-0.15378
-0.155127
-0.150862
-0.207603
-0.199385
-0.181516
-0.209478
-0.213367
-0.218506
-0.191379
-0.213857
-0.21004
-0.0925304
-0.0953879
-0.103026
-0.0701244
-0.074114
-0.0700666
-0.124013
-0.127085
-0.12803
-0.105684
-0.110713
-0.104587
-0.118101
-0.118766
-0.115745
-0.165231
-0.16287
-0.160471
-0.142126
-0.126581
-0.121389
-0.151859
-0.147699
-0.153429
-0.112388
-0.118207
-0.120426
-0.210305
-0.203032
-0.20588
-0.1593
-0.16533
-0.172985
-0.147798
-0.162068
-0.147306
-0.0105058
-0.00941693
-0.0150772
0.0186868
0.0150287
0.0121705
-0.0548591
-0.0578033
-0.0645292
-0.0205095
-0.0259544
-0.0262666
-0.026149
-0.0252327
-0.0191445
-0.0636829
-0.0549809
-0.0553734
-0.102212
-0.100658
-0.106542
-0.0653892
-0.0811233
-0.0845875
-0.0752377
-0.0767253
-0.066885
0.0470977
0.0585382
0.0474142
0.0679124
0.0604543
0.0484014
0.0221977
0.0248437
0.0218094
0.0376258
0.0544283
0.0595829
-0.0170128
-0.00158674
-0.00286947
0.00112624
-0.000286027
-0.025352
0.036556
0.0188613
0.0147593
0.122872
0.0936637
0.0836202
-0.0183661
-0.016406
-0.00747522
-0.0356951
-0.0259562
-0.0245359