/*--------------------------------*- C++ -*----------------------------------*\
| =========                 |                                                 |
| \\      /  F ield         | OpenFOAM: The Open Source CFD Toolbox           |
|  \\    /   O peration     | Version:  5.x                                   |
|   \\  /    A nd           | Web:      www.OpenFOAM.org                      |
|    \\/     M anipulation  |                                                 |
\*---------------------------------------------------------------------------*/
FoamFile
{
    version     2.0;
    format      ascii;
    class       surfaceScalarField;
    location    "400";
    object      phi;
}
// * * * * * * * * * * * * * * * * * * * * * * * * * * * * * * * * * * * * * //

dimensions      [0 3 -1 0 0 0 0];

internalField   nonuniform List<scalar> 
13181
(
8.64812e-06
0.00915669
8.30534e-06
0.00916734
7.14828e-06
0.00916766
5.90032e-06
0.00916775
3.92159e-06
0.00916898
-3.53518e-06
0.00917396
-8.11614e-06
0.00917123
-8.65449e-06
0.00916724
-7.12418e-06
0.00916512
-1.93555e-06
0.00916146
7.36226e-06
0.0091574
1.8963e-05
0.00915505
2.95084e-05
0.0091561
3.57752e-05
0.00916043
3.67418e-05
0.00916568
3.33974e-05
0.00916999
2.74203e-05
0.00917268
2.01824e-05
0.00917389
8.75246e-06
0.00917793
-1.04424e-06
0.0091768
-1.36099e-05
0.00917907
-1.87137e-05
0.0091716
-1.97107e-05
0.009168
0.00914526
1.22926e-05
0.00914143
3.50823e-05
0.00914455
3.53696e-05
0.00916737
3.48015e-05
0.00916832
2.87656e-05
0.00917501
9.62239e-06
0.0091931
-1.53314e-05
0.00919618
-2.29682e-05
0.00917488
-2.13064e-05
0.00916346
-1.11628e-05
0.00457555
0.00457577
7.67464e-06
0.00456923
0.00456934
3.20898e-05
0.0045651
0.00456553
5.43362e-05
0.00456644
0.00456742
6.7409e-05
0.00457309
0.00457428
6.91771e-05
0.00458138
0.00458254
5.45093e-05
0.00918466
3.22946e-05
0.00919489
1.02733e-05
0.00919591
-1.27996e-05
0.009201
-2.09039e-05
0.0091849
-2.1535e-05
0.0091797
-2.25434e-05
0.00917261
-5.07944e-07
0.00914596
0.00914092
-3.96907e-06
0.00914058
-9.12475e-07
0.0091415
1.89383e-05
0.00914752
1.69895e-05
0.00917026
1.80864e-05
0.00917392
1.9498e-05
0.00919169
-1.31106e-05
0.00922879
-3.43239e-05
0.00919609
-1.78268e-05
0.00916935
-2.23937e-05
0.00457221
-1.44836e-05
0.00456374
-4.69033e-06
1.01776e-05
-2.52677e-06
0.00455682
1.08078e-05
-1.98128e-05
0.00455793
2.8319e-05
-3.55805e-05
0.00456765
4.10141e-05
-4.38283e-05
0.00458136
4.3847e-05
4.34835e-05
0.00461082
-3.40113e-05
-4.52337e-05
0.00460961
4.93058e-06
0.00923344
-8.08277e-06
0.00920892
-6.94159e-06
0.00919986
-8.4552e-06
0.00918641
-1.00099e-05
0.00918125
7.42206e-06
0.00915518
8.31183e-06
0.00914507
0.00914313
-9.91036e-06
0.00914387
-1.28606e-05
0.00914445
-1.33141e-05
0.00914797
4.20735e-07
0.00915653
-4.08867e-06
0.00917843
-3.67079e-06
0.00919127
-7.75045e-06
0.00923287
-2.74299e-05
0.00921577
-3.31836e-05
0.00461426
-3.60998e-05
0.00459694
0.00456656
-2.92548e-05
-0.00457049
0.0045489
-1.59922e-05
-0.00455697
2.40612e-05
4.09389e-06
0.00453023
1.11845e-05
-0.0045455
-2.83575e-05
0.00452963
4.47822e-05
-0.00454605
-5.69349e-05
0.00456301
5.57531e-05
-0.00456183
-3.86444e-05
0.00461202
1.73384e-05
-0.00459072
-3.18223e-06
0.00461393
6.37466e-08
3.26575e-05
0.00461339
-1.40575e-05
-2.71535e-06
0.00460417
2.57347e-05
0.00921585
1.72128e-05
0.00920838
6.40663e-06
0.00919722
1.78428e-05
0.00916982
1.71207e-05
0.0091559
1.18367e-05
0.00915036
0.00914689
-1.18099e-05
0.0091475
-1.64688e-05
0.00914911
-2.19184e-05
0.00915342
-2.38603e-05
0.00915847
-1.73707e-05
0.00917194
-2.07114e-05
0.00919461
1.27764e-05
0.00919939
2.11565e-05
0.00458915
8.97556e-06
0.00460927
0.00464148
-6.06511e-06
0.00457346
-3.16802e-05
-0.00456716
2.53782e-05
0.00454554
-3.80924e-05
-0.00454191
3.44587e-05
2.15176e-05
5.67578e-06
-0.00450985
0.00224105
0.00224161
-3.89305e-05
7.13816e-05
-0.00450713
0.00223739
0.00223729
-8.18955e-05
4.58407e-05
-0.00458082
0.00230235
0.00231452
-5.60564e-05
0.00461281
5.70099e-05
-0.00461376
-4.83198e-05
0.00462212
4.81878e-05
-0.00462199
-4.59339e-05
0.00461463
4.46902e-05
5.11743e-05
0.009244
-4.24878e-05
-3.68384e-05
3.11487e-05
0.00922841
3.30313e-05
0.00919534
2.76432e-05
0.0091752
1.95049e-05
0.00916404
1.36942e-05
0.00915617
0.00915113
-1.29295e-05
0.0091511
-1.7856e-05
0.00915403
-2.42597e-05
0.00915983
-3.32055e-05
0.00916742
-3.8441e-05
0.00917717
-4.13221e-05
0.00919749
-2.59577e-05
0.00921859
-3.45684e-05
0.00459815
-3.49649e-05
0.00460319
2.55589e-06
-0.00463543
2.96828e-05
0.00457929
2.2308e-05
-0.00458239
-1.92136e-05
-0.00228169
-1.83308e-06
0.00228678
-3.25931e-06
-0.00222788
1.2106e-05
0.00222946
-1.36829e-05
-0.00221403
-2.44621e-05
0.00220092
3.75707e-05
-0.00229186
-3.11129e-05
0.00226364
5.93332e-05
-4.34489e-05
0.000107547
-0.00462027
-4.74068e-05
0.00229755
0.00230602
-0.00010302
0.00463887
8.82972e-05
-0.00462415
-7.2101e-05
-0.00462516
0.00463888
5.83857e-05
6.47116e-05
0.00928046
-5.27021e-05
-4.84674e-05
5.12917e-05
0.00924183
4.0068e-05
0.00920656
2.81267e-05
0.00918714
2.00858e-05
0.00917208
1.40529e-05
0.0091622
0.00915522
-1.35904e-05
0.00915477
-1.8725e-05
0.00915917
-2.48232e-05
0.00916592
-3.31667e-05
0.00917576
-4.52378e-05
0.00918924
-5.6722e-05
0.00920898
-3.72484e-05
0.00923646
-3.73492e-05
-0.00460711
0.00461687
-4.7005e-05
-0.00460467
0.00461967
-7.4252e-05
5.92522e-05
-0.00458964
0.00461397
9.35528e-05
-5.55432e-05
-6.23363e-05
-0.0022739
5.64911e-05
0.00227466
-5.72466e-05
-0.00111007
1.87327e-05
0.00110594
-1.45962e-05
-1.51783e-05
-0.00105603
0.00105038
2.08282e-05
-4.92236e-05
-0.00228326
9.6065e-05
-3.55891e-05
0.00112301
0.00114899
-0.000106902
-0.00231237
0.00232486
9.44162e-05
-0.000141036
-0.00466323
0.00469268
0.000111579
-8.77427e-05
-0.00465461
0.00467389
6.84569e-05
7.34104e-05
0.00931161
-5.17589e-05
-5.28095e-05
5.42139e-05
0.00926103
3.64154e-05
0.00922436
2.47248e-05
0.00919884
1.70086e-05
0.0091798
1.16819e-05
0.00916753
0.00915747
-1.27245e-05
0.00915763
-1.74819e-05
0.00916392
-2.29346e-05
0.00917138
-3.13059e-05
0.00918413
-4.24785e-05
0.00920042
-5.87589e-05
0.00922526
-3.6161e-05
0.009255
-4.11356e-05
-0.00462728
0.00463827
-4.71432e-05
-0.00463916
0.00465837
-8.08395e-05
6.16377e-05
-0.00464823
0.00468632
0.000107522
-7.12468e-05
-7.43648e-05
-0.00230994
9.95761e-05
0.00233038
-0.000120014
-0.00112338
0.000105098
0.00113701
-0.000118736
-0.000146042
-0.00116228
0.00117647
0.000131859
-0.000147352
-0.00237179
0.00239392
0.000125215
-0.000161991
-0.00473099
0.00476833
0.000124649
-9.68697e-05
-0.00469677
0.00471693
7.67082e-05
6.7809e-05
0.00935719
-5.33578e-05
-6.00322e-05
3.89672e-05
0.00928987
2.55657e-05
0.00923776
1.67873e-05
0.00920761
1.17459e-05
0.00918484
9.06347e-06
0.00917021
0.00915882
-1.14278e-05
0.00915991
-1.4298e-05
0.00916679
-1.83464e-05
0.00917542
-2.34148e-05
0.0091892
-3.04391e-05
0.00920744
-4.03728e-05
0.00923519
-3.11287e-05
0.00927112
-2.53604e-05
-0.00464131
0.00465029
-4.01066e-05
-0.00468108
0.00469626
-7.07643e-05
5.55835e-05
-0.00472377
0.00475142
9.04223e-05
-6.20966e-05
-5.59695e-05
-0.00238982
8.72599e-05
0.00240556
-0.000103003
-0.00122621
9.10655e-05
0.00123507
-9.99202e-05
-0.000120305
-0.0012783
0.00128907
0.000109534
-0.000110512
-0.00245525
0.00247298
9.2784e-05
-0.000109169
-0.00480301
0.00482878
8.3402e-05
-6.36184e-05
-0.0047347
0.00474787
5.04482e-05
4.63375e-05
0.00937595
-2.67509e-05
-3.83439e-05
2.22922e-05
0.00931391
9.39734e-06
0.00925066
5.9494e-06
0.00921106
4.20232e-06
0.00918659
3.41342e-06
0.009171
0.00915733
-8.96707e-06
0.00916098
-1.11797e-05
0.00916901
-1.29121e-05
0.00917716
-1.5461e-05
0.00919175
-1.71051e-05
0.00920909
-1.90812e-05
0.00923717
-1.38164e-05
0.00927285
-7.001e-06
-0.00465826
0.00466621
-2.17669e-05
-0.00470589
0.00470955
-2.88167e-05
2.5155e-05
-0.00476793
0.00477173
3.21486e-05
-2.21573e-05
-1.37865e-05
-0.00243481
2.90837e-05
0.00243778
-3.20453e-05
-0.00126883
2.43153e-05
0.0012699
-2.53839e-05
-2.10796e-05
-0.0013297
0.0013307
2.00864e-05
-2.18145e-05
-0.00250363
0.00250623
1.92117e-05
-1.66966e-05
-0.00484313
0.00484466
1.51653e-05
-1.3798e-05
-0.00475603
0.00475828
1.15438e-05
9.67652e-06
0.00937179
2.70029e-06
-8.21594e-06
1.26139e-05
0.00931097
-3.18563e-06
0.00926646
-7.37579e-06
0.00921525
-4.2593e-06
0.00918347
-2.27136e-06
0.00916901
0.00915387
-6.73e-06
0.00916144
-7.30624e-06
0.00916958
-7.2964e-06
0.00917715
-5.94212e-06
0.0091904
-4.50052e-06
0.00920764
1.64214e-06
0.00923102
3.00173e-06
0.0092647
6.79551e-06
-0.00466877
0.00466926
2.51421e-06
-0.00470733
0.00469964
1.50757e-05
-7.38969e-06
-0.00476333
0.00474536
-2.74632e-05
1.90612e-05
2.63731e-05
-0.0024275
-3.02983e-05
0.00241876
3.90321e-05
-0.00125319
-3.82253e-05
0.00124828
4.3132e-05
7.13988e-05
-0.00130308
0.00129535
-6.36649e-05
6.53619e-05
-0.00249033
0.00247918
-5.42036e-05
7.16708e-05
-0.00483423
0.00481454
-5.19876e-05
3.61426e-05
-0.00475369
0.004744
-2.64504e-05
-2.62131e-05
0.00934915
2.82528e-05
2.05982e-05
-1.05117e-05
0.00929527
-1.38982e-06
0.00925733
-2.02736e-05
0.00923414
-1.39953e-05
0.00917719
-8.33647e-06
0.00916335
0.00914864
-4.11213e-06
0.00916102
-2.85602e-06
0.00916833
-1.11136e-06
0.0091754
2.24655e-06
0.00918704
8.73479e-06
0.00920116
2.03678e-05
0.00921939
1.50017e-05
0.00925184
1.82253e-05
-0.00466354
0.00465726
2.12858e-05
-0.00468835
0.00467503
4.42839e-05
-3.09655e-05
-0.00472053
0.00469329
-6.347e-05
4.42959e-05
4.64177e-05
-0.00238281
-6.45582e-05
0.0023692
7.81646e-05
-0.00120276
-7.06343e-05
0.00119503
7.83658e-05
0.00010997
-0.00123276
0.00122386
-0.000101072
0.000112091
-0.00243326
0.00241646
-9.52858e-05
0.000125551
-0.00478615
0.00475296
-9.23598e-05
6.98493e-05
-0.00472989
0.00471357
-5.3531e-05
-4.98798e-05
0.00931326
4.45716e-05
4.1202e-05
-2.76481e-05
0.00927304
-1.27099e-05
0.0092424
-5.34237e-06
0.00922677
-2.23989e-05
0.00919425
-1.46199e-05
0.00915557
0.00914157
-1.93206e-06
0.00916006
1.72557e-07
0.00916622
2.90451e-06
0.00917267
8.02488e-06
0.00918192
1.54628e-05
0.00919372
2.83853e-05
0.00920647
2.28224e-05
0.00923384
2.35613e-05
-0.00464932
0.00464155
3.05904e-05
-0.00466099
0.0046479
5.29598e-05
-3.98726e-05
-0.00466636
0.00464311
-7.02781e-05
4.77174e-05
4.58116e-05
-0.00233072
-6.5567e-05
0.0023202
7.60793e-05
-0.0011462
-6.18604e-05
0.00114163
6.64298e-05
0.000100388
-0.00116301
0.00115528
-9.26598e-05
0.000110629
-0.00236786
0.00235391
-9.66773e-05
0.000129978
-0.00471712
0.00468764
-0.000100488
7.85333e-05
-0.00469693
0.00468098
-6.25822e-05
-5.85374e-05
0.00927693
4.71311e-05
4.7731e-05
-3.47927e-05
0.0092493
-1.82326e-05
0.00922584
-1.47747e-05
0.00922331
-2.56807e-05
0.00920515
-2.01002e-05
0.00914999
0.00913324
1.40709e-07
0.0091584
2.08371e-06
0.00916428
5.56926e-06
0.00916919
1.02943e-05
0.00917719
1.74111e-05
0.0091866
2.77294e-05
0.00919615
4.12051e-05
0.00922037
3.59023e-05
0.00925145
2.66915e-05
-0.00463472
-0.00463811
-0.00463703
0.0046297
4.32319e-05
-0.00462505
0.00463188
3.84445e-05
-4.52666e-05
-0.00230573
-7.32139e-06
0.00233119
-1.8137e-05
-0.00114941
3.56677e-05
0.00113122
-1.74776e-05
-0.000313448
9.33633e-06
0.000323651
-1.95397e-05
3.72285e-05
-0.00112402
0.00226045
-7.68771e-05
3.20905e-05
-0.00112888
-0.00232429
7.68159e-05
0.00231995
-7.24752e-05
9.77395e-05
-0.00466513
0.00464815
-8.07595e-05
6.62831e-05
-0.00466908
0.00466486
-6.2067e-05
-5.42597e-05
0.00924985
3.82676e-05
4.30713e-05
-3.39069e-05
0.00922894
-1.90973e-05
0.00921103
-3.00119e-05
0.00923422
-2.42483e-06
0.00917757
-2.19646e-05
0.00916953
0.00912678
5.69879e-07
0.00915735
2.42867e-06
0.00916242
5.10132e-06
0.00916651
8.64333e-06
0.00917365
1.43684e-05
0.00918088
1.98861e-05
0.00919063
1.41505e-05
0.0092261
-6.42709e-06
0.00930057
-2.85474e-05
-0.00463925
0.00465714
-2.4321e-05
-0.00464221
0.00462234
-2.76645e-06
2.2628e-05
-0.00229765
-1.66948e-05
0.00229387
2.04714e-05
-0.0022634
-1.13228e-05
0.00227021
4.51391e-06
-0.000888324
3.2316e-05
0.00188794
-5.73169e-05
-0.000974615
-0.00228878
6.55246e-05
0.00228326
-5.99965e-05
-0.004613
7.17879e-05
0.00462371
-0.000130623
4.81185e-05
0.000121733
-0.00463891
0.004627
-0.000109821
-0.000136108
0.00923978
6.86321e-05
0.000100641
-0.00468019
-0.00459275
-0.000108209
0.00922196
-8.6983e-05
0.00920772
-6.78072e-05
0.00919185
-1.25687e-05
0.00917899
-2.26147e-06
0.00916726
5.87577e-06
0.00916139
0.00915123
9.28563e-07
0.00915658
1.90962e-06
0.00916144
3.42858e-06
0.00916499
5.89699e-06
0.00917118
8.29107e-06
0.00917848
6.79821e-06
0.00919213
-1.71528e-05
0.00925005
-2.87515e-05
0.00930287
9.30195e-06
-0.00465368
0.00462472
2.10423e-07
-0.00460977
0.0046093
1.58868e-05
-1.54197e-05
-0.00459541
0.00460387
4.10688e-06
-1.25673e-05
-0.00228535
2.83594e-06
0.00228842
-5.91272e-06
-0.00193799
2.31586e-05
0.0019568
-4.19727e-05
-0.00228258
4.0798e-05
0.00457765
-9.02103e-05
-0.00228465
3.89999e-05
-0.00461484
0.000100185
0.00460842
-9.37694e-05
-0.00461967
8.90378e-05
0.00461345
-8.2821e-05
-0.000101498
0.00920265
6.475e-05
7.38746e-05
-7.20782e-05
0.00919254
-6.1128e-05
0.00919677
-5.48294e-05
0.00918555
-4.81632e-05
0.00917232
-4.05559e-05
0.00915965
-3.01301e-05
0.00915097
0.00914201
3.29591e-07
0.00915673
1.27757e-06
0.00916049
2.00053e-06
0.00916427
2.79603e-06
0.00917039
2.87576e-06
0.0091784
-7.85987e-06
0.00920286
-2.40657e-05
0.00926626
6.83215e-06
0.00927197
4.74328e-06
0.00924139
-0.00462337
-0.00461726
1.32374e-06
-0.00461181
0.00461302
3.53046e-06
-0.00461087
0.00461674
-5.59519e-06
-2.75977e-07
-0.00458739
1.36616e-05
0.00459086
-1.71358e-05
-0.00417281
3.62126e-05
0.00419521
-5.8616e-05
-0.00458732
6.34621e-05
0.00459168
-6.78211e-05
-0.00460322
6.79131e-05
0.00460076
-6.54483e-05
-0.00460932
6.37422e-05
0.00460635
-6.07717e-05
-9.83436e-05
0.00919094
5.36344e-05
5.64206e-05
-8.20344e-05
0.00917623
-6.49816e-05
0.00917972
-4.73688e-05
0.00916794
-3.15812e-05
0.00915653
-2.46798e-05
0.00915275
-2.23003e-05
0.00914859
0.00914235
-9.70115e-08
0.00915733
-2.34302e-07
0.00916063
-8.08153e-07
0.00916484
-1.08182e-06
0.00917066
-5.02797e-06
0.00918235
-2.68012e-05
0.00922463
-2.59061e-05
0.00926536
-3.73424e-06
0.0092498
-9.29891e-06
0.00924695
-8.75627e-06
0.0092424
-0.00461492
-0.00461613
-1.18988e-05
-0.00462199
0.00462608
-1.28466e-05
-0.00459001
2.04295e-05
0.00457883
-9.2523e-06
-0.00421481
3.24661e-05
0.004238
-5.56498e-05
-0.00459626
4.46311e-05
0.00460059
-4.89624e-05
-9.53455e-05
0.00920223
-0.00460067
-0.00460084
4.54417e-05
4.91829e-05
-9.22837e-05
0.00920434
-0.00460429
-0.00460311
-8.44983e-05
0.00918315
-7.74329e-05
0.00916916
-6.26329e-05
0.00916492
-4.97501e-05
0.00915506
-3.88617e-05
0.00914564
-2.99405e-05
0.00914383
-1.75416e-05
0.00913619
0.00914845
-7.39735e-07
0.00915838
-1.93629e-06
0.00916183
-2.71469e-06
0.00916562
-3.86222e-06
0.00917181
-6.935e-06
0.00918542
-2.34424e-05
0.00924114
-1.51665e-05
0.00925709
-6.64917e-06
0.00924128
-1.42569e-05
0.00925456
-2.4262e-05
0.00925241
-3.13049e-05
0.00926571
-0.00463255
-0.00462613
-5.50051e-05
0.00884067
-0.00453185
-0.00428513
-7.75947e-05
0.00882369
-0.00428603
-0.00451507
-8.05395e-05
0.00922158
-0.00460675
-0.00461189
-8.04331e-05
0.00920213
-7.87319e-05
0.00920264
-7.33223e-05
0.00917775
-6.78273e-05
0.00916367
-5.72608e-05
0.00915435
-4.81701e-05
0.00914597
-4.15055e-05
0.00913898
-3.10098e-05
0.00913333
-2.21658e-05
0.00912734
0.00915043
-1.51176e-06
0.00915983
-2.69831e-06
0.00916301
-4.56375e-06
0.00916749
-6.38507e-06
0.00917363
-9.75822e-06
0.00918879
-1.90191e-05
0.0092504
-1.44139e-05
0.00925248
-1.14874e-05
0.00923836
-1.71643e-05
0.00926023
-2.56778e-05
0.00926092
-3.1706e-05
0.00927174
-4.64654e-05
0.00885543
-6.0634e-05
0.00883786
-6.52565e-05
0.0092262
-6.83676e-05
0.00920524
-6.77168e-05
0.00920199
-6.42408e-05
0.00917427
-5.98422e-05
0.00915927
-5.23231e-05
0.00914683
-4.50687e-05
0.00913871
-3.84251e-05
0.00913234
-3.06793e-05
0.00912559
-2.33801e-05
0.00912005
0.00915127
-2.35274e-06
0.00916162
-4.44975e-06
0.00916511
-6.77599e-06
0.00916981
-9.09723e-06
0.00917595
-1.15044e-05
0.0091912
-1.4729e-05
0.00925363
-1.43558e-05
0.00925211
-1.46214e-05
0.00923862
-1.94573e-05
0.00926507
-2.67537e-05
0.00926822
-3.07362e-05
0.00927572
-4.13363e-05
0.00886603
-5.1528e-05
0.00884805
-5.50811e-05
0.00922976
-5.88609e-05
0.00920902
-5.86695e-05
0.0092018
-5.64422e-05
0.00917204
-5.34155e-05
0.00915624
-4.7956e-05
0.00914137
-4.21484e-05
0.0091329
-3.62895e-05
0.00912648
-2.96463e-05
0.00911894
-2.33137e-05
0.00911371
0.00915191
-3.22343e-06
0.00916368
-5.6429e-06
0.00916753
-7.80992e-06
0.00917198
-1.04848e-05
0.00917863
-1.32263e-05
0.00919394
-1.42215e-05
0.00925462
-1.59479e-05
0.00925384
-1.98585e-05
0.00924253
-2.08154e-05
0.00926603
-2.6879e-05
0.00927428
-2.99939e-05
0.00927884
-3.74732e-05
0.00887351
-4.45043e-05
0.00885508
-4.78665e-05
0.00923312
-5.1203e-05
0.00921235
-5.12983e-05
0.00920189
-4.99947e-05
0.00917074
-4.80213e-05
0.00915427
-4.32357e-05
0.00913658
-3.9548e-05
0.00912922
-3.37465e-05
0.00912068
-2.85426e-05
0.00911374
-2.35624e-05
0.00910873
0.0091518
-4.60248e-06
0.00916646
-6.25926e-06
0.00916919
-9.16733e-06
0.00917489
-1.15753e-05
0.00918103
-1.44974e-05
0.00919686
-1.56264e-05
0.00925575
-1.74908e-05
0.0092557
-2.11686e-05
0.00924621
-2.14541e-05
0.00926631
-2.64659e-05
0.00927929
-2.89029e-05
0.00928128
-3.42723e-05
0.00887888
-3.91409e-05
0.00885995
-4.21408e-05
0.00923612
-4.50649e-05
0.00921528
-4.52606e-05
0.00920209
-4.44764e-05
0.00916995
-4.2571e-05
0.00915236
-3.96533e-05
0.00913367
-3.63336e-05
0.0091259
-3.13747e-05
0.00911572
-2.69548e-05
0.00910932
-2.22156e-05
0.00910399
0.00915232
-4.97409e-06
0.00916889
-7.80135e-06
0.00917201
-1.03596e-05
0.00917745
-1.2912e-05
0.00918359
-1.59049e-05
0.00919986
-1.65655e-05
0.00925641
-1.85e-05
0.00925764
-2.18742e-05
0.00924958
-2.41657e-05
0.0092686
-2.59242e-05
0.00928105
-2.7671e-05
0.00928302
-3.15833e-05
0.00888279
-3.49662e-05
0.00886333
-3.76027e-05
0.00923876
-4.00935e-05
0.00921777
-4.03329e-05
0.00920233
-3.98469e-05
0.00916947
-3.84449e-05
0.00915096
-3.56696e-05
0.00913089
-3.29993e-05
0.00912323
-2.97122e-05
0.00911243
-2.59251e-05
0.00910553
-2.23068e-05
0.00910038
0.00915189
-5.83918e-06
0.0091714
-8.26962e-06
0.00917444
-1.14115e-05
0.00918059
-1.40384e-05
0.00918621
-1.65256e-05
0.00920234
-1.71539e-05
0.00925704
-1.91822e-05
0.00925966
-2.2226e-05
0.00925263
-2.5203e-05
0.00927158
-2.51821e-05
0.00928103
-2.6443e-05
0.00928428
-2.91058e-05
0.00888546
-3.16747e-05
0.0088659
-3.36578e-05
0.00924074
-3.59709e-05
0.00922008
-3.62222e-05
0.00920258
-3.60281e-05
0.00916927
-3.5023e-05
0.00914996
-3.32092e-05
0.00912908
-3.10278e-05
0.00912104
-2.72798e-05
0.00910868
-2.40002e-05
0.00910225
-2.08904e-05
0.00909727
0.00915192
-6.6965e-06
0.00917396
-9.17895e-06
0.00917693
-1.1844e-05
0.00918326
-1.44933e-05
0.00918886
-1.74327e-05
0.00920528
-1.79895e-05
0.0092576
-1.95532e-05
0.00926123
-2.23201e-05
0.00925539
-2.49583e-05
0.00927422
-3.02469e-05
0.00928632
-2.95233e-05
0.00928356
-3.08216e-05
0.00888675
-3.16524e-05
0.00886673
-3.33266e-05
0.00924241
-3.4866e-05
0.00922162
-3.50483e-05
0.00920276
-3.51458e-05
0.00916937
-3.46739e-05
0.00914948
-3.41917e-05
0.0091286
-2.98849e-05
0.00911674
-2.65591e-05
0.00910536
-2.31769e-05
0.00909887
-1.998e-05
0.00909407
0.0091518
-7.54803e-06
0.00917652
-1.00388e-05
0.00917942
-1.21852e-05
0.0091854
-1.53216e-05
0.009192
-1.76771e-05
0.00920764
-1.86429e-05
0.00925856
-1.98066e-05
0.00926239
-2.23118e-05
0.0092579
-2.71491e-05
0.00927906
-3.15638e-05
0.00929073
-3.20332e-05
0.00928403
-3.36087e-05
0.00888833
-3.48693e-05
0.00886799
-3.66911e-05
0.00924424
-3.8116e-05
0.00922305
-3.82178e-05
0.00920286
-3.80868e-05
0.00916924
-3.68332e-05
0.00914823
-3.55901e-05
0.00912735
-3.40011e-05
0.00911515
-3.14723e-05
0.00910283
-2.93703e-05
0.00909677
-2.64899e-05
0.00909119
0.00914402
-8.39335e-06
0.00917903
-1.08583e-05
0.00918188
-1.34574e-05
0.009188
-1.55481e-05
0.00919409
-1.78071e-05
0.0092099
-1.86704e-05
0.00925943
-2.00081e-05
0.00926373
-2.46982e-05
0.00926259
-2.88219e-05
0.00928318
-3.10628e-05
0.00929297
-3.11348e-05
0.0092841
-3.23022e-05
0.0088895
-3.31249e-05
0.00886882
-3.45861e-05
0.0092457
-3.57933e-05
0.00922425
-3.58735e-05
0.00920294
-3.57319e-05
0.0091691
-3.49933e-05
0.00914749
-3.34139e-05
0.00912577
-3.19956e-05
0.00911373
-3.01906e-05
0.00910102
-2.78025e-05
0.00909438
-2.56496e-05
0.00908904
0.00913594
-9.2318e-06
0.00918147
-1.11406e-05
0.00918379
-1.36652e-05
0.00919053
-1.56995e-05
0.00919612
-1.83562e-05
0.00921256
-1.91211e-05
0.00926019
-2.25158e-05
0.00926712
-2.70623e-05
0.00926714
-2.87691e-05
0.00928489
-3.05832e-05
0.00929479
-3.05209e-05
0.00928404
-3.1275e-05
0.00889025
-3.17182e-05
0.00886926
-3.30108e-05
0.00924699
-3.39912e-05
0.00922523
-3.39898e-05
0.00920294
-3.38065e-05
0.00916892
-3.30457e-05
0.00914673
-3.20595e-05
0.00912479
-3.02511e-05
0.00911192
-2.81121e-05
0.00909888
-2.68522e-05
0.00909312
-2.43669e-05
0.00908655
0.00912799
-9.55573e-06
0.00918329
-1.23936e-05
0.00918663
-1.43223e-05
0.00919245
-1.6795e-05
0.0091986
-1.83442e-05
0.0092141
-2.20376e-05
0.00926389
-2.57525e-05
0.00927084
-2.72286e-05
0.00926861
-2.87791e-05
0.00928644
-3.0351e-05
0.00929636
-3.00061e-05
0.0092837
-3.05193e-05
0.00889076
-3.06134e-05
0.00886935
-3.17052e-05
0.00924808
-3.25888e-05
0.00922612
-3.24436e-05
0.0092028
-3.22517e-05
0.00916872
-3.14329e-05
0.00914591
-3.05029e-05
0.00912386
-2.87493e-05
0.00911017
-2.72117e-05
0.00909735
-2.50356e-05
0.00909095
-2.31468e-05
0.00908466
0.0091201
-1.08607e-05
0.00918549
-1.26031e-05
0.00918837
-1.44252e-05
0.00919428
-1.68334e-05
0.009201
-2.18081e-05
0.00921908
-2.79438e-05
0.00927002
-2.60165e-05
0.00926891
-2.73832e-05
0.00926998
-2.8776e-05
0.00928783
-3.02329e-05
0.00929782
-2.9807e-05
0.00928327
-3.00318e-05
0.00889099
-2.99368e-05
0.00886926
-3.08386e-05
0.00924898
-3.14388e-05
0.00922672
-3.12881e-05
0.00920265
-3.10281e-05
0.00916846
-3.01207e-05
0.009145
-2.8717e-05
0.00912245
-2.79673e-05
0.00910942
-2.59965e-05
0.00909537
-2.43407e-05
0.00908929
-2.25008e-05
0.00908282
0.00911171
-1.11209e-05
0.00918702
-1.32678e-05
0.00919052
-1.54702e-05
0.00919648
-1.68173e-05
0.00920235
-3.17623e-05
0.00923402
-2.77871e-05
0.00926605
-2.63323e-05
0.00926746
-2.76468e-05
0.00927129
-2.89797e-05
0.00928916
-3.03011e-05
0.00929914
-2.9802e-05
0.00928277
-2.98185e-05
0.00889101
-2.94834e-05
0.00886892
-3.02316e-05
0.00924973
-3.07114e-05
0.0092272
-3.0379e-05
0.00920232
-3.0046e-05
0.00916813
-2.90734e-05
0.00914403
-2.81728e-05
0.00912155
-2.64039e-05
0.00910765
-2.54607e-05
0.00909443
-2.32855e-05
0.00908711
-2.14545e-05
0.00908099
0.00910326
-1.23171e-05
0.00918885
-1.33658e-05
0.00919157
-1.54337e-05
0.00919855
-2.58059e-05
0.00921272
-3.25944e-05
0.00924081
-2.86188e-05
0.00926207
-2.65859e-05
0.00926542
-2.79191e-05
0.00927263
-2.92371e-05
0.00929048
-3.05875e-05
0.00930049
-3.00442e-05
0.00928223
-2.99015e-05
0.00889086
-2.94611e-05
0.00886848
-2.99141e-05
0.00925018
-3.02224e-05
0.00922751
-2.97782e-05
0.00920187
-2.93837e-05
0.00916774
-2.82602e-05
0.00914291
-2.73716e-05
0.00912066
-2.60335e-05
0.00910631
-2.41246e-05
0.00909252
-2.23795e-05
0.00908537
-2.0038e-05
0.00907865
0.00909518
-1.24062e-05
0.00918995
-1.43862e-05
0.00919355
-1.57998e-05
0.00919996
-2.86964e-05
0.00922562
-3.18374e-05
0.00924395
-2.84191e-05
0.00925865
-2.68582e-05
0.00926386
-2.82449e-05
0.00927401
-2.95875e-05
0.00929182
-3.11099e-05
0.00930201
-3.07532e-05
0.00928187
-3.03174e-05
0.00889043
-2.97459e-05
0.00886791
-2.98619e-05
0.0092503
-2.99964e-05
0.00922764
-2.93386e-05
0.00920121
-2.89146e-05
0.00916731
-2.76471e-05
0.00914164
-2.67994e-05
0.00911982
-2.5353e-05
0.00910486
-2.39826e-05
0.00909115
-2.16333e-05
0.00908302
-1.9766e-05
0.00907678
0.00908644
-1.28068e-05
0.00919079
-1.42917e-05
0.00919503
-1.54938e-05
0.00920116
-2.54888e-05
0.00923561
-3.04296e-05
0.00924889
-2.92138e-05
0.00925744
-2.69678e-05
0.00926162
-2.86658e-05
0.00927571
-3.00086e-05
0.00929317
-3.19965e-05
0.009304
-3.2055e-05
0.00928193
-3.11565e-05
0.00888953
-3.04465e-05
0.0088672
-3.00733e-05
0.00924993
-3.00589e-05
0.00922763
-2.90297e-05
0.00920018
-2.8757e-05
0.00916704
-2.76871e-05
0.00914057
-2.64967e-05
0.00911863
-2.48464e-05
0.00910321
-2.31089e-05
0.00908941
-2.15663e-05
0.00908148
-1.92425e-05
0.00907446
0.00907747
-1.35631e-05
-1.50842e-05
-1.55777e-05
-2.06865e-05
-2.33961e-05
-2.94534e-05
-2.70586e-05
-2.89951e-05
-3.0273e-05
-3.30023e-05
-3.39101e-05
-3.24269e-05
-3.15605e-05
-3.04133e-05
-3.0137e-05
-2.88337e-05
-2.86815e-05
-2.6863e-05
-2.63512e-05
-2.44885e-05
-2.33935e-05
-2.06737e-05
-1.93953e-05
9.81115e-05
-0.000107957
-0.00121637
0.00128508
0.000129961
-0.00127147
-7.05845e-05
-7.29852e-05
-0.00115261
-0.000161834
0.0011684
3.33451e-05
-3.52326e-05
-0.00126694
0.00133986
3.44115e-05
-0.001338
-1.6782e-05
-1.948e-05
0.00129695
-6.50154e-05
-6.71557e-05
-3.17285e-05
3.62292e-05
-0.00125769
0.00130836
-6.24533e-05
-0.00131578
3.59461e-05
3.39243e-05
0.00134024
-9.40629e-06
-1.20561e-05
-6.8625e-05
7.60866e-05
-0.00121023
0.00123309
-0.000108605
-0.00124321
0.000118727
0.00130028
4.06476e-05
3.88271e-05
-6.46356e-05
7.03005e-05
-0.00115187
0.00115671
-0.000103843
-0.00116548
0.000112616
0.000120569
0.00122249
3.76263e-05
-5.26648e-05
-0.00113438
-9.36373e-06
0.000314551
-1.53028e-06
-0.000161066
-0.00014259
-2.48469e-05
-0.000129355
-0.000168609
0.00111624
-5.54162e-05
-0.00111516
5.43439e-05
0.000107552
0.00114955
9.86495e-05
-0.00010899
-0.00111304
-0.00104901
-2.69247e-06
0.00103652
0.000135637
-0.00113907
-0.000149179
-0.00111285
-5.51549e-05
0.00111878
9.70763e-05
-0.000115855
-0.00237104
0.0012214
-0.00121261
8.93263e-05
-0.00113531
9.45081e-05
0.0011459
0.000310452
0.000124351
-0.00061299
0.000311721
-6.59873e-05
-6.75467e-05
0.000113865
-0.000539483
-0.000123684
0.000549302
0.000117821
-0.00126616
0.0024706
0.000127192
-0.00244636
-0.000151429
-0.00236656
-0.000173697
0.0023929
4.53155e-05
-5.16368e-05
-0.00242849
0.00126126
-0.00125943
3.15161e-05
8.29095e-05
0.00122955
0.00125529
6.81075e-05
-7.38121e-05
-0.00124959
0.000641601
-2.33559e-05
-0.000639903
4.38392e-05
-2.21815e-05
-0.000627801
-6.62945e-05
6.37823e-05
0.000630313
0.000329421
8.86631e-06
-0.000337874
-4.14019e-07
-0.000331712
5.0815e-05
-5.59357e-05
0.000336832
3.21986e-05
-0.00132749
0.00252713
4.6163e-05
-0.00252036
-5.29331e-05
-0.00013177
0.00249186
-1.6969e-05
2.35044e-05
-0.00243403
0.00124856
-0.00125255
-2.77457e-05
2.30336e-05
0.00126254
0.00126756
-1.77838e-06
3.32558e-06
-0.0012691
0.000658127
6.8832e-06
-0.000659368
-6.83992e-06
1.19777e-06
-0.000656284
-8.77267e-06
1.52215e-05
0.00065614
-6.30442e-06
0.000307833
-9.75522e-07
-0.000307365
5.0726e-07
-0.00030876
-6.25262e-07
0.000309153
2.32796e-07
-5.53024e-05
-0.00131023
0.00250703
-4.57797e-05
-0.0025184
5.71495e-05
-2.37339e-05
0.00252905
-5.93184e-05
7.24313e-05
-0.00239592
0.00120257
-0.00120943
-6.17697e-05
-3.3879e-05
0.00124422
0.00123081
-5.45361e-05
6.08069e-05
-0.00123708
4.2676e-05
0.000622492
-0.000624562
-4.06067e-05
-0.000638649
1.56099e-05
-2.89168e-05
0.00063575
1.62062e-05
0.000338175
-4.36654e-05
-0.000346728
5.22184e-05
-0.00032068
-1.02516e-05
2.80273e-06
0.000328129
-9.8841e-05
-0.00124252
0.00243748
-0.000103569
-0.00245732
0.000123404
7.9547e-05
0.00249284
0.000584982
-7.81025e-05
-0.000587713
4.07376e-05
4.00962e-05
-0.00030632
-3.91501e-05
4.00294e-05
0.000305441
-9.58223e-05
-0.00117103
0.00236104
-0.000114637
-0.00237886
0.000132456
0.000131799
0.00241778
0.00053935
-5.59937e-05
-0.000541462
5.81061e-05
-0.000560277
-7.00191e-05
7.29411e-05
0.000557355
-1.82241e-05
1.04961e-05
-0.00225568
-1.88214e-05
0.000859564
-0.000831928
-8.8144e-06
6.47266e-07
0.00032324
-4.18636e-05
-0.000865282
-7.17024e-05
0.00228018
-0.0022889
8.04312e-05
3.29863e-05
0.00112048
-6.76199e-05
-0.000626379
6.61978e-05
-9.06089e-05
-0.000596254
8.49685e-05
0.000601894
-0.00118023
0.000112407
0.00119307
-0.000125253
-0.000597278
0.000603771
-4.89088e-05
-4.81932e-05
0.000628791
-0.000630167
-3.34017e-05
-3.28423e-05
8.55448e-05
-0.000534952
0.000542058
-9.26513e-05
9.25767e-05
-9.84376e-05
-0.000591417
4.50961e-05
-0.000333819
-4.29884e-05
6.1886e-05
-6.37025e-05
0.000312268
-0.00122376
0.00015134
-0.000168262
0.00124069
-0.000618387
-6.10706e-05
0.000626092
0.000115251
0.000333133
4.5174e-05
-0.000333211
-7.52863e-06
-0.000656579
1.81684e-05
-1.03451e-05
-2.36569e-05
4.26706e-05
0.0006472
-2.46129e-05
5.95718e-05
0.00126017
-6.44507e-05
-0.000318992
0.000321756
-2.64208e-05
0.000333915
-8.04281e-06
-0.000333401
0.000316314
0.000316565
-3.39324e-05
-3.64496e-05
-2.38471e-05
-0.000318501
-2.31206e-06
-0.00031053
4.08121e-06
1.52149e-05
-4.86028e-06
0.000319067
-0.00132349
7.35095e-05
0.00132977
-3.8622e-05
-4.11671e-05
-0.000333503
0.000326942
2.17757e-05
0.000338271
4.63267e-07
-0.000341046
0.000336903
4.70451e-05
1.64946e-05
-0.000341131
8.61056e-05
-0.00131611
-4.54625e-05
-4.80201e-05
1.57677e-05
-0.000641389
-2.67772e-05
1.37493e-05
6.00926e-06
-1.14562e-05
0.00065246
1.11139e-05
-9.75125e-06
0.00126484
1.24652e-05
-0.000339488
0.000335535
9.96177e-06
0.000321957
1.7264e-05
-0.000323454
0.000332793
-7.65108e-06
6.15711e-06
-0.000338761
-1.67387e-05
-0.000311724
7.7832e-06
-1.69869e-06
0.000308002
1.53e-06
-0.00133298
-3.02547e-05
0.00132816
1.86447e-05
1.64353e-05
-0.00033718
0.000338833
-3.35203e-06
0.000325922
-2.22624e-05
-0.000320398
0.000336855
7.89991e-07
-2.85377e-06
-0.000335302
-1.80928e-05
-0.00133666
1.20293e-05
9.74355e-06
-0.000621649
-4.3904e-05
0.000620658
2.15808e-05
2.33138e-05
0.000602193
-5.30424e-05
5.5473e-05
-0.000604624
0.000319537
1.80302e-05
-0.000622899
2.19704e-05
2.19555e-05
-4.06079e-05
-0.00030825
4.25379e-05
-4.75437e-05
6.01204e-05
0.000325598
-0.00127281
-9.74729e-05
0.00126297
5.39873e-05
5.33299e-05
-0.000333495
0.000326341
-4.03899e-05
0.000613524
4.01299e-05
-7.55357e-05
-0.000618726
0.000332494
-1.68236e-05
-3.86553e-05
-0.000338505
-9.24463e-05
-0.00128238
5.15929e-05
5.04217e-05
-0.00057678
-5.33811e-05
0.000573807
5.63545e-05
0.000557588
-4.46034e-05
4.62901e-05
-0.000559274
-5.42131e-05
0.00060022
5.61866e-05
-5.40638e-05
5.7285e-05
-0.000580002
-7.0881e-05