/*--------------------------------*- C++ -*----------------------------------*\
| =========                 |                                                 |
| \\      /  F ield         | OpenFOAM: The Open Source CFD Toolbox           |
|  \\    /   O peration     | Version:  5.x                                   |
|   \\  /    A nd           | Web:      www.OpenFOAM.org                      |
|    \\/     M anipulation  |                                                 |
\*---------------------------------------------------------------------------*/
FoamFile
{
    version     2.0;
    format      ascii;
    class       volScalarField;
    location    "400";
    object      pSat;
}
// * * * * * * * * * * * * * * * * * * * * * * * * * * * * * * * * * * * * * //

dimensions      [0 2 -2 0 0 0 0];

internalField   nonuniform List<scalar> 
6584
(
697.948
697.948
697.948
697.948
697.948
697.948
697.948
697.948
697.948
697.948
697.948
697.948
697.948
697.948
697.948
697.948
697.948
697.948
697.948
697.948
697.948
697.948
697.948
697.948
697.948
697.948
697.948
697.948
697.948
697.948
697.948
697.948
697.948
697.948
697.948
697.948
697.948
697.948
697.948
697.948
697.948
697.948
697.948
697.948
697.948
697.948
697.948
697.948
697.948
697.948
697.948
697.948
697.948
697.948
697.948
697.948
697.948
697.948
697.948
697.948
697.948
697.948
697.948
697.948
697.948
697.948
697.948
697.948
697.948
697.948
697.948
697.948
697.948
697.948
697.948
697.948
697.948
697.948
697.948
697.948
697.948
697.948
697.948
697.948
697.948
697.948
697.948
697.948
697.948
697.948
697.948
697.948
697.948
697.948
697.948
697.948
697.948
697.948
697.948
697.948
697.948
697.948
697.948
697.948
697.948
697.948
697.948
697.948
697.948
697.948
697.948
697.948
697.948
697.948
697.948
697.948
697.948
697.948
697.948
697.948
697.948
697.948
697.948
697.948
697.948
697.948
697.948
697.948
697.948
697.948
697.948
697.948
697.948
697.948
697.948
697.948
697.948
697.948
697.948
697.948
697.948
697.948
697.948
697.948
697.948
697.948
697.948
697.948
697.948
697.948
697.948
697.948
697.948
697.948
697.948
697.948
697.948
697.948
697.948
697.948
697.948
697.948
697.948
697.948
697.948
697.948
697.948
697.948
697.948
697.948
697.948
697.948
697.948
697.948
697.948
697.948
697.948
697.948
697.948
697.948
697.948
697.948
697.948
697.948
697.948
697.948
697.948
697.948
697.948
697.948
697.948
697.948
697.948
697.948
697.948
697.948
697.948
697.948
697.948
697.948
697.948
697.948
697.948
697.948
697.948
697.948
697.948
697.948
697.948
697.948
697.948
697.948
697.948
697.948
697.948
697.948
697.948
697.948
697.948
697.948
697.948
697.948
697.948
697.948
697.948
697.948
697.948
697.948
697.948
697.948
697.948
697.948
697.948
697.948
697.948
697.948
697.948
697.948
697.948
697.948
697.948
697.948
697.948
697.948
697.948
697.948
697.948
697.948
697.948
697.948
697.948
697.948
697.948
697.948
697.948
697.948
697.948
697.948
697.948
697.948
697.948
697.948
697.948
697.948
697.948
697.948
697.948
697.948
697.948
697.948
697.948
697.948
697.948
697.948
697.948
697.948
697.948
697.948
697.948
697.948
697.948
697.948
697.948
697.948
697.948
697.948
697.948
697.948
697.948
697.948
697.948
697.948
697.948
697.948
697.948
697.948
697.948
697.948
697.948
697.948
697.948
697.948
697.948
697.948
697.948
697.948
697.948
697.948
697.948
697.948
697.948
697.948
697.948
697.948
697.948
697.948
697.948
697.948
547.052
697.948
697.948
697.948
697.948
697.948
697.948
697.948
697.948
697.948
697.948
697.948
697.948
697.948
697.948
697.948
697.948
697.948
697.948
697.948
697.948
697.948
697.948
697.947
656.304
697.948
697.948
697.948
697.948
697.948
697.948
697.948
697.948
697.948
697.948
697.948
697.948
697.948
697.948
697.948
697.948
697.948
697.948
697.948
697.948
697.948
697.948
697.945
659.513
697.948
697.948
697.948
697.948
697.948
697.948
697.948
697.948
697.948
697.948
697.948
697.948
697.948
697.948
697.948
697.948
697.948
697.948
697.948
697.948
697.948
697.948
697.436
679.723
697.948
697.948
697.948
697.948
697.948
697.948
697.948
697.948
697.948
697.948
697.948
697.948
697.948
697.948
697.948
697.948
697.948
697.948
697.948
697.948
697.948
697.948
697.173
680.151
697.948
697.948
697.948
697.948
697.948
697.948
697.948
697.948
697.948
697.948
697.948
697.948
697.948
697.948
697.948
697.948
697.948
697.948
697.948
697.948
697.948
697.863
675.488
689.432
697.947
697.948
697.948
697.948
697.948
697.948
697.948
697.948
697.948
697.948
697.948
697.948
697.948
697.948
697.948
697.948
697.948
697.948
697.948
697.948
697.948
697.784
675.591
689.482
697.946
697.948
697.948
697.948
697.948
697.948
697.948
697.948
697.948
697.948
697.948
697.948
697.948
697.948
697.948
697.948
697.948
697.948
697.948
697.948
697.947
697.709
675.684
689.523
697.945
697.948
697.948
697.948
697.948
697.948
697.948
697.948
697.948
697.948
697.948
697.948
697.948
697.948
697.948
697.948
697.948
697.948
697.948
697.948
697.946
697.636
675.769
689.556
697.944
697.948
697.948
697.948
697.948
697.948
697.948
697.948
697.948
697.948
697.948
697.948
697.948
697.948
697.948
697.948
697.948
697.948
697.948
697.948
697.945
697.567
675.849
689.585
697.943
697.948
697.948
697.948
697.948
697.948
697.948
697.948
697.948
697.948
697.948
697.948
697.948
697.948
697.948
697.948
697.948
697.948
697.948
697.948
697.944
697.501
675.923
689.609
697.942
697.948
697.948
697.948
697.948
697.948
697.948
697.948
697.948
697.948
697.948
697.948
697.948
697.948
697.948
697.948
697.948
697.948
697.948
697.948
697.942
697.438
675.992
689.63
697.941
697.948
697.948
697.948
697.948
697.948
697.948
697.948
697.948
697.948
697.948
697.948
697.948
697.948
697.948
697.948
697.948
697.948
697.948
697.948
697.941
697.369
676.063
689.651
697.94
697.948
697.948
697.948
697.948
697.948
697.948
697.948
697.948
697.948
697.948
697.948
697.948
697.948
697.948
697.948
697.948
697.948
697.948
697.948
697.938
697.295
676.137
689.675
697.939
697.948
697.948
697.948
697.948
697.948
697.948
697.948
697.948
697.948
697.948
697.948
697.948
697.948
697.948
697.948
697.948
697.948
697.948
697.948
697.936
697.223
676.208
689.697
697.938
697.948
697.948
697.948
697.948
697.948
697.948
697.948
697.948
697.948
697.948
697.948
697.948
697.948
697.948
697.948
697.948
697.948
697.948
697.948
697.933
697.154
676.276
689.718
697.937
697.948
697.948
697.948
697.948
697.948
697.948
697.948
697.948
697.948
697.948
697.948
697.948
697.948
697.948
697.948
697.948
697.948
697.948
697.948
697.931
697.086
676.343
689.737
697.936
697.948
697.948
697.948
697.948
697.948
697.948
697.948
697.948
697.948
697.948
697.948
697.948
697.948
697.948
697.948
697.948
697.948
697.948
697.948
697.928
697.019
676.407
689.756
697.935
697.948
697.948
697.948
697.948
697.948
697.948
697.948
697.948
697.948
697.948
697.948
697.948
697.948
697.948
697.948
697.948
697.948
697.948
697.948
697.924
696.953
676.471
689.775
697.934
697.948
697.948
697.948
697.948
697.948
697.948
697.948
697.948
697.948
697.948
697.948
697.948
697.948
697.948
697.948
697.948
697.948
697.948
697.948
697.921
696.886
676.534
689.793
697.933
697.948
697.948
697.948
697.948
697.948
697.948
697.948
697.948
697.948
697.948
697.948
697.948
697.948
697.948
697.948
697.948
697.948
697.948
697.948
697.917
696.818
676.597
689.812
697.932
697.948
697.948
697.948
697.948
697.948
697.948
697.948
697.948
697.948
697.948
697.948
697.948
697.948
697.948
697.948
697.948
697.948
697.948
697.948
697.913
696.748
676.66
689.831
697.931
697.948
697.948
697.948
697.948
697.948
697.948
697.948
697.948
697.948
697.948
697.948
697.948
697.948
697.948
697.948
697.948
697.948
697.948
697.948
697.909
696.674
676.725
689.851
697.93
697.948
697.948
697.948
697.948
697.948
697.948
697.948
697.948
697.948
697.948
697.948
697.948
697.948
697.948
697.948
697.948
697.948
697.948
697.948
697.948
697.948
697.948
697.948
697.948
697.948
697.948
529.951
541.389
697.948
697.948
697.948
697.948
697.948
697.948
697.948
697.948
697.948
697.948
697.948
697.948
697.948
697.948
697.948
697.948
697.948
697.948
697.677
697.895
697.529
697.891
697.948
697.948
697.948
697.948
697.948
697.948
697.948
696.73
696.936
693.327
695.432
697.948
697.948
697.948
697.948
697.948
697.948
697.948
697.147
696.919
696.71
694.68
697.948
697.948
697.948
697.711
697.652
697.948
697.948
697.948
697.887
697.843
697.947
570.768
530.814
623.421
697.948
697.948
697.913
697.948
697.948
697.946
697.8
697.948
697.947
697.902
697.948
697.948
697.948
697.932
697.007
697.61
697.948
696.831
694.277
697.732
696.954
695.556
697.513
697.948
697.73
697.258
697.926
697.741
697.948
696.887
696.74
697.948
693.39
694.604
694.154
693.342
694.596
693.194
697.948
697.131
697.341
697.252
697.139
697.948
694.19
695.468
694.702
693.985
697.627
696.825
697.948
697.675
697.851
697.353
697.656
697.948
696.589
697.06
695.625
696.496
697.834
697.733
697.859
697.898
697.948
697.379
696.986
697.111
697.356
697.905
697.891
697.948
697.948
697.948
697.931
697.948
697.948
697.948
697.948
697.948
697.615
697.442
691.317
687.82
697.948
697.948
697.948
697.948
697.93
697.948
697.948
697.948
697.412
697.181
697.948
500.072
528.71
636.08
651.749
530.985
571.295
687.139
680.669
697.948
697.902
697.922
653.494
662.064
697.924
697.933
697.948
697.948
697.948
697.948
697.948
697.948
697.948
697.923
697.948
697.937
697.948
697.94
697.948
697.659
697.755
694.456
694.575
696.01
695.78
697.633
681.014
697.771
693.963
691.707
692.186
694.214
697.866
694.292
697.93
687.38
696.682
685.419
697.913
696.955
697.928
697.948
697.87
695.278
697.938
697.94
695.429
695.268
697.527
697.471
696.342
696.451
697.286
697.944
697.945
697.942
697.943
697.284
697.86
697.947
697.948
697.946
697.947
697.829
693.951
694.02
693.487
693.419
691.755
691.938
697.074
697.942
697.941
697.943
697.942
697.073
697.206
697.941
697.941
697.941
697.941
697.199
502.127
694.778
530.292
499.951
570.71
532.439
694.958
693.136
502.609
693.343
697.381
697.326
697.497
697.944
697.943
697.945
697.944
697.527
610.23
632.562
696.048
609.143
574.077
637.507
613.05
696.172
575.389
606.678
697.799
688.196
691.795
681.831
687.468
697.785
679.061
660.465
663.464
550.198
663.018
659.301
576.754
693.899
694.174
697.946
697.948
697.948
697.948
697.948
697.839
697.822
613.037
697.663
697.841
697.947
697.735
697.635
697.948
547.282
552.206
514.931
659.049
658.524
556.449
563.901
692.459
693.8
475.456
697.948
697.948
697.948
697.948
697.948
697.948
697.802
697.946
697.944
697.538
697.383
697.832
696.754
697.929
697.928
697.932
697.929
696.782
693.83
695.076
696.416
694.887
663.766
657.562
697.872
694.429
695.86
695.875
695.922
564.212
697.948
697.943
697.948
697.918
697.619
697.453
697.946
697.948
697.948
697.948
697.948
697.945
697.251
697.937
697.933
697.943
697.939
697.337
696.22
670.95
686.329
658.609
661.716
694.676
687.896
689.583
697.21
695.895
696.805
697.473
697.91
697.913
697.884
697.888
697.272
697.929
697.929
696.789
693.667
648.364
638.953
693.826
653.993
657.681
637.327
639.936
693.263
693.492
692.464
697.102
697.886
697.883
697.878
697.9
697.238
697.234
697.88
697.882
697.882
697.88
697.166
697.538
692.076
693.325
690.396
689.578
697.071
697.815
697.945
697.945
697.946
697.946
697.825
696.826
655.967
640.245
670.541
666.009
696.892
586.477
590.875
697.236
675.174
671.87
581.755
585.294
671.314
665.369
697.945
697.947
697.947
657.909
690.033
662.223
665.161
664.367
689.585
697.948
697.938
697.948
697.91
697.947
503.626
512.56
547.593
547.363
643.867
562.249
557.24
572.311
563.656
645.893
542.737
550.261
684.751
683.66
657.829
585.183
576.778
564.601
568.339
697.903
697.945
697.948
697.931
697.943
697.886
697.544
697.821
693.957
694.953
696.342
695.015
682.495
693.887
692.972
694.846
694.174
682.215
690.871
689.994
692.686
691.363
693.167
674.299
677.884
667.723
672.501
692.834
654.139
656.402
691.904
697.61
697.293
697.889
697.7
693.093
695.248
694.571
697.041
695.543
697.76
697.942
697.911
697.637
697.399
697.833
697.659
697.923
697.693
697.879
697.924
697.733
697.86
697.945
697.906
697.846
665.791
668.637
695.986
644.37
632.959
673.339
646.89
616.341
606.003
629.426
620.692
694.822
662.785
665.031
686.197
683.381
694.219
688.615
679.957
676.639
682.878
680.8
697.281
689.963
690.998
696.012
696.745
697.898
697.907
697.365
697.275
697.89
697.896
650.174
649.965
693.75
589.211
588.374
551.534
584.623
583.355
595.423
587.34
584.182
648.515
652.747
693.729
589.63
579.361
603.403
592.85
560.651
550.302
575.492
565.11
693.29
641.943
646.865
692.737
692.32
697.892
697.887
697.093
697.174
697.898
697.893
697.879
697.879
697.227
697.174
697.879
697.879
504.439
513.136
652.602
659.509
643.703
650.181
502.887
554.853
668.905
659.234
661.438
667.121
547.021
615.806
619.246
602.79
614.546
510.372
635.152
641.907
621.228
631.654
509.976
690.972
691.767
697.504
687.483
689.138
689.583
687.404
689.138
697.133
689.101
690.305
619.584
534.985
533.81
553.829
537.591
622.824
547.233
587.202
533.996
592.29
684.79
695.608
695.053
696.269
695.793
685.277
676.571
677.583
593.025
598.292
571.353
580.212
675.278
672.668
697.948
697.948
697.948
697.948
697.939
697.94
697.948
697.948
697.948
697.948
697.948
697.948
697.948
697.948
697.948
697.948
697.947
697.832
697.532
696.82
696.724
693.468
695.309
697.931
697.933
697.011
692.074
691.717
694.742
693.602
694.242
697.711
697.941
697.948
697.948
696.446
696.888
697.847
697.938
697.917
697.946
697.701
694.252
696.247
695.668
696.625
696.519
697.453
697.634
697.636
697.263
697.919
697.924
697.757
696.809
697.93
697.931
653.339
649.099
694.321
694.448
692.576
692.405
693.062
697.123
697.636
697.634
697.246
697.632
697.633
697.632
697.631
697.148
692.751
660.003
655.528
697.385
697.884
697.881
697.879
697.947
697.946
545.615
545.607
678.535
676.125
697.27
546.043
545.765
695.993
696.301
697.901
697.935
697.924
498.601
504.49
505.92
525.932
533.588
503.918
503.903
537.501
532.719
565.873
675.207
674.054
681.678
591.58
586.576
658.989
697.948
697.948
697.948
697.898
697.921
697.938
697.943
697.86
697.877
697.948
697.948
697.947
697.28
697.233
697.592
697.794
697.634
697.549
694.226
694.695
693.129
693.424
696.163
695.494
691.881
692.539
683.748
683.889
687.722
687.2
681.005
684.236
684.642
697.728
694.496
695.192
693.386
689.525
694.922
694.29
697.458
697.202
696.093
679.066
676.823
692.689
688.193
681.845
697.947
697.945
697.844
697.806
697.537
697.673
696.049
697.766
697.834
691.332
693.117
697.668
673.942
671.319
696.236
696.558
697.937
697.94
697.894
697.765
697.928
697.933
694.243
648.686
649.597
691.77
692.062
697.627
697.627
697.213
697.19
697.627
697.627
504.089
527.657
574.859
578.31
540.547
543.089
497.412
663.216
660.838
692.942
509.471
505.948
527.847
528.291
505.387
538.134
539.235
502.957
503.511
697.891
697.888
697.403
697.587
697.898
697.895
592.666
666.845
669.201
661.804
664.337
586.789
689.863
695.956
696.399
696.301
696.138
690.418
683.052
689.098
688.393
677.308
675.646
679.401
553.982
556.586
558.069
547.515
665.571
601.829
594.199
608.146
603.616
658.069
647.785
648.515
678.838
681.828
694.696
697.945
697.945
697.936
547.585
549.002
592.924
592.687
510.389
560.647
553.749
553.618
551.657
552.926
562.804
477.178
672.815
675.042
697.948
697.948
697.948
697.001
696.912
697.534
697.205
697.499
697.696
697.407
697.461
693.685
695.191
690.144
690.613
690.677
690.147
694.805
691.469
691.303
662.403
651.502
651.347
653.593
653.093
660.656
697.569
697.783
697.791
697.756
697.776
697.514
695.78
697.277
696.4
696.097
697.268
697.637
697.639
692.579
692.679
694.143
692.691
697.64
697.638
697.112
697.63
697.631
697.24
697.157
697.63
697.629
690.408
692.042
691.394
692.587
692.381
690.231
545.837
546.657
547.11
546.457
582.99
561.734
560.893
652.375
652.622
669.507
656.617
659.17
652.057
653.935
667.393
697.941
697.937
697.943
697.934
697.946
697.947
697.948
697.942
697.945
697.941
661.316
677.007
676.107
679.511
678.213
662.321
668.259
672.735
670.87
675.381
674.435
666.655
697.942
697.946
697.944
697.834
697.74
697.929
697.912
498.883
521.254
506.724
505.604
547.608
547.503
580.995
583.875
559.361
508.994
505.148
537.226
524.008
524.539
522.206
558.571
524.468
516.221
676.055
677.736
685.703
671.338
671.843
670.033
670.379
682.596
673.566
674.276
565.3
548.669
550.192
547.276
547.415
566.387
697.929
697.933
697.914
697.84
697.888
697.922
696.873
697.559
697.167
697.087
697.268
697.341
697.101
697.191
694.088
694.821
691.24
691.372
690.819
691.036
696.264
693.582
693.694
691.233
691.415
695.218
691.325
685.207
684.137
681.572
686.76
686.192
690.51
685.283
685.132
686.989
686.009
690.252
692.345
687.762
688.306
685.756
686.806
691.89
684.757
669.305
681.551
680.651
653.057
654.165
691.291
695.462
695.196
690.719
694.101
696.508
695.882
682.82
680.824
690.435
690.884
694.812
687.113
684.99
696.817
697.163
697.727
697.368
696.388
694.985
696.299
697.803
697.877
697.893
697.807
697.837
697.687
697.513
697.643
697.891
697.827
697.802
697.896
697.843
697.906
697.765
697.767
697.675
697.786
641.295
636.907
665.869
633.464
637.257
625.456
649.092
612.465
609.026
626.297
623.573
684.757
671.483
674.467
665.516
668.402
683.949
693.557
688.209
689.693
676.216
684.716
691.984
668.9
664.218
679.087
646.619
649.618
641.39
643.975
678.108
682.357
660.619
662.925
652.948
656.621
681.616
696.129
696.66
590.163
553.743
558.655
543.894
548.593
589.363
559.938
561.459
561.347
573.041
584.904
518.893
523.509
526.331
519.029
588.884
586.315
535.676
539.6
528.165
532.125
585.296
586.868
583.748
600.722
596.539
556.649
553.002
572.108
569.194
692.09
692.186
697.22
697.628
697.629
697.628
697.627
697.182
505.313
563.062
570.01
522.795
497.391
547.787
554.958
516.997
513.119
616.812
555.019
555.664
608.818
549.66
538.516
555.872
554.455
612.513
525.719
521.17
531.067
535.922
508.303
509.473
520.692
691.327
694.438
694.193
694.798
694.624
691.548
688.054
688.848
688.813
687.291
687.285
687.971
689.063
693.067
692.787
693.851
693.447
689.579
534.022
553.517
556.432
548.962
551.192
533.749
548.037
571.814
577.078
560.495
565.89
542.415
546.013
524.332
525.596
524.53
524.425
533.96
542.461
546.342
529.623
535.966
532.894
690.159
689.703
684.161
676.368
678.721
548.864
552.649
574.855
553.511
549.34
559.729
557.601
577.987
547.992
547.758
649.243
650.204
697.948
697.948
697.948
697.948
697.948
697.948
697.948
697.948
697.948
697.948
697.948
697.948
697.948
697.948
697.948
697.948
697.948
697.948
697.948
697.948
697.948
697.948
697.948
697.948
697.948
697.948
697.948
697.948
697.948
697.948
697.948
697.948
697.948
697.948
697.948
697.948
697.948
697.948
697.948
697.948
697.948
697.948
697.948
697.948
697.948
697.948
697.948
697.948
697.948
697.948
697.948
697.948
697.948
697.948
697.948
697.948
697.948
697.948
697.948
697.948
697.948
697.948
697.948
697.948
697.948
697.948
697.948
697.948
697.948
697.948
697.948
697.948
697.948
697.948
697.948
697.948
697.948
697.948
697.948
697.948
697.948
697.948
697.948
697.948
697.948
697.946
697.946
697.948
697.948
697.948
697.948
697.948
697.948
697.948
697.948
697.948
697.948
697.948
697.948
697.948
697.946
697.946
697.948
697.948
697.948
697.948
697.948
697.948
697.948
697.948
697.948
697.948
697.947
697.947
697.948
697.948
697.948
697.948
697.948
697.948
697.948
697.948
697.948
697.948
697.948
697.948
697.948
697.948
697.948
697.948
697.948
697.948
697.948
697.948
697.948
697.948
697.778
697.776
564.275
689.86
690.634
697.948
697.948
697.948
697.948
697.948
697.948
697.948
697.948
697.948
697.948
697.948
697.948
697.946
610.905
608.425
658.764
697.948
697.948
697.948
697.948
697.948
697.948
697.948
697.948
697.948
697.948
697.948
697.618
651.608
611.629
679.489
697.937
697.948
697.948
697.948
697.948
697.948
697.948
697.948
697.948
697.948
697.948
697.948
697.948
697.948
697.946
697.947
697.948
697.948
697.947
697.946
697.948
697.948
697.948
697.946
697.946
697.948
697.948
697.946
697.947
697.946
697.946
697.948
697.947
697.946
697.948
697.948
697.948
697.948
697.947
697.947
697.948
697.948
697.948
697.948
697.948
697.948
697.948
697.775
697.843
697.948
509.986
583.461
584.27
641.681
641.882
478.228
697.948
697.948
697.948
697.948
697.948
697.948
697.948
697.948
697.947
697.948
697.948
697.948
697.948
697.948
697.948
697.948
697.948
697.948
697.948
697.948
697.948
697.948
697.948
697.948
697.948
697.948
697.948
697.948
697.948
697.948
697.946
697.941
697.948
697.948
697.948
697.948
697.948
697.948
697.948
697.948
697.948
697.948
697.948
697.948
697.948
697.948
697.948
697.948
697.948
697.948
697.948
697.948
697.948
697.948
697.948
697.948
697.726
697.887
697.873
697.936
697.931
697.878
697.828
697.761
697.87
697.948
697.948
697.948
697.948
697.948
697.948
697.948
697.948
697.948
697.948
697.948
697.948
697.948
697.948
697.948
697.948
697.948
697.948
697.946
697.946
697.948
696.726
697.64
697.641
697.687
697.671
696.874
697.948
697.948
697.948
697.948
697.948
697.948
697.948
697.948
697.948
697.948
697.948
697.948
697.948
697.948
697.948
697.948
697.948
697.948
697.946
697.946
697.948
697.044
697.933
697.935
697.685
697.692
696.949
696.596
694.182
694.505
697.948
697.948
697.948
697.948
697.948
697.948
697.948
697.948
697.948
697.687
696.036
696.419
697.053
697.119
697.673
697.948
697.948
697.948
697.948
697.948
697.948
697.948
697.948
697.948
697.882
697.69
697.708
697.527
697.562
697.851
697.852
697.778
697.947
565.735
695.923
695.864
658.844
659.379
534.732
697.692
697.669
615.769
697.948
697.927
697.937
697.941
697.927
697.948
697.925
697.943
697.94
697.948
697.948
697.944
697.948
697.948
697.948
697.944
697.873
697.934
697.948
697.948
697.948
697.942
697.946
697.948
697.908
697.864
697.853
697.947
697.946
697.947
697.948
697.948
697.948
697.948
697.948
697.948
697.945
697.946
697.939
697.084
697.726
697.705
697.856
697.836
697.521
697.948
697.947
697.948
696.669
694.923
695.392
689.451
689.688
694.402
695.694
695.907
697.051
697.948
697.947
697.948
697.706
697.829
697.841
697.901
697.942
697.944
697.849
697.854
697.747
697.948
697.948
697.948
696.858
697.671
697.678
697.643
697.646
696.754
697.948
697.946
697.946
693.486
687.453
687.224
689.835
689.601
694.503
694.04
689.003
689.225
687.069
686.981
693.284
697.946
697.946
697.948
697.738
697.729
697.323
697.948
697.946
697.946
694.392
676.663
673.728
687.911
687.243
695.305
694.798
690.306
690.075
672.8
669.608
693.776
697.6
696.892
696.978
694.849
695.137
696.926
697.947
697.948
697.948
697.722
697.91
697.907
697.923
697.922
697.843
697.362
697.752
697.745
697.904
697.901
697.602
697.948
697.947
697.947
696.675
692.916
692.562
694.488
694.283
697.009
695.773
689.163
688.548
692.178
691.761
696.396
697.823
697.444
697.488
696.53
696.819
697.752
697.866
697.927
697.925
697.947
697.947
697.884
697.948
697.948
697.948
697.432
680.899
679.221
676.976
679.859
697.403
697.156
694.844
694.675
697.903
696.348
696.403
697.948
697.948
697.948
697.948
697.948
697.948
697.948
697.948
697.948
697.948
697.948
697.948
697.948
697.948
697.948
697.948
697.948
697.948
697.947
697.947
697.948
697.549
697.928
697.93
697.926
697.927
697.524
690.897
685.94
686.675
680.981
682.164
688.485
697.948
697.948
697.948
697.948
697.948
697.948
697.888
697.921
697.94
697.948
697.948
697.948
697.948
697.948
697.948
697.948
697.948
697.948
697.317
697.938
697.924
697.936
697.937
697.284
697.948
697.946
697.946
639.043
611.493
608.455
626.51
623.793
649.819
686.458
678.818
679.819
697.948
697.948
697.948
697.912
697.948
697.947
697.947
697.948
697.915
655.129
631.662
629.175
641.928
640.391
661.075
697.929
697.947
697.947
697.947
697.947
697.93
697.948
697.948
697.948
697.948
697.948
697.948
697.948
697.948
697.948
697.948
697.948
697.948
697.948
697.948
697.948
697.948
697.948
697.948
697.948
697.948
697.948
697.948
697.947
697.948
697.948
697.948
697.948
697.945
697.946
697.943
697.948
697.948
697.948
695.37
695.882
697.661
697.758
697.391
697.434
693.73
690.447
690.837
687.35
687.936
692.059
693.202
696.578
696.448
696.8
696.695
693.477
697.859
697.593
697.622
697.693
697.838
697.939
697.885
697.051
697.599
697.186
697.695
697.587
697.943
697.936
697.906
697.948
697.948
697.948
697.923
697.916
697.934
697.942
697.933
697.928
691.583
691.914
695.595
695.117
691.004
691.283
696.924
697.062
697.578
697.412
696.654
696.789
697.656
697.665
697.293
697.944
697.934
697.932
697.938
697.936
697.945
697.942
697.928
697.927
697.931
697.929
697.942
697.281
697.648
697.651
697.909
697.916
697.877
697.948
697.946
697.945
697.947
697.947
697.948
697.946
697.941
697.94
697.944
697.943
697.947
697.798
697.887
697.899
688.532
688.416
693.887
694.091
688.776
688.651
687.792
687.981
693.56
693.366
687.447
687.612
697.653
697.649
697.079
697.942
697.927
697.928
697.926
697.927
697.941
697.942
697.93
697.93
697.928
697.929
697.942
697.085
697.665
697.658
697.941
697.925
697.925
697.926
697.926
697.941
697.941
697.925
697.926
697.925
697.925
697.941
685.036
677.665
694.593
566.841
609.717
614.101
581.327
584.665
535.328
695.134
686.516
685.775
693.559
668.247
664.209
696.274
696.401
697.428
697.263
695.945
696.119
697.8
697.79
697.462
697.943
697.933
697.933
697.931
697.932
697.943
697.944
697.936
697.936
697.934
697.935
697.944
697.552
697.816
697.808
613.422
581.065
577.95
604.834
600.591
629.481
690.314
689.756
695.915
604.446
641.104
644.223
617.858
621.665
577.623
627.31
675.067
676.75
671.301
673.236
623.607
696.288
691.31
690.831
579.004
543.144
540.546
574.372
569.74
602.499
697.342
697.396
697.812
688.774
692.599
692.24
694.605
694.359
691.382
691.827
691.381
686.64
697.769
697.216
697.282
661.588
614.422
609.599
620.754
616.33
662.67
663.928
644.991
643.477
693.703
682.619
684.32
691.202
691.551
694.366
697.948
697.948
697.948
697.948
697.948
697.948
697.834
697.936
697.936
697.934
697.935
697.828
683.999
683.545
609.874
697.665
695.905
695.942
695.945
695.919
697.69
697.699
697.933
697.934
697.931
697.932
697.685
697.948
697.947
697.947
551.237
546.042
511.22
658.33
623.562
614.519
624.826
624.032
658.296
693.423
677.907
675.866
683.856
686.704
693.823
475.811
580.815
605.014
697.948
697.948
697.948
697.948
697.948
697.948
697.948
697.948
697.948
697.948
697.948
697.948
697.948
697.948
697.948
697.948
697.948
697.948
697.908
697.898
697.767
697.945
697.936
697.938
697.929
697.932
697.945
697.848
697.712
697.686
697.642
697.64
696.735
697.928
697.869
697.87
697.87
697.869
697.928
697.931
697.877
697.881
697.871
697.874
697.93
696.823
697.658
697.648
693.804
693.95
696.498
697.647
697.669
697.877
695.547
696.975
696.893
697.114
697.049
695.711
695.9
683.342
677.227
683.449
683.432
695.914
562.633
642.967
642.487
697.948
697.948
697.948
697.948
697.948
697.948
697.948
697.948
697.948
697.877
697.871
697.913
697.948
697.948
697.947
697.948
697.948
697.948
697.948
697.948
697.948
697.948
697.948
697.947
697.948
697.948
697.948
697.942
697.947
697.947
697.77
697.747
697.166
697.936
697.897
697.903
697.886
697.891
697.934
697.941
697.919
697.924
697.908
697.914
697.94
697.427
697.814
697.792
693.457
694.227
696.459
675.598
688.672
686.426
692.354
690.994
682.649
659.584
679.731
679.311
680.637
680.175
660.626
694.538
689.938
690.2
688.67
693.466
693.053
694.019
693.764
689.172
697.134
696.077
696.23
697.757
697.804
697.637
697.912
697.902
697.886
697.885
697.815
697.813
697.821
697.818
697.886
697.929
697.871
697.87
697.872
697.871
697.929
696.771
697.65
697.654
687.949
687.709
693.574
645.484
674.873
675.675
673.156
673.955
641.953
688.566
688.78
693.928
655.32
678.007
677.534
678.904
678.478
656.658
636.904
672.434
672.65
672.941
672.496
638.138
693.283
686.958
687.012
697.885
697.813
697.815
697.81
697.812
697.884
697.842
697.846
697.902
697.29
697.717
697.703
697.88
697.808
697.807
697.811
697.809
697.881
697.881
697.808
697.809
697.806
697.807
697.881
696.701
696.798
697.57
692.495
695.207
694.991
695.622
695.425
692.943
697.006
695.338
695.485
697.915
697.913
697.805
697.945
697.938
697.939
697.937
697.938
697.945
697.946
697.941
697.941
697.94
697.94
697.946
697.834
697.919
697.917
693.54
693.241
696.754
649.675
680.959
682.129
678.28
679.678
647.429
669.121
684.946
685.717
683.166
684.101
667.625
696.953
694.058
693.811
587.738
565.277
564.293
568.09
566.459
589.155
695.141
694.999
697.198
674.161
687.613
688.132
686.417
687.044
673.068
563.4
562.553
584.142
697.948
697.947
697.946
684.563
685.221
690.466
689.08
683.171
683.923
697.947
697.948
697.948
697.948
697.948
697.947
697.944
697.936
697.942
616.525
614.107
641.567
560.909
586.174
588.238
568.329
595.49
598.869
590.305
592.646
565.51
647.946
621.257
618.844
635.674
633.816
656.564
583.374
608.228
610.287
602.402
605.626
580.672
697.946
697.942
697.94
697.946
697.944
697.947
697.935
697.916
697.909
697.936
697.926
697.94
697.673
697.662
697.811
693.573
689.812
690.452
688.721
689.203
693.261
694.636
691.763
692.116
691.001
691.415
694.418
689.534
690.017
693.467
675.823
684.851
684.075
686.088
685.506
676.946
683.224
682.374
670.767
692.459
688.479
689.017
697.524
696.833
696.993
696.387
696.667
697.429
697.853
697.671
697.77
697.202
697.456
697.788
695.021
691.221
691.573
696.526
694.073
695.719
692.053
692.854
695.971
697.886
697.802
697.45
697.936
697.907
697.929
697.828
697.871
697.926
697.929
697.902
697.888
697.941
697.937
697.944
697.88
697.92
697.929
697.902
697.91
697.859
666.593
683.329
682.808
684.908
683.979
667.485
695.781
692.305
692.802
690.468
690.735
694.967
663.594
681.521
681.098
682.35
681.928
664.305
696.375
696.516
697.349
690.328
694.491
694.258
694.943
694.719
690.676
697.901
697.847
697.84
697.87
697.856
697.903
697.314
697.681
697.711
697.642
697.645
697.279
697.892
697.827
697.824
697.835
697.831
697.894
650.672
676.775
676.941
676.233
676.564
650.621
693.819
688.291
688.144
650.2
676.155
675.624
677.079
676.633
651.557
693.643
688.171
688.363
687.141
687.291
693.316
643.803
674.07
673.507
675.093
674.583
645.32
697.89
697.821
697.823
697.817
697.819
697.889
697.085
697.646
697.643
697.689
697.675
697.118
697.896
697.833
697.837
697.826
697.829
697.895
697.879
697.805
697.805
697.806
697.805
697.879
697.879
697.805
697.805
697.805
697.805
697.879
654.892
616.751
612.339
623.451
620.401
657.338
645.629
599.258
596.496
607.495
602.93
647.795
599.203