/*--------------------------------*- C++ -*----------------------------------*\
| =========                 |                                                 |
| \\      /  F ield         | OpenFOAM: The Open Source CFD Toolbox           |
|  \\    /   O peration     | Version:  5.x                                   |
|   \\  /    A nd           | Web:      www.OpenFOAM.org                      |
|    \\/     M anipulation  |                                                 |
\*---------------------------------------------------------------------------*/
FoamFile
{
    version     2.0;
    format      ascii;
    class       volScalarField;
    location    "400";
    object      T;
}
// * * * * * * * * * * * * * * * * * * * * * * * * * * * * * * * * * * * * * //

dimensions      [0 0 0 1 0 0 0];

internalField   nonuniform List<scalar> 
6584
(
275
275
275
275
275
275
275
275
275
275
275
275
275
275
275
275
275
275
275
275
275
275
275
275
275
275
275
275
275
275
275
275
275
275
275
275
275
275
275
275
275
275
275
275
275
275
275
275
275
275
275
275
275
275
275
275
275
275
275
275
275
275
275
275
275
275
275
275
275
275
275
275
275
275
275
275
275
275
275
275
275
275
275
275
275
275
275
275
275
275
275
275
275
275
275
275
275
275
275
275
275
275
275
275
275
275
275
275
275
275
275
275
275
275
275
275
275
275
275
275
275
275
275
275
275
275
275
275
275
275
275
275
275
275
275
275
275
275
275
275
275
275
275
275
275
275
275
275
275
275
275
275
275
275
275
275
275
275
275
275
275
275
275
275
275
275
275
275
275
275
275
275
275
275
275
275
275
275
275
275
275
275
275
275
275
275
275
275
275
275
275
275
275
275
275
275
275
275
275
275
275
275
275
275
275
275
275
275
275
275
275
275
275
275
275
275
275
275
275
275
275
275
275
275
275
275
275
275
275
275
275
275
275
275
275
275
275
275
275
275
275
275
275
275
275
275
275
275
275
275
275
275
275
275
275
275
275
275
275
275
275
275
275
275
275
275
275
275
275
275
275
275
275
275
275
275
275
275
275
275
275
275
275
275
275
275
275
275
275
275
275
275
275
275
275
275
275
275
275
275
275
275
275
275
275
275
275
275
275
275
275
275
275
275
275
275
275
275
271.636
275
275
275
275
275
275
275
275
275
275
275
275
275
275
275
275
275
275
275
275
275
275
275
274.142
275
275
275
275
275
275
275
275
275
275
275
275
275
275
275
275
275
275
275
275
275
275
275
274.21
275
275
275
275
275
275
275
275
275
275
275
275
275
275
275
275
275
275
275
275
275
275
274.99
274.63
275
275
275
275
275
275
275
275
275
275
275
275
275
275
275
275
275
275
275
275
275
275
274.984
274.639
275
275
275
275
275
275
275
275
275
275
275
275
275
275
275
275
275
275
275
275
275
274.998
274.543
274.828
275
275
275
275
275
275
275
275
275
275
275
275
275
275
275
275
275
275
275
275
275
274.997
274.545
274.829
275
275
275
275
275
275
275
275
275
275
275
275
275
275
275
275
275
275
275
275
275
274.995
274.547
274.83
275
275
275
275
275
275
275
275
275
275
275
275
275
275
275
275
275
275
275
275
275
274.994
274.549
274.831
275
275
275
275
275
275
275
275
275
275
275
275
275
275
275
275
275
275
275
275
275
274.992
274.55
274.831
275
275
275
275
275
275
275
275
275
275
275
275
275
275
275
275
275
275
275
275
275
274.991
274.552
274.832
275
275
275
275
275
275
275
275
275
275
275
275
275
275
275
275
275
275
275
275
275
274.99
274.553
274.832
275
275
275
275
275
275
275
275
275
275
275
275
275
275
275
275
275
275
275
275
275
274.988
274.555
274.833
275
275
275
275
275
275
275
275
275
275
275
275
275
275
275
275
275
275
275
275
275
274.987
274.556
274.833
275
275
275
275
275
275
275
275
275
275
275
275
275
275
275
275
275
275
275
275
275
274.985
274.558
274.834
275
275
275
275
275
275
275
275
275
275
275
275
275
275
275
275
275
275
275
275
275
274.984
274.559
274.834
275
275
275
275
275
275
275
275
275
275
275
275
275
275
275
275
275
275
275
275
275
274.983
274.561
274.834
275
275
275
275
275
275
275
275
275
275
275
275
275
275
275
275
275
275
275
275
275
274.981
274.562
274.835
275
275
275
275
275
275
275
275
275
275
275
275
275
275
275
275
275
275
275
275
275
274.98
274.563
274.835
275
275
275
275
275
275
275
275
275
275
275
275
275
275
275
275
275
275
275
275
274.999
274.979
274.564
274.836
275
275
275
275
275
275
275
275
275
275
275
275
275
275
275
275
275
275
275
275
274.999
274.977
274.566
274.836
275
275
275
275
275
275
275
275
275
275
275
275
275
275
275
275
275
275
275
275
274.999
274.976
274.567
274.836
275
275
275
275
275
275
275
275
275
275
275
275
275
275
275
275
275
275
275
275
274.999
274.974
274.568
274.837
275
275
275
275
275
275
275
275
275
275
275
275
275
275
275
275
275
275
275
275
275
275
275
275
275
275
275
271.205
271.495
275
275
275
275
275
275
275
275
275
275
275
275
275
275
275
275
275
275
274.995
274.999
274.992
274.999
275
275
275
275
275
275
275
274.976
274.98
274.907
274.949
275
275
275
275
275
275
275
274.984
274.979
274.975
274.934
275
275
275
274.995
274.994
275
275
275
274.999
274.998
275
272.216
271.227
273.429
275
275
274.999
275
275
275
274.997
275
275
274.999
275
275
275
275
274.981
274.993
275
274.978
274.926
274.996
274.98
274.952
274.991
275
274.996
274.986
275
274.996
275
274.979
274.976
275
274.908
274.933
274.924
274.907
274.933
274.904
275
274.984
274.988
274.986
274.984
275
274.924
274.95
274.935
274.92
274.994
274.977
275
274.995
274.998
274.988
274.994
275
274.973
274.982
274.953
274.971
274.998
274.996
274.998
274.999
275
274.989
274.981
274.983
274.988
274.999
274.999
275
275
275
275
275
275
275
275
275
274.993
274.99
274.866
274.796
275
275
275
275
275
275
275
275
274.989
274.985
275
270.42
271.173
273.707
274.045
271.231
272.228
274.782
274.65
275
274.999
274.999
274.082
274.263
275
275
275
275
275
275
275
275
275
274.999
275
275
275
275
275
274.994
274.996
274.93
274.932
274.961
274.956
274.994
274.657
274.996
274.92
274.874
274.884
274.925
274.998
274.926
275
274.787
274.975
274.747
274.999
274.98
275
275
274.998
274.946
275
275
274.949
274.946
274.992
274.99
274.968
274.97
274.987
275
275
275
275
274.987
274.998
275
275
275
275
274.998
274.92
274.921
274.91
274.909
274.875
274.879
274.982
275
275
275
275
274.982
274.985
275
275
275
275
274.985
270.475
274.936
271.213
270.416
272.214
271.268
274.94
274.903
270.488
274.907
274.989
274.988
274.991
275
275
275
275
274.992
273.134
273.631
274.962
273.109
272.295
273.738
273.198
274.964
272.326
273.053
274.997
274.803
274.876
274.673
274.788
274.997
274.617
274.23
274.293
271.714
274.283
274.205
272.359
274.919
274.924
275
275
275
275
275
274.998
274.997
273.197
274.994
274.998
275
274.996
274.994
275
271.642
271.764
270.815
274.2
274.189
271.869
272.05
274.89
274.917
269.741
275
275
275
275
275
275
274.997
275
275
274.992
274.989
274.998
274.976
275
275
275
275
274.977
274.917
274.942
274.969
274.938
274.299
274.168
274.998
274.929
274.958
274.958
274.959
272.058
275
275
275
274.999
274.993
274.99
275
275
275
275
275
275
274.986
275
275
275
275
274.988
274.965
274.449
274.765
274.19
274.256
274.934
274.797
274.831
274.985
274.959
274.977
274.99
274.999
274.999
274.999
274.999
274.986
275
275
274.977
274.914
273.973
273.77
274.917
274.093
274.171
273.734
273.791
274.906
274.91
274.89
274.983
274.999
274.999
274.999
274.999
274.986
274.986
274.999
274.999
274.999
274.999
274.984
274.992
274.882
274.907
274.848
274.831
274.982
274.997
275
275
275
275
274.998
274.977
274.135
273.798
274.44
274.346
274.979
272.588
272.69
274.986
274.536
274.468
272.477
272.56
274.456
274.333
275
275
275
274.176
274.84
274.267
274.328
274.312
274.831
275
275
275
274.999
275
270.515
270.753
271.65
271.644
273.876
272.01
271.888
272.253
272.044
273.92
271.529
271.716
274.733
274.711
274.174
272.557
272.359
272.067
272.157
274.999
275
275
275
275
274.999
274.992
274.997
274.92
274.94
274.968
274.941
274.687
274.918
274.9
274.938
274.924
274.681
274.857
274.84
274.894
274.867
274.904
274.518
274.592
274.382
274.481
274.897
274.096
274.144
274.878
274.993
274.987
274.999
274.995
274.902
274.946
274.932
274.982
274.952
274.996
275
274.999
274.994
274.989
274.998
274.994
274.999
274.995
274.999
275
274.996
274.998
275
274.999
274.998
274.341
274.401
274.961
273.887
273.639
274.498
273.941
273.271
273.038
273.562
273.369
274.937
274.278
274.325
274.762
274.705
274.925
274.812
274.635
274.567
274.695
274.652
274.987
274.839
274.86
274.961
274.976
274.999
274.999
274.988
274.986
274.999
274.999
274.011
274.007
274.916
272.652
272.632
271.748
272.544
272.515
272.796
272.608
272.534
273.976
274.066
274.915
272.661
272.42
272.979
272.736
271.971
271.717
272.329
272.079
274.906
273.835
273.94
274.895
274.887
274.999
274.999
274.983
274.984
274.999
274.999
274.999
274.999
274.986
274.984
274.999
274.999
270.537
270.768
274.063
274.209
273.872
274.011
270.495
271.829
274.406
274.204
274.25
274.369
271.636
273.259
273.336
272.965
273.231
270.695
273.687
273.834
273.38
273.611
270.684
274.859
274.876
274.991
274.789
274.822
274.831
274.787
274.822
274.984
274.822
274.846
273.344
271.333
271.303
271.804
271.399
273.416
271.641
272.605
271.308
272.723
274.734
274.953
274.942
274.966
274.957
274.744
274.565
274.586
272.74
272.862
272.23
272.44
274.539
274.485
275
275
275
275
275
275
275
275
275
275
275
275
275
275
275
275
275
274.998
274.992
274.977
274.975
274.91
274.947
275
275
274.981
274.882
274.874
274.936
274.913
274.925
274.995
275
275
275
274.97
274.979
274.998
275
274.999
275
274.995
274.926
274.966
274.954
274.973
274.971
274.99
274.994
274.994
274.986
274.999
275
274.996
274.977
275
275
274.079
273.988
274.927
274.93
274.892
274.888
274.902
274.983
274.994
274.994
274.986
274.994
274.994
274.994
274.994
274.984
274.895
274.22
274.125
274.989
274.999
274.999
274.999
275
275
271.601
271.6
274.606
274.556
274.986
271.611
271.604
274.961
274.967
274.999
275
275
270.38
270.538
270.577
271.101
271.297
270.523
270.523
271.397
271.275
272.098
274.537
274.513
274.67
272.707
272.59
274.198
275
275
275
274.999
274.999
275
275
274.998
274.999
275
275
275
274.987
274.986
274.993
274.997
274.994
274.992
274.925
274.935
274.903
274.909
274.964
274.951
274.878
274.891
274.713
274.715
274.794
274.783
274.656
274.723
274.731
274.996
274.931
274.945
274.908
274.83
274.939
274.926
274.99
274.985
274.963
274.617
274.57
274.894
274.803
274.674
275
275
274.998
274.997
274.992
274.994
274.962
274.996
274.998
274.867
274.903
274.994
274.511
274.457
274.966
274.972
275
275
274.999
274.996
275
275
274.925
273.979
273.999
274.876
274.881
274.994
274.994
274.985
274.985
274.994
274.994
270.528
271.146
272.313
272.395
271.474
271.537
270.348
274.287
274.237
274.899
270.671
270.577
271.151
271.162
270.562
271.413
271.441
270.497
270.512
274.999
274.999
274.989
274.993
274.999
274.999
272.732
274.363
274.413
274.258
274.311
272.595
274.837
274.96
274.969
274.967
274.964
274.848
274.698
274.821
274.807
274.58
274.546
274.623
271.808
271.872
271.908
271.648
274.337
272.943
272.767
273.087
272.984
274.179
273.96
273.976
274.612
274.673
274.935
275
275
275
271.65
271.685
272.738
272.732
270.695
271.971
271.802
271.799
271.751
271.782
272.024
269.79
274.488
274.534
275
275
275
274.981
274.979
274.992
274.985
274.991
274.995
274.989
274.99
274.914
274.945
274.843
274.852
274.853
274.843
274.937
274.869
274.866
274.27
274.04
274.036
274.084
274.074
274.234
274.992
274.997
274.997
274.996
274.997
274.991
274.956
274.987
274.969
274.963
274.986
274.994
274.994
274.892
274.894
274.923
274.894
274.994
274.994
274.983
274.994
274.994
274.986
274.984
274.994
274.994
274.848
274.881
274.868
274.892
274.888
274.844
271.606
271.627
271.638
271.622
272.506
271.998
271.977
274.058
274.064
274.419
274.148
274.202
274.051
274.091
274.375
275
275
275
275
275
275
275
275
275
275
274.248
274.574
274.556
274.626
274.599
274.269
274.393
274.486
274.447
274.541
274.521
274.359
275
275
275
274.998
274.996
275
274.999
270.388
270.98
270.598
270.568
271.65
271.648
272.459
272.527
271.94
270.658
270.556
271.39
271.052
271.065
271.005
271.92
271.064
270.849
274.555
274.589
274.752
274.457
274.467
274.43
274.437
274.689
274.503
274.518
272.084
271.677
271.714
271.642
271.645
272.11
275
275
274.999
274.998
274.999
274.999
274.978
274.992
274.984
274.983
274.986
274.988
274.983
274.985
274.922
274.937
274.865
274.868
274.856
274.861
274.966
274.912
274.914
274.865
274.868
274.945
274.867
274.742
274.72
274.668
274.774
274.762
274.85
274.744
274.741
274.779
274.759
274.845
274.887
274.794
274.805
274.754
274.775
274.878
274.733
274.415
274.668
274.649
274.073
274.096
274.866
274.95
274.945
274.854
274.923
274.971
274.958
274.694
274.653
274.849
274.858
274.937
274.781
274.738
274.977
274.984
274.996
274.988
274.969
274.94
274.967
274.997
274.999
274.999
274.997
274.998
274.995
274.991
274.994
274.999
274.998
274.997
274.999
274.998
274.999
274.996
274.996
274.995
274.997
273.821
273.725
274.343
273.65
273.733
273.474
273.988
273.184
273.107
273.493
273.433
274.733
274.46
274.522
274.336
274.396
274.717
274.912
274.803
274.834
274.558
274.732
274.88
274.406
274.308
274.617
273.935
273.999
273.823
273.878
274.597
274.684
274.233
274.281
274.07
274.148
274.669
274.963
274.974
272.674
271.802
271.923
271.558
271.675
272.655
271.954
271.991
271.988
272.27
272.551
270.919
271.039
271.112
270.922
272.644
272.584
271.351
271.45
271.159
271.26
272.56
272.597
272.524
272.918
272.822
271.873
271.784
272.248
272.178
274.882
274.884
274.985
274.994
274.994
274.994
274.994
274.985
270.56
272.03
272.198
271.02
270.347
271.655
271.832
270.869
270.767
273.282
271.833
271.849
273.102
271.701
271.422
271.854
271.82
273.185
271.096
270.978
271.233
271.357
270.64
270.671
270.966
274.867
274.929
274.924
274.937
274.933
274.871
274.8
274.816
274.816
274.785
274.785
274.799
274.821
274.902
274.896
274.918
274.909
274.831
271.309
271.796
271.868
271.684
271.739
271.302
271.661
272.241
272.366
271.967
272.098
271.521
271.61
271.06
271.093
271.065
271.062
271.307
271.522
271.619
271.196
271.358
271.28
274.843
274.834
274.721
274.561
274.61
271.681
271.775
272.313
271.796
271.693
271.949
271.897
272.388
271.66
271.654
273.991
274.012
275
275
275
275
275
275
275
275
275
275
275
275
275
275
275
275
275
275
275
275
275
275
275
275
275
275
275
275
275
275
275
275
275
275
275
275
275
275
275
275
275
275
275
275
275
275
275
275
275
275
275
275
275
275
275
275
275
275
275
275
275
275
275
275
275
275
275
275
275
275
275
275
275
275
275
275
275
275
275
275
275
275
275
275
275
275
275
275
275
275
275
275
275
275
275
275
275
275
275
275
275
275
275
275
275
275
275
275
275
275
275
275
275
275
275
275
275
275
275
275
275
275
275
275
275
275
275
275
275
275
275
275
275
275
275
275
274.997
274.997
272.059
274.837
274.853
275
275
275
275
275
275
275
275
275
275
275
275
275
273.149
273.093
274.194
275
275
275
275
275
275
275
275
275
275
275
274.993
274.042
273.166
274.625
275
275
275
275
275
275
275
275
275
275
275
275
275
275
275
275
275
275
275
275
275
275
275
275
275
275
275
275
275
275
275
275
275
275
275
275
275
275
275
275
275
275
275
275
275
275
275
274.997
274.998
275
270.685
272.517
272.536
273.829
273.833
269.819
275
275
275
275
275
275
275
275
275
275
275
275
275
275
275
275
275
275
275
275
275
275
275
275
275
275
275
275
275
275
275
275
275
275
275
275
275
275
275
275
275
275
275
275
275
275
275
275
275
275
275
275
275
275
275
275
274.996
274.999
274.998
275
275
274.999
274.998
274.996
274.998
275
275
275
275
275
275
275
275
275
275
275
275
275
275
275
275
275
275
275
275
275
274.975
274.994
274.994
274.995
274.994
274.978
275
275
275
275
275
275
275
275
275
275
275
275
275
275
275
275
275
275
275
275
275
274.982
275
275
274.995
274.995
274.98
274.973
274.924
274.931
275
275
275
275
275
275
275
275
275
274.995
274.962
274.969
274.982
274.983
274.994
275
275
275
275
275
275
275
275
275
274.999
274.995
274.995
274.992
274.992
274.998
274.998
274.997
275
272.095
274.959
274.958
274.195
274.207
271.327
274.995
274.994
273.259
275
275
275
275
275
275
275
275
275
275
275
275
275
275
275
275
274.998
275
275
275
275
275
275
275
274.999
274.998
274.998
275
275
275
275
275
275
275
275
275
275
275
275
274.983
274.996
274.995
274.998
274.998
274.991
275
275
275
274.974
274.939
274.949
274.829
274.833
274.929
274.955
274.959
274.982
275
275
275
274.995
274.998
274.998
274.999
275
275
274.998
274.998
274.996
275
275
275
274.978
274.994
274.995
274.994
274.994
274.976
275
275
275
274.91
274.788
274.783
274.836
274.832
274.931
274.921
274.82
274.824
274.78
274.778
274.906
275
275
275
274.996
274.996
274.987
275
275
275
274.929
274.567
274.507
274.797
274.784
274.947
274.937
274.846
274.841
274.487
274.421
274.916
274.993
274.979
274.981
274.938
274.944
274.979
275
275
275
274.995
274.999
274.999
274.999
274.999
274.998
274.988
274.996
274.996
274.999
274.999
274.993
275
275
275
274.974
274.899
274.892
274.93
274.926
274.981
274.956
274.823
274.81
274.884
274.875
274.969
274.997
274.99
274.991
274.972
274.977
274.996
274.998
275
275
275
275
274.999
275
275
275
274.99
274.654
274.62
274.574
274.633
274.989
274.984
274.938
274.934
274.999
274.968
274.969
275
275
275
275
275
275
275
275
275
275
275
275
275
275
275
275
275
275
275
275
275
274.992
275
275
275
275
274.991
274.858
274.757
274.772
274.656
274.68
274.809
275
275
275
275
275
275
274.999
274.999
275
275
275
275
275
275
275
275
275
275
274.987
275
275
275
275
274.987
275
275
275
273.772
273.162
273.094
273.498
273.437
274.004
274.768
274.612
274.632
275
275
275
274.999
275
275
275
275
274.999
274.117
273.611
273.556
273.834
273.801
274.242
275
275
275
275
275
275
275
275
275
275
275
275
275
275
275
275
275
275
275
275
275
275
275
275
275
275
275
275
275
275
275
275
275
275
275
275
275
275
275
274.948
274.958
274.994
274.996
274.989
274.99
274.915
274.849
274.857
274.786
274.798
274.881
274.904
274.972
274.97
274.977
274.975
274.91
274.998
274.993
274.993
274.995
274.998
275
274.999
274.982
274.993
274.985
274.995
274.993
275
275
274.999
275
275
275
274.999
274.999
275
275
275
275
274.872
274.878
274.953
274.943
274.86
274.866
274.979
274.982
274.993
274.989
274.974
274.977
274.994
274.994
274.987
275
275
275
275
275
275
275
275
275
275
275
275
274.987
274.994
274.994
274.999
274.999
274.999
275
275
275
275
275
275
275
275
275
275
275
275
274.997
274.999
274.999
274.81
274.808
274.918
274.922
274.815
274.812
274.795
274.799
274.912
274.908
274.788
274.791
274.994
274.994
274.983
275
275
275
275
275
275
275
275
275
275
275
275
274.983
274.994
274.994
275
275
275
275
275
275
275
275
275
275
275
275
274.739
274.588
274.933
272.121
273.122
273.221
272.467
272.545
271.342
274.943
274.769
274.754
274.912
274.393
274.308
274.966
274.969
274.99
274.986
274.96
274.963
274.997
274.997
274.99
275
275
275
275
275
275
275
275
275
275
275
275
274.992
274.997
274.997
273.206
272.461
272.387
273.012
272.915
273.563
274.846
274.835
274.959
273.003
273.816
273.884
273.305
273.39
272.379
273.515
274.534
274.569
274.456
274.496
273.433
274.967
274.866
274.857
272.412
271.539
271.474
272.302
272.191
272.958
274.988
274.989
274.997
274.815
274.892
274.885
274.933
274.928
274.868
274.877
274.868
274.772
274.996
274.985
274.987
274.253
273.228
273.12
273.37
273.271
274.276
274.302
273.9
273.868
274.915
274.689
274.724
274.864
274.871
274.928
275
275
275
275
275
275
274.998
275
275
275
275
274.998
274.718
274.708
273.126
274.994
274.959
274.96
274.96
274.959
274.995
274.995
275
275
275
275
274.995
275
275
275
271.74
271.611
270.717
274.185
273.432
273.231
273.46
273.443
274.184
274.909
274.593
274.551
274.715
274.773
274.917
269.751
272.455
273.016
275
275
275
275
275
275
275
275
275
275
275
275
275
275
275
275
275
275
274.999
274.999
274.996
275
275
275
275
275
275
274.998
274.995
274.995
274.994
274.994
274.976
275
274.998
274.998
274.998
274.998
275
275
274.999
274.999
274.998
274.999
275
274.977
274.994
274.994
274.917
274.92
274.971
274.994
274.994
274.999
274.952
274.98
274.979
274.983
274.982
274.955
274.959
274.704
274.579
274.706
274.706
274.959
272.019
273.857
273.846
275
275
275
275
275
275
275
275
275
274.999
274.998
274.999
275
275
275
275
275
275
275
275
275
275
275
275
275
275
275
275
275
275
274.996
274.996
274.984
275
274.999
274.999
274.999
274.999
275
275
274.999
275
274.999
274.999
275
274.99
274.997
274.997
274.91
274.925
274.97
274.545
274.813
274.767
274.887
274.86
274.69
274.211
274.63
274.622
274.649
274.639
274.233
274.931
274.838
274.844
274.813
274.91
274.901
274.921
274.916
274.823
274.984
274.962
274.965
274.996
274.997
274.994
274.999
274.999
274.999
274.999
274.997
274.997
274.997
274.997
274.999
275
274.998
274.998
274.998
274.998
275
274.976
274.994
274.994
274.798
274.793
274.912
273.911
274.53
274.547
274.495
274.511
273.835
274.811
274.815
274.919
274.121
274.595
274.585
274.613
274.605
274.149
273.725
274.48
274.484
274.49
274.481
273.752
274.906
274.778
274.779
274.999
274.997
274.997
274.997
274.997
274.999
274.998
274.998
274.999
274.987
274.995
274.995
274.999
274.997
274.997
274.997
274.997
274.999
274.999
274.997
274.997
274.997
274.997
274.999
274.975
274.977
274.992
274.89
274.945
274.941
274.953
274.949
274.899
274.981
274.948
274.951
274.999
274.999
274.997
275
275
275
275
275
275
275
275
275
275
275
275
274.998
274.999
274.999
274.911
274.905
274.976
274.001
274.655
274.679
274.6
274.629
273.953
274.411
274.737
274.753
274.701
274.72
274.38
274.98
274.922
274.917
272.617
272.083
272.06
272.151
272.112
272.65
274.944
274.941
274.985
274.515
274.791
274.802
274.767
274.78
274.493
272.038
272.017
272.533
275
275
275
274.729
274.743
274.849
274.821
274.701
274.716
275
275
275
275
275
275
275
275
275
273.276
273.221
273.826
271.978
272.581
272.629
272.157
272.797
272.875
272.677
272.732
272.089
273.964
273.381
273.327
273.699
273.658
274.147
272.515
273.089
273.135
272.956
273.03
272.451
275
275
275
275
275
275
275
274.999
274.999
275
275
275
274.994
274.994
274.997
274.912
274.836
274.849
274.814
274.824
274.906
274.933
274.875
274.883
274.86
274.868
274.929
274.83
274.84
274.91
274.55
274.735
274.719
274.76
274.748
274.573
274.702
274.684
274.445
274.889
274.809
274.82
274.991
274.978
274.981
274.969
274.974
274.99
274.998
274.994
274.996
274.985
274.99
274.997
274.941
274.864
274.872
274.971
274.922
274.955
274.881
274.897
274.96
274.999
274.997
274.99
275
274.999
275
274.998
274.998
275
275
274.999
274.999
275
275
275
274.999
274.999
275
274.999
274.999
274.998
274.358
274.704
274.693
274.736
274.717
274.377
274.956
274.886
274.896
274.849
274.855
274.94
274.295
274.667
274.658
274.684
274.675
274.31
274.968
274.971
274.988
274.846
274.93
274.926
274.94
274.935
274.853
274.999
274.998
274.998
274.998
274.998
274.999
274.987
274.995
274.995
274.994
274.994
274.987
274.999
274.998
274.997
274.998
274.998
274.999
274.022
274.569
274.573
274.558
274.565
274.021
274.917
274.805
274.802
274.012
274.557
274.546
274.576
274.567
274.041
274.913
274.803
274.807
274.782
274.785
274.907
273.875
274.514
274.502
274.535
274.524
273.907
274.999
274.997
274.997
274.997
274.997
274.999
274.983
274.994
274.994
274.995
274.995
274.983
274.999
274.998
274.998
274.998
274.998
274.999
274.999
274.997
274.997
274.997
274.997
274.999
274.999
274.997
274.997
274.997
274.997
274.999
274.112
273.281
273.182
273.43
273.362
274.164
273.914
272.884
272.821
273.072
272.968
273.96
272.883
272.997
271.997
274.441
273.84
273.769
274.291
273.554
273.491
273.696
273.622
274.329
271.461
272.643
272.76
271.832
271.822
273.306
273.747
272.649
272.542
272.769
272.717
273.794
273.444
272.004
271.889
272.379
272.182
273.525
274.99
274.971
274.973
274.953
274.956
274.985
272.612
272.533
273.275
273.49
272.808
272.704
271.726
271.616
272.501
272.846
272.044
271.877
274.95
274.905
274.911
274.89
274.898
274.946
274.963
274.927
274.932
274.916
274.921
274.96
274.756
274.859
274.851
272.799
272.287
272.209
272.381
272.365
272.856
274.529
274.286
274.282
274.235
274.261
274.508
275
275
275
275
275
275
275
275
275
275
275
275
275
275
275
275
275
275
275
275
275
275
275
275
275
275
275
275
275
275
275
275
275
275
275
275
274.998
275
274.999
274.981
274.995
274.995
274.917
274.959
274.957
274.964
274.962
274.921
274.995
274.985
274.986
275
275
275
274.973
274.989
274.987
274.992
274.991
274.976
275
275
275
275
275
275
275
275
275
274.991
274.994
274.995
274.948
274.978
274.971
274.985
274.982
274.96
274.996
274.998
274.998
274.994
274.994
274.978
275
274.999
274.998
274.999
274.999
275
274.036
274.611
274.624
274.593
274.601
274.006
274.929
274.827
274.824
274.198
274.663
274.673
274.637
274.649
274.166
274.996
274.996
274.988
275
275
274.998
275
275
275
274.59
274.828
274.836
274.812
274.82
274.574
274.987
274.949
274.946
274.963
274.985
274.984
274.987
274.986
274.965
272.658
273.25
273.293
273.175
273.212
272.621
274.221
273.768
273.734
275
275
275
275
275
275
275
275
275
275
275
275
275
275
275
275
275
275
274.987
274.988
274.996
274.936
274.97
274.967
274.974
274.972
274.941
275
275
275
274.999
275
274.999
274.875
274.949
274.944
274.963
274.956
274.886
274.994
274.985
274.988
274.999
274.999
275
274.998
274.999
274.997
274.821
274.818
274.924
273.981
274.583
274.588
274.576
274.58
273.989
274.269
274.701
274.711
274.683
274.692
274.253
274.99
274.997
274.996
274.998
274.997
274.992
273.649
273.738
272.874
272.475
273.469
273.562
274.909
274.901
274.826
274.937
274.941
274.971
274.859
274.922
274.916
273.961
273.932
274.321
272.893
273.433
273.474
273.34
273.388
272.833
273.053
273.603
273.64
273.523
273.565
273.02
274.633
274.783
274.772
274.804
274.794
274.654
274.932
274.878
274.884
272.687
272.194
272.26
272.23
272.206
272.703
270.702
271.59
271.595
272.155
272.261
269.769
274.544
273.945
273.65
274.224
274.13
274.536
275
275
275
275
275
275
275
275
275
275
275
275
275
275
275
275
275
275
275
275
275
275
275
275
275
275
275
275
275
275
275
275
275
275
275
275
275
275
275
275
275
275
275
275
275
275
275
275
275
275
275
275
275
275
275
275
275
275
275
275
275
275
275
275
275
275
275
275
275
275
275
275
275
275
275
275
275
275
275
275
275
275
275
275
275
275
275
275
275
275
275
275
275
275
275
275
275
275
275
275
275
275
275
275
275
275
275
275
275
275
275
275
275
275
275
275
275
271.778
273.837
273.825
275
275
275
275
275
275
275
275
275
275
274.997
274.998
274.161
274.98
274.98
275
275
275
275
275
275
275
275
275
275
275
275
275
275
275
274.986
274.055
274.049
274.635
275
275
275
275
275
275
275
275
275
275
275
275
275
275
275
275
275
275
275
275
275
275
275
275
275
275
275
275
275
275
275
275
275
275
275
275
275
275
275
275
275
275
275
275
274.983
274.996
274.996
275
275
275
272.546
272.548
271.253
275
275
275
275
275
275
275
275
275
274.999
275
275
274.995
274.998
274.998
274.998
274.998
274.994
275
275
274.999
274.989
274.956
274.955
274.953
274.951
274.988
274.995
274.996
274.999
275
275
275
275
275
275
275
275
275
274.993
274.998
274.998
274.997
274.998
274.99
275
275
275
275
275
275
275
275
275
275
275
275
274.989
274.997
274.997
274.996
274.996
274.985
274.999
275
275
275
275
274.999
275
275
275
275
275
275
275
275
275
275
275
275
275
275
275
274.892
274.941
274.937
274.959
274.957
274.92
273.671
274.223
274.259
273.942
273.994
273.277
275
275
275
275
275
275
275
275
275
274.933
274.963
274.961
275
275
275
275
275
275
274.092
274.458
274.48
274.294
274.325
273.852
275
275
275
275
275
275
275
275
275
275
275
275
275
275
275
275
275
275
275
274.999
274.999
274.999
274.999
275
275
275
275
275
275
275
275
275
275
274.999
274.996
274.996
275
275
275
275
275
275
275
275
275
275
275
275
275
275
275
275
275
275
275
275
275
275
275
275
275
275
275
275
275
275
275
275
275
275
275
275
275
275
275
275
275
275
275
275
275
275
275
275
275
275
275
275
275
275
275
275
275
275
275
275
275
275
275
275
275
275
275
275
275
274.997
275
275
275
275
274.997
273.897
273.868
271.913
274.833
274.538
274.552
274.537
274.536
274.833
275
275
275
275
275
275
275
275
275
275
275
275
274.995
274.996
275
273.132
274.798
274.792
274.817
274.807
273.113
274.979
274.98
274.178
275
275
275
275
275
275
275
275
275
275
275
275
275
275
275
275
275
275
275
275
275
275
275
275
275
275
275
275
275
275
275
275
275
275
275
275
275
275
275
274.997
275
275
275
275
274.998
275
275
275
271.599
271.603
270.701
270.102
272.212
272.145
275
275
275
275
275
275
275
275
275
275
275
275
275
275
275
275
275
275
275
275
275
275
275
275
275
275
275
275
275
275
275
275
275
275
275
275
275
275
275
275
275
275
275
275
275
275
275
275
275
275
275
275
275
275
275
275
275
275
275
275
275
275
275
275
275
275
274.995
274.996
274.983
275
274.999
274.999
274.999
274.999
275
275
275
275
274.964
274.985
274.983
274.987
274.986
274.967
273.835
273.827
272.13
274.959
274.7
274.704
274.2
273.485
273.474
273.494
273.491
274.204
271.281
272.55
272.554
274.961
274.962
274.995
273.314
274.733
274.726
275
275
275
275
275
275
275
275
275
275
275
275
274.999
275
275
275
275
274.999
275
275
275
275
275
275
275
275
274.999
275
275
275
275
275
275
275
275
275
275
275
275
275
275
275
275
275
275
274.546
274.816
274.824
274.8
274.808
274.526
274.467
274.783
274.792
274.764
274.774
274.446
275
275
275
274.998
274.998
274.995
274.993
274.998
274.998
275
275
275
275
275
275
274.974
274.989
274.988
274.99
274.99
274.976
275
275
275
275
275
275
274.999
275
275
274.959
274.958
274.989
274.645
274.854
274.859
274.843
274.849
274.633
274.57
274.808
274.81
274.854
274.821
274.585
274.996
274.996
274.999
274.968
274.988
274.988
274.988
274.988
274.968
275
275
275
275
275
275
274.998
274.998
274.992
274.991
274.998
274.998
275
275
275
275
275
275
275
275
275
275
275
275
274.997
274.997
274.988
274.986
274.996
274.997
275
275
274.999
274.999
275
275
275
275
275
275
275
275
275
275
275
275
275
275
275
275
275
275
275
275
275
275
275
275
275
275
275
275
275
275
275
275
275
275
275
275
275
275
275
275
275
275
275
275
275
275
275
275
275
275
274.952
274.978
274.976
274.982
274.98
274.955
274.948
274.945
274.898
274.915
274.954
274.951
274.996
274.999
274.998
274.999
274.999
274.997
274.986
274.995
274.994
274.997
274.996
274.99
274.831
274.838
274.607
274.363
274.742
274.753
274.72
274.731
274.334
274.137
274.181
273.596
273.353
274.042
274.09
273.189
273.738
273.772
273.673
273.707
273.154
273.362
273.865
273.871
273.803
273.837