/*--------------------------------*- C++ -*----------------------------------*\
| =========                 |                                                 |
| \\      /  F ield         | OpenFOAM: The Open Source CFD Toolbox           |
|  \\    /   O peration     | Version:  5.x                                   |
|   \\  /    A nd           | Web:      www.OpenFOAM.org                      |
|    \\/     M anipulation  |                                                 |
\*---------------------------------------------------------------------------*/
FoamFile
{
    version     2.0;
    format      ascii;
    class       volVectorField;
    location    "400";
    object      U;
}
// * * * * * * * * * * * * * * * * * * * * * * * * * * * * * * * * * * * * * //

dimensions      [0 1 -1 0 0 0 0];

internalField   nonuniform List<vector> 
6584
(
(1.00007 -0.000193497 4.57298e-27)
(1.00005 -0.000424707 2.22014e-25)
(1.00007 -0.00057596 1.99131e-30)
(1.00007 -0.000782829 -3.96969e-25)
(1.00008 -0.000998751 0)
(1.00008 -0.00123368 0)
(1.00007 -0.00146065 0)
(1.00002 -0.00159978 4.03021e-25)
(0.999947 -0.0015838 4.01125e-25)
(0.999832 -0.00126033 0)
(0.999715 -0.000437078 1.45985e-25)
(0.999637 0.000820389 -2.09884e-25)
(0.999667 0.00219733 -1.05565e-26)
(0.999796 0.00324345 2.58316e-26)
(0.999944 0.00369376 7.18373e-27)
(1.0001 0.00357044 8.91884e-25)
(1.00016 0.00312686 7.91646e-25)
(1.00019 0.0025781 6.43403e-26)
(1.00017 0.00202738 5.45921e-25)
(1.00015 0.00154221 3.91373e-25)
(1.00012 0.00114734 0)
(1.0001 0.000807796 0)
(1.00008 0.000572082 5.80606e-25)
(1.0001 0.000253713 3.55415e-25)
(1.0003 -0.000406801 -2.16801e-25)
(1.00026 -0.000855993 -8.46799e-25)
(1.00031 -0.00113784 -1.13445e-24)
(1.00033 -0.00155636 0)
(1.00037 -0.00199284 -1.49155e-25)
(1.00037 -0.00248186 -1.26108e-24)
(1.00032 -0.00297941 -7.66254e-25)
(1.0001 -0.00331425 1.28861e-24)
(0.999787 -0.00334586 -8.17449e-26)
(0.999006 -0.00274251 -2.6897e-25)
(0.998093 -0.00106394 -8.33835e-29)
(0.997537 0.00158839 0)
(0.997736 0.00453134 5.35163e-25)
(0.998633 0.00673208 2.92828e-25)
(0.999775 0.00765921 -2.00615e-24)
(1.00053 0.00734583 -5.31478e-25)
(1.00082 0.00633921 -1.21581e-24)
(1.00091 0.00516548 -1.58256e-24)
(1.00084 0.00401867 -4.0343e-24)
(1.00072 0.00303358 -3.31066e-24)
(1.00058 0.00225084 -2.31749e-25)
(1.00049 0.00157498 -9.67875e-26)
(1.00038 0.00113822 0)
(1.0004 0.000526412 3.10821e-25)
(1.00066 -0.000625326 -5.48094e-25)
(1.00063 -0.0012685 0)
(1.00075 -0.00165942 -2.21216e-25)
(1.00083 -0.00229133 -1.48312e-24)
(1.00094 -0.00296244 -2.24305e-24)
(1.00098 -0.00375591 0)
(1.00088 -0.00465013 0)
(1.00038 -0.0053127 -2.80656e-25)
(0.999466 -0.0059872 -1.61384e-25)
(0.998158 -0.00404471 1.07816e-25)
(0.996634 -0.00197461 -1.85424e-25)
(0.995512 0.00151354 -2.57111e-25)
(0.99575 0.00566677 0)
(0.997368 0.00886252 0)
(0.999375 0.0102722 2.99799e-26)
(1.00136 0.0117867 -2.20722e-24)
(1.00216 0.00974114 0)
(1.00233 0.00774345 -7.22447e-25)
(1.00211 0.00589322 0)
(1.00177 0.00437775 -5.33261e-25)
(1.00142 0.00322255 -1.41117e-24)
(1.00116 0.00223233 -8.37215e-25)
(1.00092 0.00163977 0)
(1.00088 0.00078736 2.41366e-25)
(1.0011 -0.000829693 -3.36592e-25)
(1.00112 -0.00162949 0)
(1.00134 -0.00210781 -2.98086e-25)
(1.00153 -0.0029425 0)
(1.00178 -0.00385459 0)
(1.00195 -0.00501665 0)
(1.00188 -0.00646671 -3.63571e-25)
(1.0012 -0.00784773 4.26161e-24)
(0.999452 -0.00955427 -3.44396e-25)
(0.996918 -0.00752362 3.27961e-25)
(0.993572 -0.00503259 -1.98548e-25)
(0.990352 0.000617164 3.65271e-26)
(0.990293 0.00856979 4.76759e-26)
(0.994131 0.0146204 0)
(0.998789 0.0163041 -3.30867e-24)
(1.00203 0.014776 0)
(1.00471 0.0132937 0)
(1.0046 0.0102629 5.06398e-24)
(1.00402 0.00753175 3.28829e-24)
(1.00325 0.00546283 -1.09211e-24)
(1.00257 0.00397156 -7.55449e-25)
(1.00205 0.0027158 0)
(1.00161 0.00201711 3.52568e-25)
(1.00144 0.00100173 2.84921e-25)
(1.0016 -0.0010003 -1.3085e-25)
(1.00171 -0.00190489 -8.63849e-27)
(1.00205 -0.0024383 -4.12213e-26)
(1.00242 -0.00344637 -6.29673e-26)
(1.00291 -0.00456978 1.44019e-25)
(1.00341 -0.00613221 3.33885e-24)
(1.00361 -0.00826588 -5.04627e-24)
(1.00328 -0.0106343 4.8639e-24)
(0.999896 -0.0114264 2.07134e-25)
(0.996446 -0.0126069 1.43796e-24)
(0.989843 -0.0108737 -2.58408e-25)
(0.981022 -0.0024155 2.3654e-25)
(0.979702 0.0129753 -6.33262e-26)
(0.989363 0.0240531 4.82323e-24)
(0.99943 0.0250682 0)
(1.005 0.0209642 3.17795e-24)
(1.00669 0.0156885 -6.83347e-25)
(1.00778 0.0118763 -3.95944e-24)
(1.00656 0.00867263 -2.25235e-24)
(1.0051 0.00609269 9.37955e-25)
(1.00396 0.00438765 -5.17978e-26)
(1.00307 0.00295005 -2.89932e-26)
(1.0024 0.00221402 3.99735e-25)
(1.00203 0.00113735 -1.49678e-25)
(1.00212 -0.00111767 6.50958e-26)
(1.00236 -0.00205968 -1.72698e-25)
(1.00285 -0.00259798 -9.76224e-27)
(1.00348 -0.00371264 0)
(1.0043 -0.00493763 -6.95634e-25)
(1.00534 -0.00683826 -2.81493e-25)
(1.0061 -0.0091888 -2.05942e-24)
(1.0049 -0.0116953 -5.28149e-25)
(1.00281 -0.0154745 2.26222e-24)
(0.99885 -0.020309 8.30279e-24)
(0.986356 -0.0202046 1.75928e-24)
(0.969297 -0.0115277 2.58373e-28)
(0.962241 0.0167382 -8.66452e-26)
(0.983053 0.0374182 6.38555e-25)
(1.00401 0.0380756 -7.11769e-24)
(1.01135 0.0279996 0)
(1.01206 0.0195844 4.26267e-28)
(1.0119 0.0126477 7.12277e-25)
(1.00959 0.00905685 1.73859e-25)
(1.00722 0.0061037 1.0731e-24)
(1.00549 0.00435923 -3.86809e-25)
(1.00415 0.00286651 0)
(1.00321 0.00218153 -2.03849e-25)
(1.00259 0.00116504 -2.81817e-25)
(1.00261 -0.00116567 7.21808e-28)
(1.00301 -0.00206732 -8.12161e-26)
(1.00367 -0.00254586 1.02392e-25)
(1.00459 -0.00366947 9.65993e-27)
(1.00581 -0.00483069 1.54168e-26)
(1.00755 -0.00690756 -1.12636e-24)
(1.00922 -0.00925337 -1.56994e-24)
(1.00866 -0.012862 -7.8792e-26)
(1.00887 -0.0189026 -3.3876e-25)
(1.00681 -0.028546 1.20984e-24)
(0.99174 -0.0382505 0)
(0.953353 -0.039574 1.20086e-24)
(0.910706 0.0245325 4.33165e-26)
(0.981306 0.0755768 3.17681e-24)
(1.01383 0.0527392 7.07358e-27)
(1.02293 0.0333913 0)
(1.01985 0.021152 2.16964e-24)
(1.01674 0.0117335 4.92776e-25)
(1.01287 0.00830071 3.97969e-25)
(1.00941 0.00532255 -1.0124e-25)
(1.007 0.00379325 -8.33534e-25)
(1.00516 0.00241824 0)
(1.00394 0.0018874 -1.84594e-25)
(1.00304 0.00106324 -1.69614e-25)
(1.00303 -0.00113585 -8.02139e-26)
(1.00359 -0.00191909 7.11002e-26)
(1.00441 -0.00226855 3.73294e-26)
(1.00563 -0.00328104 2.73417e-26)
(1.00725 -0.00417504 -4.22216e-26)
(1.0097 -0.00610359 5.35115e-25)
(1.01248 -0.007905 1.31337e-28)
(1.01345 -0.0120561 -2.05584e-25)
(1.01726 -0.0188828 2.09697e-28)
(1.02163 -0.0311609 -3.01993e-24)
(1.0166 -0.0536029 -6.74565e-26)
(0.991327 -0.106954 2.56263e-26)
(1.02536 0.131286 5.53212e-25)
(1.04363 0.0631475 -5.69061e-25)
(1.03942 0.032391 1.20313e-24)
(1.02932 0.0186971 -2.51714e-25)
(1.02145 0.00860382 8.01104e-25)
(1.01586 0.00616505 8.16064e-25)
(1.01132 0.00366885 5.5673e-25)
(1.00826 0.0026591 -2.45941e-25)
(1.00595 0.00160169 0)
(1.00449 0.00132904 0)
(1.0033 0.000824329 -2.53299e-30)
(1.00335 -0.00103121 -1.48312e-26)
(1.00405 -0.00163156 -2.59598e-27)
(1.00497 -0.00179478 -1.147e-26)
(1.00643 -0.00258004 6.08466e-26)
(1.00836 -0.00302273 7.33636e-26)
(1.01132 -0.00444263 3.90074e-25)
(1.01503 -0.00516853 1.09493e-24)
(1.01793 -0.0088089 0)
(1.02534 -0.0137509 0)
(1.03726 -0.0224889 0)
(1.05101 -0.0430366 -1.08433e-25)
(1.08136 -0.0892921 1.36173e-26)
(1.12877 0.107228 0)
(1.08119 0.0455437 0)
(1.05479 0.0208094 0)
(1.03764 0.0111968 2.33282e-25)
(1.02477 0.00344943 0)
(1.01784 0.00276223 -8.62719e-25)
(1.01256 0.00127024 -5.69329e-25)
(1.00904 0.00103902 -5.16024e-26)
(1.00638 0.000479284 0)
(1.00475 0.000544037 8.31808e-27)
(1.00333 0.000459105 4.13531e-27)
(1.00353 -0.000867238 2.88396e-27)
(1.00433 -0.00124812 -4.42949e-27)
(1.0053 -0.00119993 5.04367e-27)
(1.00686 -0.00168559 2.67773e-26)
(1.00891 -0.00159249 -6.85683e-26)
(1.01202 -0.00227484 -5.34398e-27)
(1.01609 -0.00173955 -1.08743e-25)
(1.02046 -0.00385105 -7.08164e-27)
(1.02946 -0.00494824 0)
(1.04451 -0.00606871 -2.73827e-25)
(1.06836 -0.0122943 1.37537e-30)
(1.11628 -0.0224726 -3.47219e-26)
(1.17167 0.0185888 -9.10569e-26)
(1.10001 0.00644607 -3.36021e-25)
(1.06115 0.00167599 -2.57596e-24)
(1.04145 0.000217894 0)
(1.02567 -0.00264171 -1.66427e-24)
(1.01827 -0.00134418 0)
(1.01284 -0.00151723 -8.66937e-27)
(1.00914 -0.000862135 0)
(1.00634 -0.000818573 4.62666e-27)
(1.00466 -0.000389526 -2.76556e-27)
(1.00309 -2.04405e-06 -3.89739e-26)
(1.00359 -0.000669091 0)
(1.00443 -0.000829886 -2.4757e-26)
(1.00536 -0.000587014 -2.65135e-26)
(1.00689 -0.000768526 4.04393e-27)
(1.00886 -0.000192227 8.95149e-27)
(1.0117 -0.000138402 8.48908e-26)
(1.01547 0.00141941 3.63103e-25)
(1.02025 0.00120392 1.69232e-25)
(1.02819 0.00390724 0)
(1.04061 0.00983919 1.37505e-24)
(1.06235 0.0185506 4.29114e-25)
(1.10059 0.0398954 -1.52988e-26)
(1.1461 -0.0630465 -4.47556e-26)
(1.09142 -0.0320113 5.47803e-25)
(1.05617 -0.0172672 1.14457e-25)
(1.03943 -0.0107912 1.47815e-24)
(1.02392 -0.00823878 7.3513e-24)
(1.01705 -0.00534467 4.0823e-24)
(1.01207 -0.00421707 -2.75917e-24)
(1.00854 -0.00277349 -1.95219e-24)
(1.00582 -0.00212451 1.3284e-25)
(1.00421 -0.0013683 5.76308e-26)
(1.00258 -0.00051524 -1.3085e-25)
(1.00352 -0.000465257 3.22762e-27)
(1.00436 -0.000439075 9.9277e-27)
(1.0052 -5.48349e-05 1.34169e-26)
(1.00658 9.50487e-06 8.66323e-27)
(1.00829 0.000906787 -4.40823e-34)
(1.0106 0.00149369 1.76536e-25)
(1.0136 0.00356402 5.78874e-25)
(1.01776 0.00485581 1.95241e-25)
(1.02292 0.00970758 0)
(1.02932 0.0189131 -3.87098e-25)
(1.04096 0.0354421 -9.39391e-26)
(1.05493 0.0720379 -1.42145e-26)
(1.08518 -0.103319 -2.05365e-26)
(1.06483 -0.0538356 0)
(1.04356 -0.0296713 -2.23989e-24)
(1.03289 -0.0187767 1.8339e-24)
(1.02016 -0.0122876 1.03849e-23)
(1.01457 -0.00853093 6.84372e-24)
(1.01044 -0.00642308 0)
(1.00734 -0.00444313 -1.71303e-24)
(1.00487 -0.0032848 -9.50582e-25)
(1.00343 -0.00228924 8.45924e-26)
(1.00184 -0.00103271 -1.03354e-25)
(1.00339 -0.000280511 0)
(1.00416 -0.000122482 4.99435e-27)
(1.00487 0.000331791 -6.09585e-27)
(1.00605 0.000549044 -1.70185e-26)
(1.00744 0.00156729 0)
(1.00916 0.00239443 -5.68717e-26)
(1.01127 0.00446595 9.15098e-26)
(1.01422 0.006446 -3.0725e-26)
(1.01648 0.0114051 -4.76882e-26)
(1.01712 0.0196244 2.06559e-25)
(1.01785 0.0345274 4.05218e-26)
(1.00569 0.0624196 0)
(1.02615 -0.0984934 -2.24893e-26)
(1.0355 -0.0564575 1.90229e-25)
(1.02923 -0.0336029 1.02795e-24)
(1.0245 -0.0224915 1.31743e-25)
(1.01552 -0.0144266 4.47557e-24)
(1.01144 -0.0105439 4.76788e-24)
(1.00827 -0.00791799 0)
(1.00574 -0.00570577 -2.5486e-26)
(1.00362 -0.00419246 3.92623e-25)
(1.00241 -0.00307536 2.15283e-25)
(1.00092 -0.00151251 7.68505e-27)
(1.00321 -0.000131522 0)
(1.0039 9.63273e-05 0)
(1.00449 0.000552035 0)
(1.00545 0.000828116 0)
(1.00655 0.00179463 -1.41043e-26)
(1.00776 0.00261787 -1.37974e-26)
(1.00913 0.00426948 -1.86304e-25)
(1.01023 0.00667284 2.87111e-24)
(1.01132 0.00997546 0)
(1.00875 0.0149737 0)
(1.00435 0.0227722 6.07546e-25)
(0.983407 0.030215 2.09875e-24)
(0.548909 -0.0317896 -6.66585e-26)
(0.992294 -0.0600697 -3.83908e-24)
(1.01482 -0.0462545 -7.33772e-25)
(1.0177 -0.031138 -5.20659e-27)
(1.01668 -0.0225424 -2.93121e-26)
(1.011 -0.0149092 -1.13448e-24)
(1.00826 -0.0114056 1.95882e-25)
(1.00594 -0.00868881 3.31031e-27)
(1.00395 -0.00650847 -1.71567e-24)
(1.00221 -0.00480976 0)
(1.00123 -0.00368308 7.88703e-26)
(0.999907 -0.00192559 -2.07684e-25)
(1.00302 -2.5613e-05 0)
(1.00362 0.000215739 -3.12597e-26)
(1.00411 0.000621736 2.07474e-27)
(1.0049 0.000883711 0)
(1.00576 0.00169532 0)
(1.00664 0.00235196 -1.06907e-24)
(1.00755 0.00357772 1.77455e-25)
(1.00826 0.00498789 3.69151e-24)
(1.00824 0.00722768 4.14288e-24)
(1.00554 0.00925687 2.31474e-24)
(1.00107 0.011236 0)
(0.98863 0.00647264 -2.24611e-25)
(0.815865 -0.0264934 1.23475e-25)
(0.990688 -0.034667 -4.05466e-25)
(1.00496 -0.0309516 3.7474e-25)
(1.01054 -0.0257563 -3.84312e-25)
(1.00873 -0.0182314 7.18534e-25)
(1.00722 -0.0142071 -1.60496e-25)
(1.0054 -0.011341 2.79814e-28)
(1.0037 -0.00885453 -3.137e-27)
(1.00219 -0.00689615 0)
(1.00078 -0.00515018 -7.29404e-25)
(0.999998 -0.00410335 -8.86658e-25)
(0.998853 -0.00225793 -2.70208e-25)
(1.00286 3.73726e-05 9.65387e-28)
(1.00338 0.000248935 -3.24852e-26)
(1.00379 0.000575656 5.04814e-26)
(1.00445 0.000778319 6.63884e-30)
(1.00517 0.00139256 -1.90428e-25)
(1.00587 0.00182403 -7.86372e-25)
(1.0066 0.00258726 -2.02801e-24)
(1.00712 0.00335308 -2.68927e-24)
(1.00695 0.00443957 -9.63876e-25)
(1.0053 0.00455288 -1.36116e-25)
(1.00307 0.00291766 0)
(0.996744 -0.000926414 -8.9603e-26)
(0.848408 -0.0216731 -9.29095e-25)
(0.996227 -0.0211087 -1.27283e-25)
(1.00282 -0.0227459 -1.15538e-25)
(1.00674 -0.0205569 -1.9805e-25)
(1.00559 -0.0158411 -3.16634e-24)
(1.00441 -0.01306 0)
(1.00306 -0.0107654 -5.37405e-25)
(1.00172 -0.00862016 -2.02622e-25)
(1.00054 -0.00695201 -2.06715e-26)
(0.999396 -0.00525831 1.44346e-25)
(0.998786 -0.00434456 0)
(0.99782 -0.00250401 0)
(1.00274 6.22615e-05 -7.10359e-28)
(1.00318 0.000215934 1.19482e-27)
(1.00355 0.00045241 2.9827e-26)
(1.00413 0.000576407 0)
(1.00479 0.000987911 -9.70262e-26)
(1.00543 0.00121327 0)
(1.00618 0.0015377 -1.70101e-24)
(1.00679 0.00186586 6.82663e-25)
(1.00726 0.0015279 -3.24326e-26)
(1.00619 0.00143717 -7.32131e-26)
(1.00622 -0.000900733 3.05525e-25)
(1.00059 -0.00712358 -1.34125e-25)
(0.911531 -0.0173393 -1.08057e-24)
(0.998868 -0.0170575 6.53178e-26)
(1.00268 -0.017462 2.92523e-25)
(1.00486 -0.016394 1.00441e-25)
(1.0033 -0.0136141 -1.49387e-24)
(1.00237 -0.0116048 1.74439e-24)
(1.00119 -0.00991521 0)
(1.00007 -0.00812984 6.08085e-25)
(0.999099 -0.00678029 -7.46231e-26)
(0.99814 -0.00519612 1.61129e-25)
(0.997648 -0.00444225 0)
(0.996839 -0.002672 0)
(1.00267 5.59642e-05 8.61161e-27)
(1.00306 0.000137728 2.64271e-27)
(1.00341 0.000286227 -2.18662e-26)
(1.00394 0.000332465 1.59213e-26)
(1.0046 0.000560491 0)
(1.00525 0.000636016 0)
(1.00613 0.000641378 -4.0053e-25)
(1.00695 0.000695508 -8.36085e-26)
(1.00801 -6.21024e-05 1.42052e-25)
(1.00755 -0.000649383 -5.37608e-25)
(1.00838 -0.00278177 0)
(0.99927 -0.00615943 -4.32486e-25)
(0.92157 -0.0163751 -2.57027e-24)
(1.0019 -0.0126668 5.2329e-25)
(1.0032 -0.0126848 9.72591e-25)
(1.00371 -0.011804 2.56621e-24)
(1.00198 -0.0115817 1.41824e-24)
(1.00099 -0.0100637 1.43287e-24)
(0.999764 -0.00897463 -2.29105e-25)
(0.998738 -0.00749881 -1.53324e-25)
(0.997864 -0.00646461 -3.16559e-25)
(0.997034 -0.00501605 -1.13904e-24)
(0.996614 -0.00442675 3.80958e-28)
(0.995938 -0.00277055 -6.20266e-26)
(1.00265 2.55461e-05 4.57716e-27)
(1.00299 3.25479e-05 3.50687e-27)
(1.00335 0.000102641 -2.40946e-26)
(1.00386 8.39952e-05 -1.26159e-26)
(1.00455 0.000157182 0)
(1.00524 0.000148228 0)
(1.00629 -8.20074e-05 1.03203e-24)
(1.00727 -4.02885e-05 2.23801e-25)
(1.00892 -0.00119476 -2.61202e-25)
(1.00862 -0.000625965 -8.12055e-25)
(1.01046 -0.0052631 0)
(0.962675 0.000614679 -1.1455e-24)
(0.960791 -0.0128898 4.71478e-26)
(1.0056 -0.00695744 2.5426e-25)
(1.00337 -0.0112881 1.70563e-25)
(1.00364 -0.00960053 -5.70258e-25)
(1.00128 -0.0100196 -4.29529e-25)
(1.00008 -0.00871364 2.33352e-25)
(0.998697 -0.00808496 -5.61695e-26)
(0.997686 -0.00682605 -1.08109e-24)
(0.996832 -0.00607778 -3.57822e-25)
(0.996085 -0.00476505 -1.47352e-24)
(0.995697 -0.00432967 0)
(0.995131 -0.00281207 -2.09601e-25)
(1.00268 -2.29433e-05 -6.00576e-27)
(1.00299 -8.59742e-05 -4.0507e-27)
(1.00336 -8.24905e-05 0)
(1.00386 -0.000148578 -1.86041e-27)
(1.00461 -0.000205919 0)
(1.00534 -0.000241321 -4.13991e-25)
(1.00655 -0.000676883 -1.54519e-25)
(1.00762 -0.000509037 5.6793e-26)
(1.00964 -0.00207348 -1.83422e-25)
(1.00952 -0.000831415 -2.30555e-25)
(1.0108 -0.0058137 -1.31408e-25)
(0.964774 -0.000385156 -2.20461e-24)
(0.962909 -0.0105634 1.05069e-24)
(1.00585 -0.00512001 -2.30894e-25)
(1.00372 -0.00992206 -9.11082e-26)
(1.0036 -0.00776624 -1.44939e-26)
(1.00081 -0.00878358 -2.40787e-25)
(0.999443 -0.00752783 -2.93523e-25)
(0.99789 -0.00728251 -6.13697e-25)
(0.99686 -0.00616402 -1.62491e-25)
(0.995979 -0.00566778 -9.85851e-26)
(0.995281 -0.00447712 -4.87683e-25)
(0.994899 -0.00417896 -2.07884e-25)
(0.994419 -0.00280812 -9.29035e-26)
(1.00275 -8.48432e-05 0)
(1.00303 -0.000208541 -1.31631e-26)
(1.00342 -0.000260466 -2.33508e-26)
(1.00393 -0.000355352 8.96925e-27)
(1.00474 -0.000524944 1.66628e-25)
(1.0055 -0.000540523 -6.10242e-25)
(1.00687 -0.00116231 0)
(1.00801 -0.000814202 -2.00212e-25)
(1.01025 -0.00268495 0)
(1.01042 -0.00100513 0)
(1.01135 -0.00583871 9.0451e-28)
(0.966439 -0.000766613 6.07586e-27)
(0.964531 -0.00907395 4.1227e-25)
(1.00636 -0.0040078 -1.39263e-25)
(1.0042 -0.00876822 -3.17758e-26)
(1.0036 -0.00632542 -7.50903e-27)
(1.0005 -0.00778817 4.1317e-26)
(0.998993 -0.00648951 -1.28668e-25)
(0.997275 -0.0065753 -1.60985e-25)
(0.996212 -0.00553738 2.62302e-25)
(0.995277 -0.00526212 -9.78913e-26)
(0.994608 -0.00417485 0)
(0.994212 -0.00399572 4.68959e-30)
(0.9938 -0.00276857 0)
(1.00285 -0.000156793 0)
(1.00312 -0.000329264 -2.36342e-26)
(1.00354 -0.000427046 -1.51596e-26)
(1.00404 -0.000532716 3.02703e-26)
(1.00492 -0.000800153 0)
(1.0057 -0.000762323 5.89749e-26)
(1.00719 -0.00154608 -5.74466e-25)
(1.00842 -0.00100386 -4.43124e-25)
(1.01078 -0.00307306 -5.78799e-26)
(1.01121 -0.00109663 -1.65671e-27)
(1.01184 -0.00569551 3.37851e-25)
(0.967464 -0.000948443 -2.76925e-25)
(0.965502 -0.00797225 5.12915e-25)
(1.00685 -0.00323023 -1.07833e-25)
(1.00464 -0.00784265 1.12952e-25)
(1.00364 -0.00521134 4.37916e-27)
(1.00033 -0.00698369 -9.84142e-26)
(0.998675 -0.00559848 8.9075e-26)
(0.996806 -0.00596489 2.11226e-25)
(0.995702 -0.00496013 -3.91812e-30)
(0.9947 -0.00487743 -4.64898e-26)
(0.994047 -0.00387294 -2.97302e-25)
(0.993624 -0.00379524 1.55295e-25)
(0.993264 -0.00270156 1.41996e-25)
(1.00298 -0.000236519 -1.7699e-26)
(1.00323 -0.000444911 -3.1693e-26)
(1.00368 -0.000580983 -9.06755e-34)
(1.00419 -0.000681447 7.71015e-26)
(1.00512 -0.00103488 2.13939e-25)
(1.00593 -0.000922753 4.31805e-26)
(1.00752 -0.00184401 -5.8483e-25)
(1.00881 -0.00111787 -4.04549e-25)
(1.01123 -0.00331333 2.3204e-25)
(1.01185 -0.00114793 0)
(1.01219 -0.00549445 6.70808e-26)
(0.968176 -0.00102971 -1.0334e-25)
(0.966158 -0.00711843 1.57192e-25)
(1.00725 -0.00265115 -8.35769e-26)
(1.00502 -0.00708233 -6.03801e-31)
(1.00369 -0.0043375 -1.65854e-25)
(1.00024 -0.00632646 -8.01475e-26)
(0.998445 -0.00484221 -1.598e-26)
(0.996447 -0.00544359 1.12056e-25)
(0.9953 -0.00443834 -1.52374e-25)
(0.994225 -0.00452247 -2.53748e-25)
(0.99358 -0.00358061 -1.25174e-25)
(0.993125 -0.00358858 -1.33574e-25)
(0.992804 -0.00261358 1.23412e-25)
(1.00313 -0.000322534 -3.36691e-34)
(1.00337 -0.000554229 -1.87728e-26)
(1.00384 -0.00072276 2.20689e-26)
(1.00435 -0.000804903 4.39015e-26)
(1.00533 -0.00123428 3.43537e-29)
(1.00617 -0.0010372 0)
(1.00782 -0.00207361 -3.04516e-26)
(1.00918 -0.0011849 -3.88758e-25)
(1.01161 -0.00345419 1.98233e-25)
(1.01238 -0.00117401 0)
(1.01245 -0.00526826 -1.40711e-30)
(0.968703 -0.00104837 7.8364e-26)
(0.966627 -0.00644865 -1.61086e-25)
(1.00759 -0.0022159 0)
(1.00533 -0.00645376 3.86197e-27)
(1.00374 -0.00364683 3.77156e-26)
(1.0002 -0.00578439 0)
(0.998273 -0.00420342 3.95401e-26)
(0.99617 -0.00500022 3.65687e-26)
(0.994978 -0.00397243 -4.10379e-25)
(0.993833 -0.00420049 -1.06348e-25)
(0.99319 -0.0033031 1.05984e-25)
(0.992699 -0.00338287 -1.39644e-25)
(0.992408 -0.00250976 0)
(1.0033 -0.000413926 2.20366e-26)
(1.00352 -0.000657153 -2.07417e-26)
(1.00402 -0.000853791 0)
(1.00453 -0.000907444 2.75784e-26)
(1.00555 -0.00140399 8.95347e-26)
(1.0064 -0.00111859 2.26954e-26)
(1.0081 -0.00224981 0)
(1.00952 -0.00122298 5.99118e-27)
(1.01194 -0.00352822 1.82263e-25)
(1.01282 -0.00118565 0)
(1.01265 -0.00504206 4.61539e-26)
(0.969093 -0.00103292 3.01462e-26)
(0.966955 -0.00591368 -1.0877e-25)
(1.00787 -0.00188402 1.3775e-26)
(1.0056 -0.00593353 -4.19807e-26)
(1.00379 -0.0030992 -1.96336e-27)
(1.00018 -0.00533462 2.72248e-26)
(0.99814 -0.00366597 -1.0072e-26)
(0.995951 -0.00462377 6.49874e-28)
(0.994717 -0.00356012 -1.46463e-25)
(0.993507 -0.00391185 5.53393e-26)
(0.992861 -0.00304306 5.88774e-26)
(0.992334 -0.00318296 -2.3888e-26)
(0.992066 -0.0023941 -1.36766e-26)
(1.00347 -0.000510064 -3.11433e-27)
(1.00368 -0.000754307 -3.15152e-26)
(1.0042 -0.000975705 -7.97878e-27)
(1.00471 -0.000993453 0)
(1.00577 -0.00154934 4.57875e-25)
(1.00663 -0.00117729 0)
(1.00836 -0.00238524 -2.7032e-25)
(1.00982 -0.00124458 0)
(1.01222 -0.0035589 1.53821e-25)
(1.01318 -0.0011918 1.00442e-25)
(1.01277 -0.00482823 0)
(0.969378 -0.0010068 2.36426e-26)
(0.967183 -0.00548309 0)
(1.00812 -0.00163009 1.08967e-26)
(1.00583 -0.00550023 -1.11974e-26)
(1.00383 -0.0026643 0)
(1.00018 -0.0049596 0)
(0.998032 -0.00321593 -8.49392e-27)
(0.995775 -0.00430444 1.29417e-26)
(0.994501 -0.00319815 0)
(0.993232 -0.00365501 0)
(0.992582 -0.00280159 5.40029e-26)
(0.99202 -0.00299163 1.14434e-26)
(0.991767 -0.00226979 -4.16897e-26)
(1.00364 -0.000610434 3.23569e-27)
(1.00385 -0.000846548 3.03396e-27)
(1.00438 -0.00109011 0)
(1.00489 -0.001067 -9.95068e-27)
(1.00598 -0.00167511 2.38626e-25)
(1.00685 -0.00122124 1.27487e-26)
(1.0086 -0.00249042 -2.33936e-25)
(1.0101 -0.0012586 2.69261e-27)
(1.01246 -0.00356367 0)
(1.01347 -0.00119582 9.34133e-26)
(1.01283 -0.00463502 0)
(0.96958 -0.000986249 0)
(0.967352 -0.00513284 0)
(1.00833 -0.00143418 4.76421e-26)
(1.00601 -0.0051369 9.08601e-26)
(1.00386 -0.00231985 0)
(1.00018 -0.00464589 -1.87108e-27)
(0.99794 -0.00284144 0)
(0.99563 -0.00403378 0)
(0.994317 -0.00288269 0)
(0.992995 -0.00342771 0)
(0.992339 -0.00257945 -5.42078e-26)
(0.991745 -0.0028106 -4.32076e-26)
(0.991503 -0.00213987 8.39165e-31)
(1.0038 -0.000714453 0)
(1.00401 -0.000934637 1.11617e-26)
(1.00456 -0.00119826 -2.62064e-26)
(1.00506 -0.00113129 2.40138e-26)
(1.00617 -0.00178528 2.2713e-25)
(1.00706 -0.00125634 4.47086e-25)
(1.00881 -0.00257382 0)
(1.01035 -0.00127136 0)
(1.01267 -0.00355552 1.42901e-26)
(1.01372 -0.00120323 1.22014e-26)
(1.01285 -0.00446862 -2.75193e-33)
(0.969723 -0.000973126 3.28724e-27)
(0.967464 -0.00484408 1.35386e-25)
(1.00851 -0.00128408 3.61913e-26)
(1.00617 -0.00483762 3.39802e-27)
(1.00388 -0.0020473 0)
(1.00018 -0.00438442 -6.39187e-26)
(0.997857 -0.00253048 -9.0569e-26)
(0.995505 -0.00380487 0)
(0.994154 -0.00260874 -9.16046e-26)
(0.992788 -0.00322771 -7.82283e-41)
(0.992123 -0.00237574 1.30646e-25)
(0.991499 -0.00264098 8.09041e-26)
(0.991263 -0.00200628 6.64781e-26)
(1.00397 -0.000821353 -2.57671e-26)
(1.00417 -0.00101901 8.16146e-27)
(1.00473 -0.0013009 -1.1731e-26)
(1.00523 -0.00118875 4.67799e-26)
(1.00636 -0.0018829 2.01912e-25)
(1.00726 -0.00128681 8.5144e-25)
(1.00901 -0.00264185 0)
(1.01057 -0.00128622 0)
(1.01285 -0.00354276 1.27406e-26)
(1.01393 -0.00121789 0)
(1.01284 -0.00432988 0)
(0.969823 -0.000971479 0)
(0.96753 -0.00460913 0)
(1.00867 -0.00117404 -2.6228e-26)
(1.0063 -0.00459286 -5.7371e-26)
(1.0039 -0.00183391 -5.15896e-26)
(1.00018 -0.00416792 -1.0184e-25)
(0.997779 -0.00227424 -7.64187e-26)
(0.995393 -0.00361225 0)
(0.994007 -0.00237249 -2.26048e-26)
(0.992602 -0.00305294 0)
(0.991926 -0.00219009 0)
(0.991275 -0.00248351 3.75087e-26)
(0.991041 -0.00187101 3.25345e-26)
(1.00412 -0.000930049 -1.9427e-26)
(1.00432 -0.00109967 -1.44184e-26)
(1.00489 -0.0013982 -6.27906e-27)
(1.0054 -0.00124093 6.99695e-27)
(1.00653 -0.00197012 -5.62443e-34)
(1.00745 -0.00131557 4.00728e-25)
(1.00919 -0.00269934 0)
(1.01078 -0.00130526 -3.34328e-26)
(1.01302 -0.00353108 6.12538e-28)
(1.01411 -0.0012424 -1.06411e-26)
(1.01281 -0.00421938 4.93957e-26)
(0.969888 -0.000984594 -9.13122e-27)
(0.96756 -0.00442257 4.28833e-26)
(1.0088 -0.00109999 0)
(1.00641 -0.00439547 0)
(1.0039 -0.0016703 9.34239e-28)
(1.00017 -0.00399071 4.12589e-26)
(0.997701 -0.00206554 3.15324e-31)
(0.995289 -0.00345179 -3.75408e-26)
(0.993868 -0.00217072 0)
(0.992429 -0.00290163 0)
(0.99174 -0.00202236 1.38429e-26)
(0.991065 -0.00233887 0)
(0.990828 -0.00173608 0)
(1.00426 -0.00103901 0)
(1.00446 -0.00117588 -1.98846e-26)
(1.00504 -0.00148966 -1.6391e-26)
(1.00555 -0.00128831 -2.49021e-26)
(1.0067 -0.0020482 0)
(1.00763 -0.00134404 0)
(1.00936 -0.00274937 0)
(1.01097 -0.0013301 -2.60092e-26)
(1.01317 -0.00352503 0)
(1.01426 -0.00127912 -3.04199e-27)
(1.01277 -0.00413847 1.75745e-26)
(0.969925 -0.00101581 -8.89553e-27)
(0.96756 -0.00428086 3.19519e-26)
(1.00892 -0.00105947 1.80757e-26)
(1.00649 -0.00424038 3.48273e-26)
(1.0039 -0.00154956 0)
(1.00016 -0.00384828 -3.27052e-26)
(0.997622 -0.00189857 -4.06541e-26)
(0.99519 -0.00332022 0)
(0.993733 -0.00200075 0)
(0.992266 -0.00277266 0)
(0.991559 -0.00187273 1.35313e-26)
(0.990863 -0.00220801 0)
(0.990618 -0.0016037 0)
(1.00438 -0.00114597 1.6851e-27)
(1.00459 -0.00124629 -1.29923e-26)
(1.00518 -0.00157388 5.38494e-27)
(1.0057 -0.00133061 0)
(1.00685 -0.00211717 3.67466e-26)
(1.0078 -0.00137129 1.46433e-26)
(1.00952 -0.00279348 0)
(1.01115 -0.00136067 -1.24928e-26)
(1.01331 -0.00352703 -2.36443e-27)
(1.0144 -0.00132971 -1.34375e-26)
(1.01271 -0.00408971 -2.10999e-27)
(0.969938 -0.00106882 -1.41496e-26)
(0.967538 -0.00418227 4.28091e-26)
(1.00901 -0.00105136 3.46672e-28)
(1.00656 -0.00412372 -2.54516e-28)
(1.00388 -0.00146632 1.98141e-26)
(1.00014 -0.00373706 9.08686e-28)
(0.997536 -0.00176854 -3.68116e-27)
(0.995091 -0.00321483 0)
(0.993596 -0.00186044 -2.8591e-26)
(0.992107 -0.00266521 -2.48301e-26)
(0.991378 -0.00174177 0)
(0.990663 -0.00209231 3.46383e-26)
(0.990403 -0.00147655 1.48482e-26)
(1.00448 -0.00124753 0)
(1.00471 -0.00130857 -1.06143e-26)
(1.00531 -0.0016488 -7.15033e-27)
(1.00585 -0.00136727 -2.35761e-27)
(1.00699 -0.00217643 0)
(1.00797 -0.00139672 1.8429e-25)
(1.00967 -0.00283237 -5.19652e-26)
(1.01133 -0.00139568 -2.76131e-26)
(1.01345 -0.00353839 4.52524e-27)
(1.01454 -0.00139521 1.69817e-26)
(1.01265 -0.00407869 -1.57433e-27)
(0.969929 -0.00114946 -4.17537e-26)
(0.967497 -0.00412744 1.0626e-26)
(1.00908 -0.00107566 -4.36197e-30)
(1.00661 -0.00404219 -1.73345e-26)
(1.00385 -0.00141577 -1.17237e-26)
(1.00011 -0.00365372 2.06094e-27)
(0.997442 -0.00167137 -3.94497e-27)
(0.994994 -0.00313365 0)
(0.993456 -0.00174849 -1.86693e-26)
(0.991953 -0.00257926 -1.95288e-26)
(0.991194 -0.00163093 0)
(0.990464 -0.00199388 1.10795e-26)
(0.990181 -0.00135829 -1.6265e-26)
(1.00456 -0.00133924 -6.15809e-27)
(1.00482 -0.00136001 8.22331e-27)
(1.00542 -0.00171185 -2.00847e-26)
(1.006 -0.00139623 -1.82254e-27)
(1.00713 -0.00222465 2.57453e-26)
(1.00815 -0.00141879 2.04528e-25)
(1.00982 -0.00286542 -2.00358e-26)
(1.01153 -0.00143247 -6.56488e-27)
(1.01359 -0.00355864 6.59382e-27)
(1.01469 -0.00147384 3.70697e-26)
(1.01259 -0.0041126 1.06898e-26)
(0.969894 -0.00126523 2.95057e-26)
(0.967439 -0.00411895 8.56863e-28)
(1.00912 -0.00113333 0)
(1.00664 -0.00399223 -9.87406e-27)
(1.00379 -0.0013929 -4.89501e-27)
(1.00007 -0.0035948 1.13758e-27)
(0.997332 -0.0016031 0)
(0.994897 -0.00307448 2.06739e-27)
(0.993301 -0.00166349 2.97652e-27)
(0.991797 -0.00251434 -1.4304e-26)
(0.990993 -0.00154175 -2.11299e-26)
(0.990257 -0.00191483 7.65544e-27)
(0.989934 -0.0012534 0)
(1.00461 -0.00141076 -3.32612e-27)
(1.00491 -0.0013949 7.70661e-27)
(1.0055 -0.00175679 -6.46763e-27)
(1.00613 -0.00141435 0)
(1.00723 -0.00225782 0)
(1.00831 -0.00143437 -4.49989e-26)
(1.00994 -0.00288886 2.37303e-26)
(1.01171 -0.00146446 1.61156e-26)
(1.01372 -0.00358378 1.53222e-26)
(1.01484 -0.00156163 -3.07614e-27)
(1.01255 -0.00422294 -2.99333e-26)
(0.969842 -0.00143865 0)
(0.967378 -0.00416288 0)
(1.00913 -0.00122478 0)
(1.00665 -0.00396814 0)
(1.00372 -0.00139023 -1.6785e-27)
(1.00004 -0.00355748 0)
(0.99722 -0.00156167 0)
(0.994815 -0.00303667 1.8164e-27)
(0.993153 -0.00160735 0)
(0.991664 -0.00247217 0)
(0.990805 -0.00147977 0)
(0.990072 -0.00186064 6.94033e-27)
(0.9897 -0.00117239 0)
(1.00464 -0.00146244 0)
(1.00507 -0.00141666 -1.3307e-27)
(1.00558 -0.00178687 -3.71467e-27)
(1.00636 -0.0014247 -6.40317e-28)
(1.00735 -0.00227976 5.80216e-27)
(1.00861 -0.00144484 -7.60415e-26)
(1.01008 -0.00290394 4.49874e-27)
(1.01205 -0.00148849 4.18819e-30)
(1.01392 -0.00360744 2.70998e-33)
(1.01521 -0.00163264 -6.06656e-31)
(1.01263 -0.00439178 -4.47833e-26)
(0.969649 -0.00167093 0)
(0.967259 -0.00426554 -2.86303e-26)
(1.00899 -0.00135658 -3.34703e-26)
(1.00663 -0.00396107 9.58768e-28)
(1.00355 -0.00139916 -5.51078e-28)
(1.00002 -0.00353362 0)
(0.996994 -0.00153793 0)
(0.994728 -0.00301305 0)
(0.992882 -0.00157239 0)
(0.991491 -0.00244587 0)
(0.990478 -0.00143906 0)
(0.989801 -0.00182565 4.84013e-27)
(0.989293 -0.00111409 0)
(1.07303 -0.09612 1.8494e-26)
(1.12456 0.127109 7.02594e-26)
(1.01673 0.146963 2.91493e-25)
(1.11486 -0.0314132 -3.40775e-26)
(1.17963 0.0316913 -1.08107e-26)
(1.1359 0.11712 -5.73906e-26)
(1.10466 0.0335177 -1.35919e-26)
(1.15798 -0.0687939 -1.57443e-25)
(1.18095 0.0179824 -4.69898e-26)
(1.06166 0.0700385 -9.2749e-26)
(1.0949 -0.110711 2.1789e-25)
(1.15143 -0.0772019 0)
(1.01052 0.0655222 7.61885e-30)
(1.02901 -0.108468 -1.62596e-25)
(1.08607 -0.112887 1.60672e-25)
(0.984581 0.0344729 0)
(0.539799 0.0132111 -8.48132e-26)
(0.526745 -0.0357421 1.41153e-25)
(0.988798 -0.0711939 7.98187e-25)
(1.02191 -0.105356 -2.43894e-25)
(0.980104 -0.100509 1.96024e-25)
(0.909421 0.00433349 4.37406e-26)
(1.00163 0.139472 4.29646e-25)
(0.961929 0.0679157 1.01882e-24)
(1.04327 -0.0483654 -1.28332e-25)
(1.06874 -0.086113 5.29245e-27)
(1.00018 -0.0962065 -2.50914e-25)
(1.08188 0.24041 0)
(0.952778 0.227991 -2.37484e-25)
(1.11853 0.115903 0)
(1.07901 0.0646898 1.25234e-26)
(1.04276 0.0750158 -1.4013e-24)
(1.06629 -0.0207731 1.2763e-25)
(1.1077 -0.0287766 -3.28435e-26)
(1.07634 -0.0800967 6.19446e-27)
(1.10083 -0.0660469 -5.86137e-27)
(1.13048 -0.0816693 5.30936e-27)
(1.1057 -0.121422 -7.4037e-27)
(1.1982 0.0970677 8.35045e-26)
(1.16813 0.169739 3.09494e-26)
(1.17 0.0304598 4.97899e-27)
(1.10886 0.0219685 -4.03211e-25)
(1.08933 0.0562253 1.47992e-25)
(1.06575 0.0117494 2.72817e-25)
(1.09963 0.030081 1.19292e-26)
(1.10914 -0.0205106 -3.03585e-28)
(1.11555 0.00351433 2.19427e-30)
(1.14198 0.0134426 -3.35975e-26)
(1.14545 -0.0289204 -8.02206e-28)
(1.21125 -0.0217051 2.26835e-27)
(1.21984 0.0478999 -4.01619e-26)
(1.15246 -0.0546797 -1.77358e-25)
(1.10461 -0.0272791 5.96757e-26)