/*--------------------------------*- C++ -*----------------------------------*\
| =========                 |                                                 |
| \\      /  F ield         | OpenFOAM: The Open Source CFD Toolbox           |
|  \\    /   O peration     | Version:  5.x                                   |
|   \\  /    A nd           | Web:      www.OpenFOAM.org                      |
|    \\/     M anipulation  |                                                 |
\*---------------------------------------------------------------------------*/
FoamFile
{
    version     2.0;
    format      ascii;
    class       volScalarField;
    location    "400";
    object      xf;
}
// * * * * * * * * * * * * * * * * * * * * * * * * * * * * * * * * * * * * * //

dimensions      [0 0 0 0 0 0 0];

internalField   nonuniform List<scalar> 
6584
(
0.211947
0.211947
0.211947
0.211947
0.211947
0.211947
0.211947
0.211948
0.211948
0.211948
0.211948
0.211948
0.211948
0.211948
0.211948
0.211948
0.211948
0.211947
0.211947
0.211947
0.211947
0.211947
0.211947
0.211947
0.211716
0.211716
0.211716
0.211716
0.211716
0.211716
0.211717
0.211717
0.211718
0.211718
0.211718
0.211718
0.211718
0.211718
0.211718
0.211718
0.211717
0.211717
0.211717
0.211716
0.211716
0.211716
0.211716
0.211715
0.211484
0.211485
0.211485
0.211485
0.211485
0.211485
0.211486
0.211487
0.211488
0.211603
0.211603
0.211603
0.211603
0.211603
0.211603
0.211488
0.211487
0.211487
0.211486
0.211485
0.211485
0.211485
0.211485
0.211484
0.211253
0.211253
0.211254
0.211254
0.211254
0.211254
0.211255
0.211257
0.211258
0.211372
0.211372
0.211371
0.211371
0.211372
0.211372
0.211373
0.211256
0.211256
0.211255
0.211255
0.211254
0.211254
0.211254
0.211253
0.211022
0.211022
0.211023
0.211023
0.211024
0.211024
0.211024
0.211024
0.211141
0.211141
0.21114
0.211138
0.211138
0.211139
0.211141
0.211141
0.211141
0.211026
0.211025
0.211024
0.211024
0.211023
0.211023
0.211022
0.210791
0.210792
0.210792
0.210792
0.210793
0.210794
0.210794
0.210909
0.210908
0.210907
0.210964
0.210961
0.210961
0.210963
0.210909
0.210911
0.210911
0.210797
0.210795
0.210794
0.210793
0.210793
0.210792
0.210792
0.210561
0.210561
0.210561
0.210562
0.210563
0.210564
0.210565
0.210679
0.210678
0.210676
0.210727
0.210751
0.210747
0.210725
0.210735
0.210682
0.210683
0.21057
0.210566
0.210565
0.210563
0.210562
0.210562
0.210561
0.21033
0.21033
0.210331
0.210332
0.210333
0.210334
0.210337
0.21045
0.210449
0.210449
0.210495
0.210504
0.210513
0.210507
0.210457
0.210456
0.210343
0.210338
0.210336
0.210334
0.210332
0.210331
0.210331
0.2101
0.2101
0.210101
0.210102
0.210103
0.210105
0.210109
0.210222
0.210222
0.210225
0.21027
0.21028
0.210291
0.210286
0.210235
0.210232
0.210117
0.21011
0.210107
0.210105
0.210103
0.210101
0.2101
0.209869
0.20987
0.209871
0.209872
0.209874
0.209877
0.209881
0.209995
0.209997
0.210003
0.210052
0.210069
0.210087
0.210072
0.210016
0.210009
0.209892
0.209883
0.209878
0.209875
0.209873
0.209871
0.20987
0.209639
0.20964
0.209641
0.209643
0.209645
0.209648
0.209654
0.209768
0.209772
0.209781
0.209834
0.209859
0.209885
0.20986
0.209797
0.209786
0.209666
0.209656
0.20965
0.209646
0.209643
0.209641
0.20964
0.209409
0.20941
0.209411
0.209413
0.209416
0.209419
0.209426
0.20954
0.209547
0.209558
0.209614
0.209642
0.209675
0.209644
0.209576
0.209563
0.20944
0.209428
0.209422
0.209417
0.209413
0.209411
0.209409
0.209178
0.209179
0.209181
0.209183
0.209186
0.209191
0.209198
0.209313
0.20932
0.209332
0.209389
0.209416
0.209452
0.209422
0.209353
0.209338
0.209213
0.2092
0.209193
0.209187
0.209183
0.20918
0.209178
0.208948
0.208949
0.208951
0.208954
0.208957
0.208962
0.208969
0.208973
0.209091
0.209102
0.209156
0.209172
0.139135
0.209185
0.209195
0.209127
0.209111
0.208986
0.208972
0.208964
0.208957
0.208953
0.20895
0.208948
0.208718
0.208719
0.208721
0.208724
0.208728
0.208732
0.208739
0.208741
0.208859
0.208869
0.208923
0.208906
0.188557
0.208948
0.208901
0.208898
0.208763
0.208755
0.208741
0.208733
0.208727
0.208722
0.208719
0.208716
0.208487
0.208489
0.208491
0.208494
0.208498
0.208502
0.208508
0.20851
0.208628
0.20864
0.208635
0.20867
0.189144
0.208658
0.20867
0.208668
0.208533
0.208525
0.208511
0.208502
0.208496
0.20849
0.208487
0.208485
0.208257
0.208259
0.208261
0.208264
0.208268
0.208272
0.208278
0.208281
0.208288
0.20841
0.208404
0.208113
0.198156
0.208423
0.208439
0.208437
0.208303
0.208294
0.20828
0.208271
0.208264
0.208259
0.208256
0.208252
0.208026
0.208028
0.20803
0.208034
0.208038
0.208041
0.208048
0.208052
0.208058
0.208062
0.208174
0.207712
0.198016
0.208189
0.208095
0.208084
0.208072
0.208064
0.208049
0.208039
0.208032
0.208027
0.208024
0.20802
0.207796
0.207798
0.2078
0.207804
0.207808
0.207811
0.207818
0.207822
0.207829
0.207832
0.207783
0.195136
0.202774
0.207847
0.207863
0.207853
0.20784
0.207832
0.207817
0.207808
0.207801
0.207795
0.207791
0.207788
0.207565
0.207567
0.20757
0.207573
0.207578
0.207581
0.207589
0.207593
0.2076
0.207602
0.207518
0.194928
0.202546
0.207613
0.207632
0.207622
0.207609
0.207601
0.207586
0.207576
0.207569
0.207563
0.207559
0.207555
0.207335
0.207337
0.20734
0.207343
0.207348
0.207352
0.207359
0.207364
0.207371
0.207373
0.207254
0.194717
0.202316
0.207379
0.207401
0.207391
0.207378
0.20737
0.207354
0.207344
0.207336
0.20733
0.207327
0.207322
0.207105
0.207107
0.207109
0.207113
0.207118
0.207122
0.20713
0.207135
0.207142
0.207143
0.206992
0.194503
0.202083
0.207145
0.20717
0.20716
0.207147
0.207139
0.207123
0.207112
0.207104
0.207098
0.207094
0.20709
0.206874
0.206876
0.206879
0.206883
0.206888
0.206892
0.206901
0.206906
0.206913
0.206913
0.206733
0.194286
0.201848
0.20691
0.206939
0.206929
0.206916
0.206907
0.206891
0.20688
0.206872
0.206866
0.206862
0.206857
0.206644
0.206646
0.206649
0.206653
0.206658
0.206663
0.206672
0.206677
0.206685
0.206684
0.206475
0.194067
0.201611
0.206675
0.206708
0.206699
0.206685
0.206676
0.206659
0.206648
0.20664
0.206633
0.206629
0.206624
0.206413
0.206416
0.206419
0.206423
0.206428
0.206433
0.206443
0.206448
0.206456
0.206455
0.206218
0.193847
0.201374
0.20644
0.206477
0.206468
0.206453
0.206444
0.206428
0.206416
0.206408
0.206401
0.206396
0.206392
0.206183
0.206185
0.206188
0.206193
0.206198
0.206204
0.206214
0.206219
0.206228
0.206225
0.205959
0.193627
0.201137
0.206206
0.206247
0.206237
0.206222
0.206213
0.206196
0.206184
0.206175
0.206168
0.206164
0.206159
0.205952
0.205955
0.205958
0.205963
0.205968
0.205974
0.205985
0.20599
0.205999
0.205996
0.205699
0.193408
0.200902
0.205973
0.206016
0.206007
0.205992
0.205982
0.205965
0.205953
0.205943
0.205936
0.205931
0.205926
0.205722
0.205725
0.205728
0.205733
0.205739
0.205745
0.205756
0.205762
0.205771
0.205766
0.205439
0.193189
0.200667
0.20574
0.205786
0.205777
0.205761
0.205751
0.205733
0.205721
0.205711
0.205704
0.205699
0.205694
0.205492
0.205495
0.205498
0.205503
0.205509
0.205516
0.205527
0.205533
0.205543
0.205537
0.205181
0.192968
0.20043
0.205507
0.205556
0.205547
0.20553
0.20552
0.205502
0.205489
0.205479
0.205472
0.205467
0.205462
0.205262
0.205264
0.205268
0.205273
0.205279
0.205286
0.205298
0.205305
0.205315
0.205307
0.204923
0.192747
0.200194
0.205274
0.205326
0.205317
0.2053
0.20529
0.205271
0.205257
0.205247
0.20524
0.205234
0.20523
0.205031
0.205034
0.205038
0.205043
0.20505
0.205057
0.205069
0.205076
0.205087
0.205078
0.204666
0.192526
0.199957
0.205041
0.205096
0.205087
0.205069
0.205059
0.205039
0.205026
0.205015
0.205007
0.205002
0.204997
0.204801
0.204804
0.204808
0.204813
0.20482
0.204828
0.204841
0.204848
0.204858
0.204848
0.20441
0.192304
0.199719
0.204808
0.204866
0.204857
0.204838
0.204828
0.204808
0.204794
0.204783
0.204775
0.20477
0.204765
0.204571
0.204574
0.204578
0.204583
0.20459
0.204599
0.204612
0.204619
0.20463
0.204618
0.204154
0.192082
0.199482
0.204575
0.204635
0.204626
0.204608
0.204597
0.204576
0.204562
0.204551
0.204543
0.204537
0.204532
0.204341
0.204344
0.204348
0.204353
0.204361
0.20437
0.204383
0.204391
0.204402
0.204388
0.203897
0.19186
0.199245
0.204342
0.204405
0.204396
0.204377
0.204366
0.204345
0.20433
0.204319
0.204311
0.204305
0.2043
0.204111
0.204114
0.204118
0.204123
0.204131
0.204141
0.204155
0.204163
0.204174
0.204158
0.203641
0.191638
0.199008
0.204109
0.204175
0.204166
0.204146
0.204135
0.204113
0.204099
0.204087
0.204078
0.204072
0.204067
0.203881
0.203884
0.203888
0.203894
0.203902
0.203912
0.203926
0.203935
0.203946
0.203929
0.203383
0.191416
0.198771
0.203876
0.203945
0.203936
0.203916
0.203904
0.203882
0.203867
0.203855
0.203846
0.20384
0.203835
0.210307
0.210315
0.210508
0.210095
0.210112
0.210289
0.209886
0.209911
0.210087
0.20967
0.209703
0.209885
0.209445
0.209481
0.209676
0.209203
0.114858
0.137102
0.209246
0.209452
0.210534
0.210747
0.210537
0.210752
0.210326
0.21031
0.21051
0.210393
0.2105
0.210318
0.210337
0.210502
0.210106
0.210097
0.210283
0.2102
0.210127
0.210263
0.210062
0.210257
0.210112
0.210124
0.210283
0.209889
0.209886
0.21007
0.209991
0.209732
0.209864
0.20859
0.209351
0.209911
0.209914
0.210072
0.209669
0.20967
0.209859
0.209779
0.209589
0.209642
0.209087
0.208699
0.209702
0.209701
0.209861
0.20901
0.209264
0.209481
0.209481
0.209647
0.208784
0.208902
0.208964
0.137381
0.115398
0.17287
0.208996
0.209214
0.21028
0.210384
0.210389
0.21038
0.210254
0.210501
0.210394
0.210267
0.210386
0.210394
0.210383
0.210281
0.209891
0.2101
0.210174
0.209943
0.209324
0.210227
0.209975
0.209395
0.210051
0.210187
0.210111
0.209874
0.210272
0.21012
0.210213
0.209649
0.209719
0.209964
0.208995
0.209119
0.209291
0.208995
0.2087
0.208535
0.209987
0.209707
0.209645
0.209865
0.209717
0.210012
0.208876
0.209046
0.209132
0.208847
0.209264
0.209123
0.209782
0.209588
0.20958
0.209635
0.209587
0.209808
0.209153
0.20916
0.209064
0.209147
0.208916
0.209002
0.209568
0.209475
0.209594
0.209109
0.208812
0.209158
0.209118
0.20853
0.208766
0.210417
0.210399
0.210507
0.210422
0.210489
0.209446
0.209444
0.209642
0.209559
0.209456
0.209521
0.205815
0.204889
0.209246
0.209255
0.209426
0.210493
0.210426
0.210506
0.210397
0.210422
0.209529
0.209582
0.209752
0.141043
0.151162
0.184214
0.190031
0.151631
0.163789
0.204712
0.203131
0.209566
0.209461
0.209348
0.190734
0.194288
0.209331
0.209205
0.209365
0.21063
0.210618
0.210518
0.210517
0.210618
0.21063
0.210414
0.210437
0.210417
0.210494
0.210425
0.210452
0.210144
0.210175
0.20899
0.209035
0.20899
0.208918
0.209028
0.203317
0.209246
0.206541
0.205921
0.206122
0.20668
0.208853
0.209692
0.210335
0.208376
0.210127
0.207999
0.210318
0.210184
0.210421
0.210439
0.210406
0.209878
0.210324
0.210332
0.209616
0.209577
0.210145
0.210127
0.209676
0.209714
0.20994
0.210143
0.210182
0.210093
0.210131
0.209932
0.210206
0.210247
0.210286
0.210195
0.210234
0.21019
0.209049
0.209054
0.209098
0.209076
0.207959
0.208036
0.209622
0.209944
0.209981
0.209895
0.209932
0.20961
0.209799
0.210043
0.21008
0.209993
0.21003
0.209789
0.14234
0.208959
0.155266
0.144136
0.168388
0.155878
0.208982
0.208721
0.145558
0.208751
0.209241
0.209229
0.209607
0.209844
0.209882
0.209793
0.209832
0.209612
0.175817
0.182955
0.209109
0.179135
0.169235
0.187439
0.180218
0.20912
0.164938
0.174738
0.208957
0.205047
0.206013
0.203497
0.204858
0.208969
0.202749
0.193514
0.194759
0.128248
0.194697
0.193006
0.161466
0.206456
0.206596
0.210475
0.209217
0.209207
0.209415
0.209329
0.20928
0.209363
0.169952
0.207943
0.208207
0.210475
0.209366
0.209446
0.20953
0.138069
0.139894
0.103115
0.192534
0.192004
0.142037
0.145618
0.205814
0.206412
0.106823
0.210555
0.21056
0.210503
0.2105
0.21056
0.210556
0.210191
0.210231
0.21019
0.210085
0.210131
0.210221
0.209778
0.210017
0.209978
0.21007
0.21003
0.209796
0.208771
0.20922
0.209029
0.208674
0.198336
0.196779
0.208836
0.206738
0.207147
0.208333
0.208232
0.135044
0.210454
0.210433
0.210499
0.210291
0.210214
0.210155
0.210341
0.210355
0.210397
0.2103
0.210341
0.210327
0.209978
0.210123
0.210083
0.210177
0.210136
0.210007
0.209801
0.204815
0.207902
0.201992
0.202699
0.209428
0.208209
0.208557
0.210047
0.209518
0.209841
0.21002
0.210151
0.210165
0.210066
0.210087
0.2099
0.209965
0.209926
0.209686
0.209026
0.19926
0.197312
0.2092
0.200942
0.20178
0.197013
0.197667
0.20901
0.2084
0.208294
0.209671
0.209939
0.209957
0.209859
0.209888
0.209635
0.209837
0.210039
0.210059
0.209963
0.209982
0.209749
0.209253
0.206667
0.207041
0.206445
0.206092
0.209179
0.209623
0.209742
0.209781
0.209688
0.209729
0.209613
0.209163
0.193066
0.188247
0.198667
0.197163
0.209164
0.156875
0.158773
0.209146
0.200299
0.199128
0.15463
0.156345
0.200252
0.198732
0.210448
0.210474
0.210458
0.19715
0.205471
0.198342
0.199025
0.198886
0.205353
0.210464
0.210452
0.210482
0.210441
0.210454
0.14214
0.145569
0.139903
0.138499
0.187015
0.147267
0.145798
0.151409
0.147683
0.187755
0.154601
0.15702
0.204111
0.203838
0.192511
0.15745
0.153524
0.145866
0.147599
0.21039
0.210407
0.210432
0.210373
0.210399
0.210381
0.210094
0.210212
0.208819
0.209175
0.209033
0.208687
0.203729
0.206944
0.206687
0.20721
0.207027
0.203649
0.206107
0.205917
0.206616
0.206243
0.206326
0.201227
0.202107
0.199645
0.200785
0.206234
0.195906
0.196707
0.209227
0.210281
0.210197
0.210365
0.210305
0.209449
0.209774
0.20962
0.210142
0.209838
0.210358
0.210407
0.210377
0.210339
0.210288
0.210291
0.21023
0.210299
0.210259
0.210333
0.210364
0.210274
0.210322
0.210356
0.210334
0.2103
0.203651
0.204316
0.209748
0.199243
0.196524
0.20541
0.199787
0.192277
0.189387
0.195654
0.193486
0.209465
0.202941
0.20347
0.208002
0.207421
0.209545
0.208472
0.206727
0.206074
0.207313
0.206893
0.210068
0.208639
0.208868
0.209559
0.209818
0.210122
0.210144
0.209983
0.209908
0.210094
0.210115
0.199578
0.199571
0.209034
0.182735
0.182465
0.171301
0.181415
0.180965
0.184284
0.182104
0.18113
0.199688
0.200659
0.209172
0.184449
0.181101
0.188665
0.185449
0.17448
0.170893
0.17978
0.176145
0.209026
0.19815
0.199305
0.20817
0.208229
0.209916
0.209933
0.209659
0.209619
0.209893
0.20991
0.210013
0.210033
0.209827
0.209759
0.209988
0.210007
0.144916
0.149065
0.198318
0.199905
0.196286
0.197756
0.145101
0.16343
0.20201
0.198907
0.200332
0.201608
0.16074
0.189699
0.190425
0.186316
0.189418
0.149984
0.194332
0.195895
0.190884
0.193469
0.150259
0.206436
0.206592
0.209252
0.205282
0.205774
0.205822
0.205248
0.205824
0.209184
0.205942
0.206241
0.178616
0.136942
0.138239
0.144475
0.137577
0.17965
0.140138
0.168367
0.13878
0.170028
0.204202
0.207425
0.207268
0.207612
0.207477
0.20431
0.202168
0.20242
0.159731
0.161883
0.149171
0.153837
0.201228
0.200595
0.210543
0.210558
0.210731
0.209336
0.209229
0.209078
0.210521
0.210525
0.210489
0.210483
0.210523
0.210521
0.210628
0.210623
0.210523
0.210285
0.210244
0.210211
0.21007
0.209886
0.209853
0.208646
0.209306
0.209861
0.209822
0.209618
0.207734
0.207591
0.208689
0.207111
0.207257
0.209255
0.210326
0.21034
0.210299
0.20998
0.210087
0.210277
0.210371
0.210344
0.210364
0.210207
0.209533
0.209933
0.209436
0.209819
0.209783
0.210028
0.209984
0.209991
0.209882
0.21018
0.210194
0.210144
0.209676
0.209913
0.209874
0.200127
0.199349
0.209083
0.208677
0.20797
0.207869
0.20848
0.209696
0.209862
0.209868
0.209855
0.20997
0.209977
0.209875
0.209881
0.209728
0.208667
0.201427
0.200564
0.209599
0.209836
0.209848
0.209532
0.209633
0.209674
0.133838
0.133594
0.201522
0.200646
0.209139
0.13442
0.13411
0.207174
0.20722
0.208701
0.210429
0.210429
0.140157
0.139703
0.140877
0.150419
0.152144
0.137439
0.138518
0.147657
0.146079
0.162144
0.201772
0.201471
0.203364
0.160484
0.158082
0.192992
0.210568
0.210563
0.210505
0.210404
0.210406
0.210412
0.210421
0.210355
0.210365
0.210441
0.210468
0.210453
0.210047
0.210029
0.21012
0.210192
0.210151
0.210122
0.208921
0.20908
0.207828
0.207895
0.209029
0.208827
0.207413
0.207635
0.204057
0.204098
0.205023
0.204898
0.20333
0.204212
0.204337
0.209253
0.207331
0.207537
0.209522
0.208787
0.209758
0.209635
0.210274
0.210218
0.210011
0.206752
0.206311
0.209334
0.208499
0.207333
0.21043
0.210415
0.210382
0.210386
0.210333
0.210365
0.210024
0.210323
0.210343
0.208942
0.209311
0.210193
0.205721
0.205183
0.209639
0.209752
0.210236
0.21025
0.210235
0.210153
0.210208
0.210222
0.209075
0.199315
0.199486
0.207929
0.208102
0.209928
0.209934
0.209808
0.209779
0.209914
0.209921
0.143684
0.154453
0.173074
0.174065
0.161896
0.162659
0.142883
0.201965
0.201569
0.208693
0.150672
0.148995
0.160018
0.159924
0.147114
0.161198
0.161514
0.147844
0.148244
0.209814
0.209825
0.209592
0.209602
0.209791
0.209802
0.174261
0.200651
0.201202
0.199489
0.200066
0.172549
0.205484
0.207437
0.207647
0.207522
0.207483
0.205635
0.20379
0.205381
0.205195
0.202338
0.201892
0.202876
0.135495
0.137875
0.138114
0.135939
0.195794
0.16564
0.16179
0.168807
0.166553
0.192456
0.193381
0.193762
0.202341
0.203097
0.206728
0.210468
0.210476
0.21046
0.137879
0.138369
0.157997
0.156574
0.103682
0.14416
0.139857
0.14007
0.138237
0.139147
0.145171
0.106502
0.199741
0.201105
0.210531
0.210526
0.210488
0.209948
0.209917
0.210077
0.210083
0.210151
0.210206
0.210115
0.210135
0.208715
0.209263
0.206511
0.206669
0.206614
0.206481
0.208678
0.207468
0.207362
0.198005
0.195009
0.194874
0.195686
0.195493
0.197572
0.210196
0.210246
0.210255
0.210227
0.210238
0.210176
0.209477
0.209974
0.209744
0.209657
0.209891
0.209998
0.210006
0.208067
0.208053
0.208597
0.208373
0.20985
0.209856
0.209683
0.209956
0.209963
0.209846
0.209738
0.209887
0.209894
0.206396
0.207053
0.206848
0.20716
0.20713
0.206288
0.133443
0.13357
0.135282
0.134768
0.15525
0.14318
0.142815
0.19502
0.195114
0.199788
0.196168
0.196843
0.19499
0.195465
0.199246
0.210444
0.210437
0.210439
0.210444
0.210467
0.21047
0.21048
0.210452
0.210459
0.21046
0.198107
0.201994
0.201783
0.202612
0.202289
0.198346
0.19991
0.201
0.200564
0.201621
0.201404
0.199473
0.21046
0.210465
0.210455
0.21041
0.210385
0.210443
0.210433
0.140143
0.148852
0.141803
0.141946
0.13947
0.138985
0.158347
0.159368
0.146489
0.137279
0.136755
0.153008
0.140041
0.139327
0.140039
0.159772
0.142878
0.139537
0.201919
0.202319
0.20435
0.200699
0.200843
0.200358
0.20045
0.203579
0.201338
0.201504
0.146129
0.13635
0.137272
0.13565
0.135667
0.14662
0.210396
0.210404
0.210399
0.210365
0.210373
0.210388
0.209949
0.210104
0.210005
0.209978
0.210067
0.210092
0.210012
0.210041
0.208869
0.209127
0.207032
0.207139
0.206788
0.20691
0.209037
0.207911
0.207909
0.207284
0.207287
0.208742
0.207182
0.204424
0.204161
0.203481
0.2048
0.204668
0.206018
0.204556
0.204516
0.204993
0.204742
0.205967
0.206526
0.205186
0.205314
0.204671
0.20494
0.206397
0.204388
0.200019
0.203123
0.202898
0.195703
0.196066
0.209137
0.209873
0.209816
0.209008
0.209641
0.210082
0.209959
0.207469
0.207088
0.208847
0.20894
0.209675
0.208294
0.207885
0.210186
0.210257
0.210363
0.210308
0.210092
0.209837
0.210085
0.210277
0.210296
0.210306
0.210265
0.210279
0.210243
0.210205
0.210241
0.210343
0.210328
0.210316
0.210356
0.210337
0.210353
0.210288
0.210302
0.210276
0.210298
0.198557
0.19749
0.203863
0.196834
0.19777
0.195051
0.200286
0.1912
0.190235
0.194883
0.194216
0.207713
0.205155
0.205761
0.203959
0.204536
0.207543
0.209413
0.208416
0.208702
0.206112
0.207747
0.20911
0.204687
0.203784
0.206556
0.199934
0.200593
0.198783
0.199357
0.206364
0.207203
0.202999
0.203449
0.201324
0.202126
0.207055
0.209601
0.209787
0.183028
0.171022
0.17292
0.167046
0.168949
0.182809
0.17396
0.173951
0.174085
0.177957
0.181362
0.156708
0.15846
0.159723
0.156889
0.182463
0.181763
0.163683
0.165289
0.160519
0.162221
0.181445
0.183604
0.182602
0.187899
0.186595
0.17299
0.171662
0.178626
0.177637
0.207993
0.208165
0.209818
0.209941
0.209948
0.2099
0.209907
0.209769
0.144754
0.169306
0.171572
0.152748
0.14281
0.164198
0.166603
0.154403
0.152477
0.189909
0.169799
0.16999
0.187949
0.167968
0.164066
0.170036
0.169564
0.18892
0.158673
0.156467
0.158812
0.160509
0.148708
0.150672
0.154938
0.206516
0.207678
0.207618
0.207744
0.207712
0.206553
0.20544
0.205656
0.205613
0.205155
0.205109
0.205381
0.205905
0.207259
0.207191
0.20751
0.207377
0.206023
0.137161
0.147946
0.14878
0.146871
0.147388
0.137667
0.141931
0.154732
0.156851
0.150209
0.152324
0.13942
0.139839
0.136971
0.137356
0.138364
0.137535
0.139423
0.144737
0.146129
0.139192
0.141983
0.139467
0.205656
0.20554
0.204058
0.202113
0.202702
0.134427
0.136106
0.151018
0.138989
0.136804
0.142262
0.141169
0.152671
0.136089
0.13582
0.194101
0.194392
0.211023
0.211022
0.211139
0.211021
0.21102
0.211138
0.21102
0.21102
0.211139
0.211022
0.211024
0.21114
0.210791
0.210789
0.210906
0.210786
0.210784
0.210963
0.210781
0.210778
0.21096
0.210778
0.210782
0.210961
0.210785
0.210789
0.210965
0.210793
0.210795
0.210909
0.210562
0.210557
0.21073
0.210552
0.21054
0.210723
0.210657
0.210654
0.21075
0.210648
0.210651
0.210746
0.210664
0.210668
0.210726
0.210563
0.210569
0.210682
0.210337
0.21033
0.210499
0.210438
0.210436
0.210493
0.210475
0.210473
0.210502
0.210427
0.210439
0.210524
0.210341
0.210348
0.210458
0.210114
0.210109
0.210274
0.210215
0.210215
0.21027
0.210253
0.210253
0.21028
0.210214
0.210223
0.210303
0.210126
0.210131
0.210239
0.209892
0.20989
0.210054
0.209997
0.209999
0.210053
0.210043
0.210043
0.210069
0.210012
0.210016
0.210094
0.209913
0.209914
0.210023
0.20967
0.20967
0.209835
0.20978
0.209783
0.209837
0.209832
0.209833
0.20986
0.209808
0.209807
0.209886
0.209699
0.209697
0.209806
0.209445
0.209445
0.209614
0.209615
0.209615
0.209643
0.209593
0.20959
0.209672
0.209478
0.209476
0.209587
0.209218
0.209217
0.209389
0.209365
0.209368
0.209425
0.209252
0.209251
0.209364
0.208985
0.208979
0.209095
0.208981
0.208971
0.209146
0.209083
0.208999
0.209093
0.145415
0.204659
0.205085
0.209008
0.209024
0.209198
0.209018
0.209024
0.209138
0.208754
0.208748
0.208864
0.20875
0.208737
0.208912
0.208729
0.160775
0.160083
0.189039
0.208754
0.208936
0.20877
0.20879
0.208963
0.208785
0.208792
0.208908
0.20852
0.208512
0.208628
0.208323
0.182756
0.160945
0.198213
0.208398
0.208693
0.20854
0.208557
0.208673
0.210306
0.210333
0.210334
0.210341
0.21035
0.210308
0.210506
0.210477
0.210479
0.210095
0.210121
0.210121
0.210137
0.210136
0.210099
0.210294
0.210253
0.210263
0.209886
0.209912
0.209912
0.209936
0.209937
0.209899
0.210086
0.210049
0.210062
0.209671
0.209698
0.209697
0.209729
0.209732
0.209694
0.209887
0.209849
0.20986
0.20951
0.209504
0.209476
0.209668
0.209641
0.209648
0.209124
0.209251
0.209298
0.103728
0.149863
0.149809
0.186606
0.186802
0.106571
0.209447
0.209419
0.209423
0.210523
0.210622
0.210626
0.210493
0.210493
0.210484
0.210747
0.210651
0.210647
0.210491
0.210493
0.210567
0.210565
0.210535
0.21075
0.210656
0.210659
0.210325
0.21038
0.210381
0.210394
0.210378
0.210323
0.21049
0.210434
0.210423
0.210408
0.210405
0.210379
0.210497
0.21048
0.210484
0.21033
0.210412
0.210399
0.210391
0.210391
0.210337
0.2105
0.210445
0.210446
0.210107
0.210161
0.21016
0.210176
0.210161
0.210108
0.210269
0.210215
0.210202
0.2102
0.210226
0.210226
0.21015
0.210185
0.210169
0.210274
0.21026
0.210246
0.210239
0.210215
0.210245
0.210119
0.210197
0.210188
0.210177
0.21018
0.210128
0.210284
0.210232
0.21023
0.209892
0.209946
0.209943
0.209965
0.209948
0.209894
0.210055
0.210001
0.209992
0.209991
0.210017
0.210017
0.209745
0.209928
0.209915
0.210015
0.209999
0.209839
0.209913
0.20999
0.209987
0.209967
0.209972
0.20992
0.210076
0.210024
0.210019
0.209673
0.209728
0.209725
0.209752
0.209732
0.209677
0.209841
0.209787
0.209779
0.20978
0.209807
0.209806
0.20961
0.209809
0.209769
0.209804
0.209793
0.209633
0.209054
0.207974
0.208079
0.2097
0.20978
0.209782
0.209755
0.209761
0.209708
0.209867
0.209815
0.209808
0.209018
0.207773
0.207874
0.208755
0.208764
0.209262
0.209481
0.209536
0.209566
0.209537
0.209543
0.209487
0.209653
0.209599
0.209592
0.208802
0.208189
0.208178
0.208231
0.208227
0.208886
0.208911
0.208968
0.209024
0.135662
0.208193
0.208051
0.192065
0.191986
0.117251
0.207837
0.207915
0.170802
0.209055
0.208736
0.208782
0.20902
0.208771
0.209123
0.210296
0.210303
0.210289
0.210397
0.210354
0.210341
0.210361
0.210361
0.210388
0.210366
0.210344
0.21038
0.210485
0.210482
0.210499
0.21039
0.210405
0.210409
0.210275
0.210261
0.210252
0.210385
0.210376
0.210379
0.210392
0.210365
0.210367
0.210369
0.210373
0.210387
0.210291
0.210304
0.210298
0.209919
0.210049
0.210032
0.210152
0.210135
0.21007
0.210147
0.210147
0.210173
0.209904
0.209557
0.209656
0.208353
0.208411
0.209357
0.209723
0.209773
0.210001
0.210188
0.210149
0.210162
0.210097
0.210133
0.210144
0.210244
0.210264
0.210277
0.210152
0.21016
0.210128
0.210238
0.21024
0.210201
0.209657
0.209828
0.209816
0.209902
0.20989
0.209708
0.209938
0.209939
0.209965
0.209006
0.207742
0.207711
0.208045
0.208006
0.209105
0.20926
0.208241
0.208297
0.207697
0.207697
0.208993
0.209986
0.209949
0.209962
0.209801
0.209805
0.20965
0.210037
0.210036
0.209999
0.208905
0.204619
0.204038
0.20711
0.206985
0.209026
0.209145
0.208126
0.208086
0.203861
0.203233
0.208816
0.209261
0.208715
0.208738
0.208198
0.208293
0.209153
0.209784
0.209745
0.209756
0.209582
0.209744
0.209756
0.209669
0.209682
0.20959
0.209622
0.20979
0.209796
0.209767
0.209779
0.209594
0.209834
0.209836
0.209797
0.209158
0.208039
0.207973
0.208328
0.208291
0.209163
0.20908
0.20734
0.207227
0.207901
0.207823
0.209139
0.208931
0.208233
0.208233
0.207904
0.207978
0.208992
0.209556
0.209643
0.209656
0.209578
0.209619
0.209517
0.209621
0.209614
0.209587
0.209075
0.202327
0.201764
0.200376
0.20183
0.209041
0.209155
0.208391
0.208362
0.208668
0.207212
0.207164
0.210416
0.210444
0.210446
0.210443
0.210455
0.210411
0.210499
0.21047
0.210459
0.210485
0.210474
0.210479
0.20953
0.20951
0.209453
0.209622
0.209566
0.209558
0.209559
0.209587
0.209587
0.209485
0.209575
0.209548
0.20963
0.209603
0.209495
0.205702
0.204325
0.204515
0.203087
0.20338
0.205063
0.209253
0.209311
0.209335
0.210484
0.21048
0.210491
0.210415
0.210429
0.210436
0.210457
0.210471
0.210516
0.210412
0.210456
0.210442
0.21045
0.210448
0.21042
0.209553
0.209702
0.209657
0.209755
0.209716
0.20956
0.209725
0.209726
0.209753
0.185278
0.172777
0.171696
0.178454
0.177335
0.18926
0.20454
0.20257
0.202805
0.20956
0.209532
0.209538
0.209414
0.209523
0.209564
0.209464
0.209508
0.209398
0.191403
0.180638
0.179577
0.185159
0.184459
0.193867
0.209278
0.209407
0.209436
0.209349
0.209378
0.20926
0.209394
0.20939
0.209361
0.210632
0.210579
0.210575
0.210584
0.210582
0.210634
0.210509
0.210564
0.210568
0.210534
0.210532
0.210514
0.210634
0.210581
0.210585
0.210575
0.210579
0.210631
0.210439
0.210413
0.210423
0.210463
0.210476
0.210494
0.21043
0.210439
0.210434
0.210468
0.210465
0.210449
0.207583
0.207728
0.209023
0.209249
0.208814
0.208821
0.206479
0.205518
0.205622
0.204692
0.204846
0.206016
0.206403
0.207584
0.207556
0.207627
0.207607
0.206479
0.20887
0.208221
0.208215
0.210279
0.21033
0.210351
0.210298
0.210126
0.210253
0.210235
0.210333
0.210306
0.210429
0.210419
0.210409
0.210424
0.21042
0.210435
0.210317
0.210308
0.210316
0.21034
0.210334
0.210325
0.208858
0.208932
0.209657
0.20954
0.208725
0.208789
0.210025
0.210059
0.210162
0.210108
0.209957
0.209991
0.210044
0.210053
0.20995
0.210156
0.21015
0.210137
0.210176
0.210163
0.210169
0.210105
0.210098
0.210085
0.210124
0.210111
0.210118
0.209924
0.210028
0.210036
0.210222
0.210231
0.210217
0.21026
0.210255
0.210242
0.210282
0.210269
0.210273
0.210208
0.210202
0.210189
0.210229
0.210215
0.210221
0.210175
0.210202
0.210212
0.207876
0.207866
0.209044
0.20906
0.207898
0.207886
0.207934
0.207982
0.209121
0.209058
0.207846
0.207888
0.209825
0.209831
0.209635
0.209956
0.209948
0.209936
0.209973
0.20996
0.209969
0.209907
0.209899
0.209887
0.209923
0.209911
0.209919
0.209603
0.209815
0.209819
0.210055
0.210047
0.210035
0.210072
0.21006
0.210068
0.210006
0.209997
0.209985
0.210022
0.21001
0.210018
0.206552
0.204822
0.208934
0.167311
0.183056
0.184219
0.174898
0.175828
0.156763
0.209005
0.206842
0.206696
0.208784
0.202956
0.202147
0.208577
0.208609
0.20925
0.209211
0.208471
0.208528
0.209764
0.209766
0.2096
0.209857
0.20985
0.209837
0.209874
0.209862
0.209869
0.209806
0.2098
0.209787
0.209825
0.209812
0.209819
0.209614
0.209757
0.209761
0.176763
0.162244
0.161347
0.170376
0.168804
0.181895
0.207555
0.20745
0.209095
0.17778
0.191332
0.192182
0.185157
0.186119
0.170105
0.184321
0.202577
0.202981
0.201688
0.20214
0.183204
0.209131
0.207738
0.207649
0.165924
0.149127
0.148477
0.160243
0.158664
0.17341
0.208229
0.208231
0.208944
0.205195
0.206311
0.206212
0.206885
0.206816
0.2059
0.206097
0.205974
0.204644
0.20898
0.208214
0.208222
0.193992
0.171671
0.169498
0.174262
0.172511
0.194442
0.195089
0.186567
0.18587
0.206415
0.203299
0.203722
0.20572
0.205813
0.206645
0.20927
0.20928
0.20922
0.209396
0.209339
0.209329
0.209308
0.209348
0.209319
0.209406
0.209377
0.209336
0.202308
0.202223
0.168929
0.20798
0.20688
0.206858
0.206972
0.20692
0.208048
0.209402
0.209464
0.209435
0.20952
0.209492
0.209413
0.209502
0.209502
0.209531
0.130656
0.126436
0.10365
0.192089
0.174503
0.170353
0.174736
0.174553
0.191979
0.206217
0.200797
0.199871
0.203571
0.204305
0.206399
0.10661
0.161191
0.17337
0.210557
0.210536
0.210534
0.210541
0.21054
0.21056
0.210494
0.210529
0.210522
0.21051
0.210508
0.210497
0.210559
0.210538
0.210541
0.210534
0.210535
0.210556
0.210215
0.2102
0.210171
0.210217
0.210211
0.210225
0.210184
0.210197
0.210204
0.210232
0.210196
0.210183
0.209955
0.209942
0.209761
0.210004
0.20999
0.210003
0.209964
0.209977
0.209991
0.210057
0.210043
0.210057
0.210016
0.210029
0.210043
0.209817
0.209984
0.209969
0.207906
0.207918
0.209032
0.208207
0.208198
0.208819
0.207077
0.207654
0.207642
0.207669
0.207663
0.207115
0.208302
0.202964
0.200426
0.202837
0.202922
0.208268
0.134383
0.182851
0.182357
0.21045
0.210466
0.210469
0.21046
0.210463
0.210446
0.210495
0.210479
0.210469
0.210278
0.210269
0.210283
0.210345
0.210359
0.210355
0.210369
0.210364
0.21035
0.210393
0.210378
0.210383
0.210313
0.210309
0.210295
0.210336
0.210322
0.210327
0.210312
0.210318
0.210331
0.210083
0.210066
0.209948
0.21011
0.210099
0.210113
0.210071
0.210085
0.210096
0.210163
0.210155
0.210169
0.210127
0.210141
0.21015
0.210038
0.210118
0.2101
0.209258
0.209415
0.209855
0.205776
0.208335
0.207888
0.209058
0.208789
0.207181
0.202215
0.206391
0.20629
0.206605
0.206496