/*--------------------------------*- C++ -*----------------------------------*\
| =========                 |                                                 |
| \\      /  F ield         | OpenFOAM: The Open Source CFD Toolbox           |
|  \\    /   O peration     | Version:  5.x                                   |
|   \\  /    A nd           | Web:      www.OpenFOAM.org                      |
|    \\/     M anipulation  |                                                 |
\*---------------------------------------------------------------------------*/
FoamFile
{
    version     2.0;
    format      ascii;
    class       volScalarField;
    location    "400";
    object      Y;
}
// * * * * * * * * * * * * * * * * * * * * * * * * * * * * * * * * * * * * * //

dimensions      [0 0 0 0 0 0 0];

internalField   nonuniform List<scalar> 
6584
(
0.00632781
0.00632781
0.00632781
0.00632781
0.00632781
0.00632781
0.00632781
0.00632782
0.00632782
0.00632782
0.00632782
0.00632782
0.00632782
0.00632782
0.00632782
0.00632782
0.00632782
0.00632781
0.00632781
0.00632781
0.00632781
0.00632781
0.00632781
0.00632781
0.00632561
0.00632561
0.00632561
0.00632562
0.00632562
0.00632562
0.00632562
0.00632563
0.00632563
0.00632563
0.00632563
0.00632563
0.00632564
0.00632564
0.00632563
0.00632563
0.00632563
0.00632563
0.00632562
0.00632562
0.00632562
0.00632561
0.00632561
0.00632561
0.00632341
0.00632342
0.00632342
0.00632342
0.00632342
0.00632342
0.00632343
0.00632344
0.00632345
0.00632454
0.00632454
0.00632454
0.00632454
0.00632454
0.00632454
0.00632345
0.00632344
0.00632344
0.00632343
0.00632343
0.00632342
0.00632342
0.00632342
0.00632341
0.00632122
0.00632122
0.00632122
0.00632122
0.00632123
0.00632123
0.00632124
0.00632125
0.00632126
0.00632235
0.00632235
0.00632234
0.00632234
0.00632235
0.00632235
0.00632235
0.00632125
0.00632124
0.00632124
0.00632123
0.00632123
0.00632123
0.00632122
0.00632122
0.00631902
0.00631903
0.00631903
0.00631903
0.00631903
0.00631904
0.00631904
0.00631904
0.00632015
0.00632015
0.00632014
0.00632013
0.00632013
0.00632014
0.00632015
0.00632016
0.00632016
0.00631906
0.00631905
0.00631904
0.00631904
0.00631903
0.00631903
0.00631903
0.00631683
0.00631683
0.00631683
0.00631684
0.00631684
0.00631685
0.00631685
0.00631794
0.00631794
0.00631793
0.00631847
0.00631845
0.00631844
0.00631847
0.00631795
0.00631797
0.00631797
0.00631689
0.00631687
0.00631686
0.00631685
0.00631684
0.00631684
0.00631683
0.00631464
0.00631464
0.00631464
0.00631465
0.00631465
0.00631466
0.00631467
0.00631576
0.00631575
0.00631573
0.00631622
0.00631644
0.00631641
0.00631621
0.00631631
0.0063158
0.0063158
0.00631472
0.00631469
0.00631468
0.00631466
0.00631465
0.00631465
0.00631464
0.00631245
0.00631245
0.00631245
0.00631246
0.00631247
0.00631248
0.0063125
0.00631358
0.00631357
0.00631357
0.00631401
0.0063141
0.00631421
0.00631415
0.00631366
0.00631365
0.00631257
0.00631252
0.0063125
0.00631248
0.00631247
0.00631246
0.00631245
0.00631025
0.00631026
0.00631027
0.00631027
0.00631029
0.0063103
0.00631033
0.00631141
0.00631141
0.00631144
0.00631187
0.00631196
0.00631213
0.00631206
0.00631156
0.00631152
0.00631042
0.00631036
0.00631032
0.0063103
0.00631028
0.00631027
0.00631026
0.00630806
0.00630807
0.00630808
0.00630809
0.00630811
0.00630813
0.00630817
0.00630925
0.00630927
0.00630933
0.00630979
0.00630996
0.00631021
0.00631004
0.00630948
0.0063094
0.00630828
0.0063082
0.00630815
0.00630812
0.0063081
0.00630808
0.00630807
0.00630587
0.00630588
0.00630589
0.0063059
0.00630592
0.00630595
0.006306
0.00630709
0.00630713
0.00630722
0.00630773
0.00630798
0.00630831
0.00630803
0.0063074
0.00630729
0.00630613
0.00630603
0.00630598
0.00630594
0.00630591
0.00630589
0.00630588
0.00630368
0.00630369
0.0063037
0.00630372
0.00630374
0.00630378
0.00630383
0.00630493
0.00630498
0.00630509
0.00630564
0.00630594
0.00630634
0.00630598
0.0063053
0.00630516
0.00630398
0.00630387
0.0063038
0.00630376
0.00630372
0.0063037
0.00630368
0.00630149
0.0063015
0.00630152
0.00630154
0.00630156
0.0063016
0.00630166
0.00630276
0.00630283
0.00630294
0.0063035
0.0063038
0.00630423
0.00630387
0.00630318
0.00630303
0.00630182
0.0063017
0.00630163
0.00630157
0.00630153
0.00630151
0.00630149
0.0062993
0.00629931
0.00629933
0.00629935
0.00629938
0.00629942
0.00629949
0.00629953
0.00630065
0.00630075
0.00630129
0.0063015
0.0049663
0.00630172
0.00630171
0.00630103
0.00630087
0.00629965
0.00629953
0.00629945
0.00629938
0.00629934
0.00629931
0.00629929
0.00629711
0.00629712
0.00629714
0.00629717
0.0062972
0.00629724
0.00629729
0.00629732
0.00629844
0.00629854
0.00629908
0.00629899
0.0059624
0.0062995
0.00629892
0.00629885
0.00629755
0.00629746
0.00629733
0.00629725
0.0062972
0.00629715
0.00629712
0.00629709
0.00629492
0.00629493
0.00629495
0.00629498
0.00629501
0.00629505
0.0062951
0.00629513
0.00629625
0.00629635
0.00629635
0.00629677
0.00598755
0.00629675
0.00629673
0.00629666
0.00629536
0.00629527
0.00629513
0.00629505
0.00629499
0.00629494
0.00629491
0.00629489
0.00629273
0.00629274
0.00629276
0.00629279
0.00629282
0.00629286
0.00629291
0.00629295
0.00629301
0.00629417
0.00629416
0.00628953
0.00614974
0.00629455
0.00629453
0.00629447
0.00629317
0.00629307
0.00629293
0.00629285
0.00629278
0.00629273
0.00629271
0.00629268
0.00629054
0.00629055
0.00629057
0.0062906
0.00629063
0.00629066
0.00629072
0.00629076
0.00629083
0.00629088
0.00629198
0.00628502
0.0061511
0.00629235
0.00629125
0.0062911
0.00629097
0.00629087
0.00629073
0.00629064
0.00629058
0.00629053
0.0062905
0.00629046
0.00628835
0.00628836
0.00628838
0.00628841
0.00628844
0.00628847
0.00628853
0.00628859
0.00628865
0.0062887
0.00628796
0.00609433
0.00622185
0.00628907
0.00628905
0.00628891
0.00628877
0.00628867
0.00628853
0.00628844
0.00628837
0.00628832
0.00628828
0.00628825
0.00628615
0.00628617
0.00628619
0.00628622
0.00628626
0.00628629
0.00628635
0.00628641
0.00628648
0.00628652
0.0062851
0.00609289
0.00622005
0.00628688
0.00628686
0.00628671
0.00628657
0.00628647
0.00628633
0.00628623
0.00628616
0.00628611
0.00628607
0.00628603
0.00628396
0.00628398
0.006284
0.00628403
0.00628407
0.0062841
0.00628417
0.00628423
0.0062843
0.00628434
0.00628228
0.00609138
0.00621819
0.00628468
0.00628467
0.00628452
0.00628437
0.00628426
0.00628412
0.00628402
0.00628395
0.00628389
0.00628386
0.00628382
0.00628177
0.00628179
0.00628181
0.00628184
0.00628188
0.00628192
0.00628199
0.00628205
0.00628213
0.00628216
0.00627947
0.00608981
0.00621627
0.00628249
0.00628248
0.00628233
0.00628217
0.00628206
0.00628191
0.00628181
0.00628174
0.00628168
0.00628165
0.0062816
0.00627958
0.0062796
0.00627962
0.00627966
0.0062797
0.00627973
0.00627981
0.00627987
0.00627995
0.00627997
0.00627669
0.00608819
0.00621432
0.0062803
0.00628029
0.00628014
0.00627997
0.00627986
0.00627971
0.0062796
0.00627953
0.00627947
0.00627943
0.00627939
0.00627739
0.00627741
0.00627743
0.00627747
0.00627751
0.00627755
0.00627763
0.0062777
0.00627778
0.00627779
0.00627394
0.00608654
0.00621233
0.00627811
0.0062781
0.00627794
0.00627778
0.00627766
0.0062775
0.00627739
0.00627732
0.00627725
0.00627721
0.00627717
0.0062752
0.00627522
0.00627524
0.00627528
0.00627532
0.00627537
0.00627545
0.00627552
0.00627561
0.00627561
0.00627122
0.00608485
0.00621032
0.00627592
0.00627591
0.00627575
0.00627558
0.00627545
0.00627529
0.00627518
0.0062751
0.00627504
0.006275
0.00627495
0.00627301
0.00627303
0.00627305
0.00627309
0.00627314
0.00627319
0.00627327
0.00627335
0.00627344
0.00627343
0.00626845
0.00608319
0.00620831
0.00627373
0.00627373
0.00627356
0.00627338
0.00627325
0.00627308
0.00627297
0.00627289
0.00627282
0.00627278
0.00627274
0.00627082
0.00627084
0.00627086
0.0062709
0.00627095
0.006271
0.0062711
0.00627117
0.00627127
0.00627124
0.00626563
0.00608157
0.00620633
0.00627155
0.00627155
0.00627138
0.00627119
0.00627105
0.00627088
0.00627077
0.00627068
0.00627061
0.00627057
0.00627052
0.00626863
0.00626865
0.00626868
0.00626872
0.00626877
0.00626882
0.00626892
0.006269
0.00626911
0.00626906
0.00626283
0.00607993
0.00620434
0.00626936
0.00626937
0.00626919
0.00626899
0.00626885
0.00626868
0.00626856
0.00626847
0.0062684
0.00626836
0.00626831
0.00626644
0.00626646
0.00626649
0.00626653
0.00626659
0.00626664
0.00626674
0.00626683
0.00626694
0.00626687
0.00626005
0.00607827
0.00620233
0.00626718
0.00626719
0.00626701
0.0062668
0.00626665
0.00626647
0.00626635
0.00626626
0.00626619
0.00626614
0.0062661
0.00626425
0.00626427
0.0062643
0.00626435
0.0062644
0.00626446
0.00626457
0.00626466
0.00626478
0.00626468
0.00625729
0.0060766
0.00620031
0.006265
0.00626501
0.00626482
0.00626461
0.00626446
0.00626427
0.00626415
0.00626405
0.00626398
0.00626393
0.00626389
0.00626206
0.00626208
0.00626212
0.00626216
0.00626222
0.00626228
0.00626239
0.00626249
0.00626261
0.00626249
0.00625453
0.00607492
0.00619829
0.00626282
0.00626283
0.00626264
0.00626241
0.00626226
0.00626206
0.00626194
0.00626184
0.00626177
0.00626172
0.00626167
0.00625987
0.00625989
0.00625993
0.00625997
0.00626004
0.0062601
0.00626022
0.00626032
0.00626045
0.0062603
0.00625178
0.00607324
0.00619627
0.00626064
0.00626065
0.00626045
0.00626022
0.00626006
0.00625986
0.00625973
0.00625963
0.00625955
0.0062595
0.00625946
0.00625768
0.00625771
0.00625774
0.00625779
0.00625785
0.00625793
0.00625805
0.00625815
0.00625828
0.00625811
0.00624902
0.00607156
0.00619424
0.00625845
0.00625847
0.00625826
0.00625802
0.00625786
0.00625766
0.00625752
0.00625742
0.00625734
0.00625729
0.00625724
0.00625549
0.00625552
0.00625556
0.0062556
0.00625567
0.00625575
0.00625588
0.00625598
0.00625612
0.00625591
0.00624626
0.00606988
0.00619222
0.00625627
0.00625629
0.00625608
0.00625583
0.00625566
0.00625545
0.00625532
0.0062552
0.00625513
0.00625507
0.00625503
0.00625331
0.00625333
0.00625337
0.00625342
0.00625349
0.00625357
0.00625371
0.00625381
0.00625395
0.00625372
0.00624347
0.00606821
0.0061902
0.00625409
0.00625411
0.00625389
0.00625364
0.00625346
0.00625325
0.00625311
0.00625299
0.00625291
0.00625286
0.00625281
0.00625112
0.00625115
0.00625119
0.00625123
0.00625131
0.0062514
0.00625153
0.00625165
0.00625179
0.00625152
0.00624066
0.00606656
0.00618819
0.00625191
0.00625193
0.00625171
0.00625144
0.00625126
0.00625104
0.0062509
0.00625078
0.0062507
0.00625064
0.0062506
0.00631222
0.00631235
0.00631416
0.00631021
0.00631045
0.00631211
0.00630823
0.00630856
0.00631021
0.0063062
0.0063066
0.00630832
0.00630407
0.00630452
0.00630635
0.00630179
0.00474342
0.00490978
0.00630232
0.00630425
0.00631439
0.00631641
0.00631444
0.00631646
0.0063124
0.00631226
0.00631416
0.00631308
0.00631409
0.00631237
0.00631254
0.0063141
0.00631031
0.00631023
0.006312
0.00631121
0.00630887
0.00631149
0.00630771
0.00631149
0.00631045
0.00631053
0.00631203
0.00630824
0.00630823
0.00630998
0.00630922
0.00629926
0.0063018
0.00627228
0.00628997
0.00630855
0.00630854
0.00631003
0.00630616
0.00630619
0.00630798
0.00630722
0.00630062
0.00629966
0.00629763
0.00628226
0.00630659
0.00630652
0.00630804
0.0063036
0.00630406
0.0063045
0.00630444
0.00630601
0.00630283
0.00630345
0.00629955
0.00514024
0.00475229
0.00568113
0.00630005
0.00630202
0.00631175
0.00631295
0.00631301
0.0063129
0.00631082
0.00631407
0.00631304
0.00631164
0.00631301
0.00631309
0.00631299
0.00631195
0.00630249
0.00630821
0.00631096
0.00630198
0.00628036
0.00631015
0.00630303
0.00629103
0.00630753
0.00631115
0.00630928
0.00630465
0.00631183
0.00630942
0.00631139
0.00629953
0.00629921
0.00630897
0.00627192
0.00628075
0.0062793
0.0062716
0.00628164
0.00627117
0.00630927
0.00630268
0.00630353
0.00630455
0.0063028
0.00630951
0.00627609
0.0062856
0.00628148
0.00627455
0.00630393
0.00629848
0.00630735
0.00630521
0.00630572
0.00630357
0.00630511
0.0063076
0.00629356
0.00629648
0.00628675
0.00629294
0.00630351
0.00630364
0.00630566
0.00630509
0.00630558
0.00629787
0.0062934
0.00629676
0.00629782
0.00630176
0.00630271
0.00631327
0.00631309
0.00631413
0.00631325
0.00631398
0.00630404
0.00630406
0.00630593
0.00630515
0.00630232
0.00630185
0.00625235
0.00622492
0.0063023
0.00630229
0.00630391
0.006314
0.00631324
0.00631414
0.00631312
0.00631335
0.00630174
0.00630077
0.00630697
0.00448187
0.00477504
0.00576133
0.00590014
0.00479676
0.00518158
0.00621952
0.00616766
0.00630531
0.00630499
0.00630422
0.00591563
0.00599198
0.00630409
0.00630319
0.00630343
0.00631531
0.00631519
0.00631423
0.00631425
0.0063152
0.00631531
0.00631313
0.0063135
0.00631323
0.00631403
0.00631333
0.00631364
0.00630915
0.00630998
0.00628171
0.00628272
0.00629245
0.00629067
0.00630336
0.00617079
0.00630456
0.00627262
0.00625537
0.00625955
0.00627506
0.00630322
0.00628351
0.00631238
0.00622734
0.00630268
0.00621139
0.00631212
0.00630491
0.00631319
0.00631348
0.00631269
0.00629148
0.00631238
0.00631247
0.00629023
0.00628887
0.00630813
0.00630762
0.00629772
0.00629865
0.00630532
0.00631073
0.0063111
0.00631025
0.00631061
0.00630525
0.00631085
0.00631171
0.00631208
0.00631122
0.00631159
0.00631054
0.00627599
0.00627648
0.00627337
0.00627275
0.00625922
0.00626073
0.00630183
0.00630888
0.00630922
0.00630843
0.00630877
0.00630177
0.00630378
0.00630979
0.00631014
0.00630934
0.00630968
0.00630367
0.00450414
0.0062805
0.00479685
0.00448278
0.00518798
0.00481823
0.00628184
0.00626814
0.00451113
0.0062697
0.00630241
0.00630204
0.00630431
0.00630797
0.00630832
0.0063075
0.00630785
0.0063045
0.00553374
0.00573006
0.0062898
0.00553483
0.00521874
0.00578132
0.00556912
0.00629069
0.00521923
0.00550236
0.00630364
0.0062283
0.00625652
0.00617737
0.00622252
0.00630366
0.00615464
0.00598028
0.00600648
0.00494778
0.00600048
0.00597
0.00525831
0.0062716
0.0062742
0.00631382
0.00630186
0.0063018
0.00630379
0.00630297
0.00630197
0.00630266
0.00558915
0.00629876
0.00630098
0.00631382
0.00630221
0.00630235
0.00630488
0.00491883
0.00496844
0.00459531
0.00596825
0.00596304
0.0050107
0.00508511
0.00625968
0.00627067
0.00420985
0.00631459
0.00631464
0.00631409
0.00631408
0.00631464
0.0063146
0.00631024
0.00631149
0.00631109
0.00630795
0.0063074
0.00631084
0.00629983
0.00630937
0.006309
0.00630988
0.00630949
0.00630018
0.00627648
0.00628696
0.00629546
0.00628376
0.0060286
0.0059767
0.00630313
0.00627667
0.00628727
0.00628356
0.00628306
0.00507704
0.00631362
0.00631339
0.00631405
0.00631196
0.00630952
0.00630802
0.00631259
0.00631272
0.00631312
0.00631221
0.00631259
0.00631244
0.00630483
0.00631041
0.00631001
0.00631095
0.00631055
0.00630565
0.00629687
0.00609033
0.00621708
0.00598517
0.00601184
0.00628381
0.00622989
0.0062438
0.00630528
0.00629391
0.0063017
0.00630704
0.00631063
0.00631077
0.00630973
0.00630994
0.00630493
0.00630888
0.00630852
0.00629923
0.00627397
0.00589551
0.00581454
0.00627642
0.00594542
0.00597717
0.00580051
0.0058235
0.00627118
0.00627296
0.00626516
0.00630228
0.00630861
0.00630876
0.00630785
0.00630821
0.00630287
0.00630423
0.00630947
0.00630966
0.00630881
0.00630896
0.00630318
0.0063034
0.00626026
0.00627005
0.00624725
0.0062406
0.00630026
0.00630591
0.00630702
0.00630738
0.00630652
0.0063069
0.00630587
0.00629511
0.00593912
0.00580473
0.00606664
0.00602789
0.00629551
0.00530679
0.00534716
0.00629738
0.00610628
0.00607801
0.00526216
0.00529581
0.00609098
0.00604192
0.00631358
0.00631383
0.00631368
0.0059795
0.00624234
0.00601563
0.00604006
0.00603348
0.00623883
0.00631372
0.00631355
0.00631389
0.00631327
0.00631362
0.00451787
0.00461136
0.00492253
0.00491965
0.00583029
0.00506687
0.00501853
0.00516565
0.00508058
0.00584818
0.00490941
0.00498216
0.00620049
0.00619175
0.0059542
0.00529179
0.00520936
0.00509229
0.00513001
0.00631278
0.00631319
0.00631344
0.00631279
0.0063131
0.00631259
0.00630806
0.00631069
0.00627755
0.00628591
0.00629493
0.00628472
0.00618288
0.00627397
0.00626689
0.0062813
0.00627617
0.00618059
0.00625043
0.00624353
0.00626467
0.0062543
0.00626659
0.00611532
0.0061445
0.00606127
0.00610061
0.00626405
0.00594787
0.00596686
0.00626407
0.0063099
0.00630717
0.00631241
0.00631069
0.0062737
0.00629046
0.00628485
0.00630509
0.0062929
0.00631156
0.00631314
0.00631266
0.00631062
0.00630865
0.00631146
0.0063099
0.00631206
0.00631034
0.00631212
0.00631267
0.00631072
0.0063119
0.00631272
0.00631228
0.00631162
0.00604677
0.00607096
0.00629492
0.00586557
0.00576616
0.00611051
0.00588737
0.00561827
0.00552452
0.00573503
0.00565726
0.00628506
0.00602098
0.00604027
0.00621692
0.00619381
0.00628197
0.0062366
0.00616542
0.00613786
0.00618964
0.00617241
0.00630591
0.00624695
0.00625551
0.0062949
0.00630117
0.0063103
0.00631055
0.00630612
0.00630501
0.00631001
0.00631023
0.00591059
0.00590912
0.00627457
0.00536818
0.00536028
0.0050075
0.00532542
0.00531338
0.00542536
0.00535063
0.00532111
0.00589807
0.00593466
0.00627556
0.00537313
0.00527643
0.00550065
0.00540318
0.00509671
0.00499526
0.00523966
0.00513995
0.00627148
0.00584098
0.00588378
0.00626696
0.00626394
0.00630843
0.00630856
0.00630215
0.00630242
0.00630825
0.00630838
0.00630923
0.00630941
0.00630412
0.0063033
0.00630901
0.00630918
0.00452953
0.00462131
0.00592786
0.00598587
0.00585253
0.00590742
0.00451361
0.00503817
0.00606384
0.00598174
0.00600195
0.00604911
0.00496215
0.00560981
0.00564011
0.00549275
0.00559865
0.00459312
0.00577928
0.00583725
0.00565757
0.00574893
0.00458894
0.0062516
0.00625784
0.0063032
0.00622353
0.0062369
0.00624027
0.00622288
0.00623693
0.00630069
0.00623674
0.0062463
0.00561583
0.00480035
0.00479262
0.00498534
0.00482541
0.00564429
0.00491935
0.00532665
0.00479586
0.00537295
0.00620118
0.00628704
0.00628286
0.00629193
0.00628841
0.00620506
0.00613444
0.00614272
0.00536697
0.00541415
0.00515997
0.00524715
0.00612339
0.00610208
0.00631449
0.00631463
0.00631627
0.00630316
0.00630296
0.00630209
0.00631427
0.0063143
0.00631396
0.00631391
0.0063143
0.00631428
0.0063153
0.00631525
0.0063143
0.00631201
0.00631162
0.00631061
0.00630779
0.0063021
0.00630128
0.00627347
0.00628894
0.00630792
0.00630756
0.00630002
0.00626138
0.00625847
0.0062827
0.0062722
0.00627713
0.00630434
0.00631236
0.00631254
0.00631214
0.00629991
0.00630363
0.00631133
0.00631281
0.00631244
0.00631279
0.00630978
0.00628205
0.00629824
0.00629198
0.00630042
0.00629952
0.00630699
0.00630768
0.00630774
0.00630474
0.00631094
0.00631109
0.00630973
0.00629927
0.0063084
0.00630804
0.00593684
0.00590092
0.00627865
0.00628051
0.00626549
0.00626408
0.00627005
0.00630256
0.00630668
0.00630672
0.00630444
0.00630754
0.00630761
0.00630676
0.0063068
0.00630293
0.00626525
0.00599297
0.00595537
0.00630365
0.00630767
0.00630776
0.00630544
0.00630601
0.00630639
0.004911
0.00491034
0.00613503
0.00611443
0.00629752
0.00491591
0.00491292
0.00628817
0.00629011
0.00630235
0.00631334
0.00631327
0.00446569
0.0045215
0.00453847
0.00474784
0.00482142
0.00450927
0.00451267
0.00484398
0.00479688
0.00513101
0.00612314
0.00611367
0.0061758
0.00535536
0.00530571
0.00596452
0.00631472
0.00631467
0.00631413
0.00631288
0.00631304
0.00631319
0.00631331
0.0063122
0.00631239
0.00631353
0.00631378
0.00631363
0.00630611
0.00630569
0.00630856
0.00631036
0.00630907
0.00630833
0.00627981
0.00628374
0.00626948
0.00627179
0.00629361
0.00628844
0.00625958
0.00626481
0.00619311
0.00619426
0.00622487
0.00622072
0.00617074
0.00619708
0.00620038
0.00630441
0.00627908
0.00628441
0.00627618
0.00624476
0.0062882
0.00628307
0.00630889
0.00630678
0.00629789
0.00615921
0.00614074
0.00627015
0.00623381
0.00618224
0.00631339
0.00631323
0.0063123
0.00631211
0.00630994
0.00631109
0.00629773
0.00631134
0.00631194
0.00625828
0.00627286
0.00630945
0.00611696
0.00609523
0.00629681
0.00629956
0.00631156
0.00631171
0.00631132
0.00630984
0.00631124
0.0063114
0.00627808
0.00589748
0.00590557
0.00625929
0.00626178
0.00630717
0.00630723
0.00630389
0.00630355
0.00630705
0.00630711
0.00452529
0.0047704
0.00523254
0.00526466
0.00490138
0.00492651
0.00445553
0.00601956
0.0059999
0.00626668
0.00458317
0.00454621
0.00477249
0.00477718
0.00454061
0.00487747
0.00488841
0.00451465
0.00452064
0.0063075
0.00630759
0.00630374
0.0063048
0.00630732
0.00630741
0.00538726
0.00604499
0.0060645
0.00600314
0.00602418
0.005334
0.00624144
0.00628926
0.00629287
0.00629168
0.00629054
0.00624579
0.00618722
0.00623578
0.0062302
0.0061404
0.00612676
0.00615758
0.00498579
0.00501219
0.00502504
0.00492968
0.00602323
0.00545434
0.00538082
0.00551443
0.00547149
0.00595907
0.00589538
0.00590143
0.00615223
0.00617633
0.00627807
0.00631374
0.00631382
0.00631361
0.00492194
0.00493624
0.00536119
0.00535411
0.00454904
0.00505249
0.0049855
0.00498376
0.00496588
0.00497788
0.00507403
0.00422795
0.00610327
0.00612149
0.00631437
0.00631433
0.00631396
0.00630367
0.00630289
0.00630787
0.00630593
0.00630826
0.0063099
0.00630742
0.00630791
0.00627526
0.00628794
0.00624536
0.00624915
0.00624956
0.00624534
0.00628315
0.00625644
0.00625507
0.00601722
0.00592584
0.00592463
0.00594335
0.0059392
0.00600261
0.00630906
0.00631077
0.00631089
0.00631044
0.00631065
0.00630856
0.00629294
0.00630553
0.00629851
0.00629605
0.00630484
0.00630781
0.00630788
0.00626561
0.00626636
0.00627812
0.00626702
0.0063066
0.00630664
0.00630242
0.00630741
0.00630748
0.00630434
0.00630306
0.00630685
0.0063069
0.00624732
0.00626041
0.00625527
0.00626468
0.00626308
0.00624586
0.00491185
0.00491896
0.00492654
0.00492012
0.00527405
0.00506819
0.00506022
0.00593378
0.00593574
0.00607613
0.00596928
0.0059907
0.00593072
0.00594665
0.00605869
0.00631351
0.00631343
0.00631348
0.00631347
0.00631375
0.00631379
0.00631389
0.00631359
0.00631367
0.00631365
0.00600806
0.00613753
0.00613021
0.00615783
0.00614732
0.00601643
0.00606575
0.00610266
0.00608734
0.00612429
0.00611657
0.00605247
0.00631364
0.00631372
0.00631361
0.00631252
0.0063117
0.0063134
0.0063132
0.0044681
0.00470077
0.00454768
0.00453673
0.00492235
0.00492113
0.00524987
0.00527694
0.00503901
0.00455589
0.00451855
0.00485619
0.00470351
0.00470738
0.00468667
0.00506186
0.00471354
0.00462939
0.00612997
0.00614365
0.0062081
0.00609124
0.00609541
0.00608047
0.00608333
0.0061832
0.00610965
0.00611544
0.00509947
0.00493748
0.00495196
0.004925
0.00492569
0.00511047
0.00631299
0.00631309
0.00631293
0.00631217
0.00631254
0.00631287
0.00630288
0.00630823
0.0063051
0.00630441
0.0063062
0.00630683
0.00630475
0.00630552
0.00627865
0.0062848
0.00625429
0.00625539
0.00625084
0.00625262
0.00629436
0.00627301
0.00627385
0.00625447
0.00625589
0.0062863
0.00625505
0.0062048
0.00619621
0.00617536
0.00621723
0.0062127
0.00624758
0.00620566
0.00620442
0.00621944
0.00621153
0.00624556
0.00626201
0.00622548
0.00622981
0.00620942
0.00621784
0.00625845
0.00620131
0.00607433
0.00617429
0.00616704
0.00593872
0.00594805
0.00625926
0.00629266
0.00629046
0.00625446
0.00628185
0.00630116
0.00629608
0.00619
0.00617365
0.00625156
0.00625525
0.00628685
0.00622501
0.00620772
0.00630406
0.00630689
0.00631141
0.00630867
0.00630049
0.00628927
0.00629985
0.00631116
0.00631176
0.00631195
0.00631108
0.00631138
0.00631017
0.0063088
0.00630989
0.00631227
0.00631176
0.0063115
0.00631243
0.00631194
0.00631246
0.00631103
0.00631117
0.00631039
0.00631125
0.00583891
0.00580074
0.00604828
0.00577166
0.00580485
0.00570125
0.00590637
0.00558331
0.0055521
0.0057073
0.00568303
0.00620516
0.00609628
0.006121
0.00604653
0.00607065
0.00619851
0.00627658
0.00623345
0.00624551
0.00613546
0.00620505
0.00626386
0.00607512
0.00603607
0.00615819
0.00588606
0.00591185
0.00584078
0.00586322
0.00615005
0.0061853
0.00600533
0.00602478
0.00594032
0.00597154
0.00617917
0.0062959
0.00630043
0.00537697
0.0050299
0.0050778
0.0049328
0.0049793
0.00536951
0.00508988
0.00510496
0.00510381
0.00521604
0.00532785
0.00467978
0.00472726
0.00475669
0.00468136
0.00536492
0.00534105
0.0048507
0.00489002
0.00477479
0.00481493
0.00533153
0.00534722
0.00531786
0.00547597
0.0054374
0.00505766
0.00502187
0.00520732
0.00517932
0.00626181
0.00626282
0.00630401
0.00630729
0.00630735
0.00630695
0.006307
0.00630342
0.00453854
0.00512082
0.00518695
0.00472099
0.00445516
0.00497275
0.00504272
0.00466147
0.00462124
0.00561868
0.0050438
0.00505005
0.00554733
0.00499105
0.00488025
0.00505202
0.00503814
0.00558051
0.00475107
0.00470449
0.00480641
0.00485534
0.00457139
0.00458367
0.00470045
0.0062544
0.00627913
0.00627724
0.00628189
0.00628056
0.00625613
0.00622815
0.00623455
0.00623414
0.00622189
0.00622184
0.00622741
0.00623641
0.00626843
0.00626623
0.00627457
0.0062714
0.00624051
0.004792
0.00498705
0.00501458
0.00494467
0.00496532
0.00479067
0.00492838
0.00516251
0.00521277
0.00505357
0.00510557
0.00487297
0.00490772
0.00470227
0.00471491
0.00470593
0.00470384
0.00479679
0.00488255
0.00492001
0.0047555
0.00481844
0.0047873
0.00624414
0.00624056
0.00619614
0.00613275
0.00615202
0.00493948
0.00497524
0.00519458
0.00498761
0.00494612
0.00504895
0.00502806
0.00522538
0.00493483
0.00493279
0.00590751
0.00591552
0.00631903
0.00631903
0.00632014
0.00631901
0.00631901
0.00632013
0.00631901
0.00631901
0.00632013
0.00631903
0.00631905
0.00632015
0.00631682
0.0063168
0.00631792
0.00631678
0.00631676
0.00631847
0.00631674
0.00631671
0.00631844
0.00631671
0.00631675
0.00631845
0.00631678
0.00631682
0.00631849
0.00631686
0.00631687
0.00631796
0.00631465
0.0063146
0.00631625
0.00631455
0.00631444
0.00631618
0.00631556
0.00631553
0.00631644
0.00631548
0.00631551
0.00631641
0.00631564
0.00631568
0.00631622
0.00631468
0.00631473
0.0063158
0.0063125
0.00631244
0.00631405
0.00631347
0.00631345
0.00631399
0.00631382
0.0063138
0.00631408
0.0063134
0.00631352
0.00631432
0.00631257
0.00631264
0.00631368
0.00631038
0.00631034
0.00631191
0.00631135
0.00631135
0.00631187
0.00631171
0.00631171
0.00631196
0.0063114
0.00631148
0.00631223
0.00631054
0.00631057
0.0063116
0.00630827
0.00630826
0.00630982
0.00630928
0.0063093
0.00630981
0.00630971
0.0063097
0.00630995
0.0063095
0.00630953
0.00631026
0.00630853
0.00630852
0.00630955
0.00630616
0.00630617
0.00630774
0.00630721
0.00630724
0.00630776
0.00630773
0.00630773
0.00630798
0.00630758
0.00630756
0.0063083
0.0063065
0.00630645
0.00630749
0.00630402
0.00630404
0.00630564
0.00630568
0.00630568
0.00630594
0.00630556
0.00630549
0.00630627
0.0063044
0.00630435
0.0063054
0.00630186
0.00630187
0.0063035
0.00630341
0.00630341
0.00630394
0.00630225
0.00630221
0.00630328
0.00629964
0.0062996
0.00630071
0.00629963
0.00629957
0.00630123
0.00630066
0.00629912
0.00629995
0.00513538
0.00623873
0.00624513
0.00630006
0.0063001
0.00630175
0.00630003
0.00630005
0.00630113
0.00629745
0.00629742
0.00629851
0.00629744
0.00629737
0.00629902
0.00629733
0.00551969
0.0054995
0.00598172
0.00629782
0.0062995
0.00629783
0.00629789
0.00629953
0.00629782
0.00629785
0.00629894
0.00629526
0.00629521
0.00629631
0.00629221
0.00589002
0.00552549
0.00614891
0.00629546
0.00629726
0.00629565
0.0062957
0.00629679
0.00631222
0.00631248
0.00631248
0.00631259
0.00631268
0.00631229
0.00631414
0.00631387
0.00631389
0.0063102
0.00631045
0.00631046
0.00631068
0.00631068
0.00631033
0.00631216
0.00631178
0.00631187
0.00630823
0.00630847
0.00630848
0.0063088
0.00630883
0.00630849
0.00631021
0.00630987
0.00630998
0.0063062
0.00630646
0.00630646
0.00630685
0.00630692
0.00630655
0.00630837
0.00630802
0.00630808
0.00630479
0.00630476
0.0063045
0.00630631
0.00630606
0.00630609
0.00630022
0.00630173
0.00630269
0.00454426
0.00526357
0.00526963
0.00584171
0.00584338
0.0042392
0.00630423
0.00630396
0.00630398
0.00631428
0.00631523
0.00631526
0.006314
0.006314
0.0063139
0.00631641
0.0063155
0.00631547
0.00631399
0.00631401
0.00631472
0.00631471
0.00631442
0.00631645
0.00631556
0.00631559
0.00631239
0.00631292
0.00631293
0.00631305
0.0063129
0.00631238
0.00631397
0.00631343
0.00631332
0.00631322
0.00631318
0.00631291
0.00631406
0.0063139
0.00631394
0.00631248
0.00631325
0.00631314
0.00631305
0.00631306
0.00631255
0.00631409
0.00631357
0.00631357
0.00631032
0.00631083
0.00631083
0.00631098
0.00631084
0.00631033
0.00631186
0.00631135
0.00631123
0.0063112
0.00631145
0.00631146
0.00630939
0.00631069
0.00631046
0.00631184
0.00631167
0.00631122
0.00631096
0.00631036
0.00631126
0.0063105
0.00631124
0.00631116
0.00631103
0.00631106
0.00631057
0.00631205
0.00631155
0.00631153
0.00630827
0.00630879
0.00630876
0.00630898
0.00630881
0.0063083
0.00630982
0.00630932
0.00630923
0.00630921
0.00630946
0.00630947
0.00629935
0.00630675
0.00630664
0.00630786
0.00630761
0.00630117
0.00630855
0.00630929
0.00630927
0.00630904
0.0063091
0.0063086
0.00631008
0.00630959
0.00630954
0.0063062
0.00630672
0.00630669
0.00630697
0.00630676
0.00630624
0.00630779
0.00630728
0.00630722
0.00630722
0.00630748
0.00630748
0.00630016
0.00630744
0.00630708
0.00630589
0.00630583
0.00629977
0.00629678
0.00627761
0.00628013
0.00630654
0.0063073
0.00630734
0.00630703
0.0063071
0.00630659
0.00630811
0.00630761
0.00630754
0.00630354
0.00629075
0.00629356
0.00629937
0.00629983
0.00630417
0.00630447
0.006305
0.0063053
0.00630497
0.00630503
0.0063045
0.00630608
0.00630556
0.00630549
0.00630293
0.00630144
0.00630144
0.006301
0.00630113
0.00630338
0.00629866
0.00629883
0.0063001
0.0050917
0.00628277
0.00628132
0.00596552
0.00596906
0.00479248
0.00629786
0.00629853
0.00561348
0.00630061
0.00630057
0.00629985
0.00630181
0.00630084
0.00630117
0.00631198
0.00631216
0.00631201
0.00631308
0.00631267
0.00631252
0.00631274
0.00631273
0.006313
0.00631275
0.00631212
0.00631283
0.00631392
0.0063139
0.00631405
0.00631298
0.00631315
0.00631319
0.00631176
0.00631137
0.00631123
0.00631299
0.00631291
0.00631294
0.00631308
0.00631282
0.00631284
0.00631286
0.0063129
0.00631303
0.00631211
0.00631224
0.00631214
0.00630324
0.00630842
0.00630813
0.0063102
0.00630992
0.00630737
0.00631071
0.0063107
0.00631095
0.00630062
0.00628655
0.00629039
0.00624117
0.00624318
0.00628145
0.00629289
0.00629467
0.00630388
0.00631116
0.0063108
0.00631092
0.00630903
0.00631003
0.00631019
0.00631144
0.00631184
0.00631198
0.00631031
0.00631041
0.00630953
0.00631163
0.00631165
0.00631128
0.00629942
0.00630603
0.00630596
0.00630653
0.00630644
0.00629921
0.00630872
0.00630872
0.00630897
0.00627263
0.00622325
0.00622146
0.00624157
0.00623973
0.00627999
0.0062783
0.00623734
0.00623924
0.00622028
0.00621965
0.00627121
0.00630929
0.00630895
0.00630904
0.00630671
0.00630669
0.00630344
0.00630974
0.00630975
0.00630941
0.00627761
0.00613037
0.00610639
0.00622267
0.00621733