/*--------------------------------*- C++ -*----------------------------------*\
| =========                 |                                                 |
| \\      /  F ield         | OpenFOAM: The Open Source CFD Toolbox           |
|  \\    /   O peration     | Version:  5.x                                   |
|   \\  /    A nd           | Web:      www.OpenFOAM.org                      |
|    \\/     M anipulation  |                                                 |
\*---------------------------------------------------------------------------*/
FoamFile
{
    version     2.0;
    format      ascii;
    class       volScalarField;
    location    "400";
    object      YSat;
}
// * * * * * * * * * * * * * * * * * * * * * * * * * * * * * * * * * * * * * //

dimensions      [0 0 0 0 0 0 0];

internalField   nonuniform List<scalar> 
6584
(
0.00431405
0.00431405
0.00431405
0.00431405
0.00431405
0.00431405
0.00431405
0.00431405
0.00431405
0.00431405
0.00431405
0.00431405
0.00431405
0.00431405
0.00431405
0.00431405
0.00431405
0.00431405
0.00431405
0.00431405
0.00431405
0.00431405
0.00431405
0.00431405
0.00431405
0.00431405
0.00431405
0.00431405
0.00431405
0.00431405
0.00431405
0.00431405
0.00431405
0.00431405
0.00431405
0.00431405
0.00431405
0.00431405
0.00431405
0.00431405
0.00431405
0.00431405
0.00431405
0.00431405
0.00431405
0.00431405
0.00431405
0.00431405
0.00431405
0.00431405
0.00431405
0.00431405
0.00431405
0.00431405
0.00431405
0.00431405
0.00431405
0.00431405
0.00431405
0.00431405
0.00431405
0.00431405
0.00431405
0.00431405
0.00431405
0.00431405
0.00431405
0.00431405
0.00431405
0.00431405
0.00431405
0.00431405
0.00431405
0.00431405
0.00431405
0.00431405
0.00431405
0.00431405
0.00431405
0.00431405
0.00431405
0.00431405
0.00431405
0.00431405
0.00431405
0.00431405
0.00431405
0.00431405
0.00431405
0.00431405
0.00431405
0.00431405
0.00431405
0.00431405
0.00431405
0.00431405
0.00431405
0.00431405
0.00431405
0.00431405
0.00431405
0.00431405
0.00431405
0.00431405
0.00431405
0.00431405
0.00431405
0.00431405
0.00431405
0.00431405
0.00431405
0.00431405
0.00431405
0.00431405
0.00431405
0.00431405
0.00431405
0.00431405
0.00431405
0.00431405
0.00431405
0.00431405
0.00431405
0.00431405
0.00431405
0.00431405
0.00431405
0.00431405
0.00431405
0.00431405
0.00431405
0.00431405
0.00431405
0.00431405
0.00431405
0.00431405
0.00431405
0.00431405
0.00431405
0.00431405
0.00431405
0.00431405
0.00431405
0.00431405
0.00431405
0.00431405
0.00431405
0.00431405
0.00431405
0.00431405
0.00431405
0.00431405
0.00431405
0.00431405
0.00431405
0.00431405
0.00431405
0.00431405
0.00431405
0.00431405
0.00431405
0.00431405
0.00431405
0.00431405
0.00431405
0.00431405
0.00431405
0.00431405
0.00431405
0.00431405
0.00431405
0.00431405
0.00431405
0.00431405
0.00431405
0.00431405
0.00431405
0.00431405
0.00431405
0.00431405
0.00431405
0.00431405
0.00431405
0.00431405
0.00431405
0.00431405
0.00431405
0.00431405
0.00431405
0.00431405
0.00431405
0.00431405
0.00431405
0.00431405
0.00431405
0.00431405
0.00431405
0.00431405
0.00431405
0.00431405
0.00431405
0.00431405
0.00431405
0.00431405
0.00431405
0.00431405
0.00431405
0.00431405
0.00431405
0.00431405
0.00431405
0.00431405
0.00431405
0.00431405
0.00431405
0.00431405
0.00431405
0.00431405
0.00431405
0.00431405
0.00431405
0.00431405
0.00431405
0.00431405
0.00431405
0.00431405
0.00431405
0.00431405
0.00431405
0.00431405
0.00431405
0.00431405
0.00431405
0.00431405
0.00431405
0.00431405
0.00431405
0.00431405
0.00431405
0.00431405
0.00431405
0.00431405
0.00431405
0.00431405
0.00431405
0.00431405
0.00431405
0.00431405
0.00431405
0.00431405
0.00431405
0.00431405
0.00431405
0.00431405
0.00431405
0.00431405
0.00431405
0.00431405
0.00431405
0.00431405
0.00431405
0.00431405
0.00431405
0.00431405
0.00431405
0.00431405
0.00431405
0.00431405
0.00431405
0.00431405
0.00431405
0.00431405
0.00431405
0.00431405
0.00431405
0.00431405
0.00431405
0.00431405
0.00431405
0.00431405
0.00431405
0.00431405
0.00431405
0.00431405
0.00431405
0.00431405
0.00431405
0.00431405
0.00431405
0.00431405
0.00431405
0.00431405
0.00431405
0.00431405
0.00431405
0.00431405
0.00431405
0.00431405
0.00431405
0.00431405
0.00431405
0.00431405
0.00431405
0.00431405
0.00431405
0.00431405
0.00431405
0.00431405
0.00431405
0.00431405
0.00431405
0.00431405
0.00431405
0.00431405
0.00431405
0.00431405
0.00431405
0.00431405
0.00337629
0.00431405
0.00431405
0.00431405
0.00431405
0.00431405
0.00431405
0.00431405
0.00431405
0.00431405
0.00431405
0.00431405
0.00431405
0.00431405
0.00431405
0.00431405
0.00431405
0.00431405
0.00431405
0.00431405
0.00431405
0.00431405
0.00431405
0.00431404
0.00405496
0.00431405
0.00431405
0.00431405
0.00431405
0.00431405
0.00431405
0.00431405
0.00431405
0.00431405
0.00431405
0.00431405
0.00431405
0.00431405
0.00431405
0.00431405
0.00431405
0.00431405
0.00431405
0.00431405
0.00431405
0.00431405
0.00431405
0.00431403
0.00407492
0.00431405
0.00431405
0.00431405
0.00431405
0.00431405
0.00431405
0.00431405
0.00431405
0.00431405
0.00431405
0.00431405
0.00431405
0.00431405
0.00431405
0.00431405
0.00431405
0.00431405
0.00431405
0.00431405
0.00431405
0.00431405
0.00431405
0.00431086
0.00420064
0.00431405
0.00431405
0.00431405
0.00431405
0.00431405
0.00431405
0.00431405
0.00431405
0.00431405
0.00431405
0.00431405
0.00431405
0.00431405
0.00431405
0.00431405
0.00431405
0.00431405
0.00431405
0.00431405
0.00431405
0.00431405
0.00431405
0.00430922
0.0042033
0.00431405
0.00431405
0.00431405
0.00431405
0.00431405
0.00431405
0.00431405
0.00431405
0.00431405
0.00431405
0.00431405
0.00431405
0.00431405
0.00431405
0.00431405
0.00431405
0.00431405
0.00431405
0.00431405
0.00431405
0.00431405
0.00431352
0.00417429
0.00426105
0.00431404
0.00431405
0.00431405
0.00431405
0.00431405
0.00431405
0.00431405
0.00431405
0.00431405
0.00431405
0.00431405
0.00431405
0.00431405
0.00431405
0.00431405
0.00431405
0.00431405
0.00431405
0.00431405
0.00431405
0.00431404
0.00431303
0.00417493
0.00426136
0.00431404
0.00431405
0.00431405
0.00431405
0.00431405
0.00431405
0.00431405
0.00431405
0.00431405
0.00431405
0.00431405
0.00431405
0.00431405
0.00431405
0.00431405
0.00431405
0.00431405
0.00431405
0.00431405
0.00431405
0.00431404
0.00431256
0.00417551
0.00426161
0.00431403
0.00431405
0.00431405
0.00431405
0.00431405
0.00431405
0.00431405
0.00431405
0.00431405
0.00431405
0.00431405
0.00431405
0.00431405
0.00431405
0.00431405
0.00431405
0.00431405
0.00431405
0.00431405
0.00431405
0.00431403
0.0043121
0.00417604
0.00426182
0.00431402
0.00431405
0.00431405
0.00431405
0.00431405
0.00431405
0.00431405
0.00431405
0.00431405
0.00431405
0.00431405
0.00431405
0.00431405
0.00431405
0.00431405
0.00431405
0.00431405
0.00431405
0.00431405
0.00431405
0.00431403
0.00431167
0.00417653
0.004262
0.00431402
0.00431405
0.00431405
0.00431405
0.00431405
0.00431405
0.00431405
0.00431405
0.00431405
0.00431405
0.00431405
0.00431405
0.00431405
0.00431405
0.00431405
0.00431405
0.00431405
0.00431405
0.00431405
0.00431405
0.00431402
0.00431126
0.00417699
0.00426215
0.00431401
0.00431405
0.00431405
0.00431405
0.00431405
0.00431405
0.00431405
0.00431405
0.00431405
0.00431405
0.00431405
0.00431405
0.00431405
0.00431405
0.00431405
0.00431405
0.00431405
0.00431405
0.00431405
0.00431405
0.00431401
0.00431087
0.00417742
0.00426228
0.004314
0.00431405
0.00431405
0.00431405
0.00431405
0.00431405
0.00431405
0.00431405
0.00431405
0.00431405
0.00431405
0.00431405
0.00431405
0.00431405
0.00431405
0.00431405
0.00431405
0.00431405
0.00431405
0.00431405
0.004314
0.00431044
0.00417786
0.00426241
0.004314
0.00431405
0.00431405
0.00431405
0.00431405
0.00431405
0.00431405
0.00431405
0.00431405
0.00431405
0.00431405
0.00431405
0.00431405
0.00431405
0.00431405
0.00431405
0.00431405
0.00431405
0.00431405
0.00431405
0.00431399
0.00430998
0.00417832
0.00426256
0.00431399
0.00431405
0.00431405
0.00431405
0.00431405
0.00431405
0.00431405
0.00431405
0.00431405
0.00431405
0.00431405
0.00431405
0.00431405
0.00431405
0.00431405
0.00431405
0.00431405
0.00431405
0.00431405
0.00431405
0.00431397
0.00430954
0.00417877
0.0042627
0.00431398
0.00431405
0.00431405
0.00431405
0.00431405
0.00431405
0.00431405
0.00431405
0.00431405
0.00431405
0.00431405
0.00431405
0.00431405
0.00431405
0.00431405
0.00431405
0.00431405
0.00431405
0.00431405
0.00431405
0.00431395
0.0043091
0.00417919
0.00426283
0.00431398
0.00431405
0.00431405
0.00431405
0.00431405
0.00431405
0.00431405
0.00431405
0.00431405
0.00431405
0.00431405
0.00431405
0.00431405
0.00431405
0.00431405
0.00431405
0.00431405
0.00431405
0.00431405
0.00431405
0.00431394
0.00430868
0.0041796
0.00426295
0.00431397
0.00431405
0.00431405
0.00431405
0.00431405
0.00431405
0.00431405
0.00431405
0.00431405
0.00431405
0.00431405
0.00431405
0.00431405
0.00431405
0.00431405
0.00431405
0.00431405
0.00431405
0.00431405
0.00431405
0.00431392
0.00430826
0.00418001
0.00426307
0.00431396
0.00431405
0.00431405
0.00431405
0.00431405
0.00431405
0.00431405
0.00431405
0.00431405
0.00431405
0.00431405
0.00431405
0.00431405
0.00431405
0.00431405
0.00431405
0.00431405
0.00431405
0.00431405
0.00431405
0.0043139
0.00430785
0.0041804
0.00426318
0.00431396
0.00431405
0.00431405
0.00431405
0.00431405
0.00431405
0.00431405
0.00431405
0.00431405
0.00431405
0.00431405
0.00431405
0.00431405
0.00431405
0.00431405
0.00431405
0.00431405
0.00431405
0.00431405
0.00431405
0.00431388
0.00430744
0.0041808
0.00426329
0.00431395
0.00431405
0.00431405
0.00431405
0.00431405
0.00431405
0.00431405
0.00431405
0.00431405
0.00431405
0.00431405
0.00431405
0.00431405
0.00431405
0.00431405
0.00431405
0.00431405
0.00431405
0.00431405
0.00431405
0.00431385
0.00430701
0.00418119
0.00426341
0.00431395
0.00431405
0.00431405
0.00431405
0.00431405
0.00431405
0.00431405
0.00431405
0.00431405
0.00431405
0.00431405
0.00431405
0.00431405
0.00431405
0.00431405
0.00431405
0.00431405
0.00431405
0.00431405
0.00431404
0.00431383
0.00430658
0.00418158
0.00426353
0.00431394
0.00431405
0.00431405
0.00431405
0.00431405
0.00431405
0.00431405
0.00431405
0.00431405
0.00431405
0.00431405
0.00431405
0.00431405
0.00431405
0.00431405
0.00431405
0.00431405
0.00431405
0.00431405
0.00431404
0.0043138
0.00430612
0.00418198
0.00426366
0.00431393
0.00431405
0.00431405
0.00431405
0.00431405
0.00431405
0.00431405
0.00431405
0.00431405
0.00431405
0.00431405
0.00431405
0.00431405
0.00431405
0.00431405
0.00431405
0.00431405
0.00431405
0.00431405
0.00431405
0.00431405
0.00431405
0.00431405
0.00431405
0.00431405
0.00431405
0.00431405
0.00327019
0.00334115
0.00431405
0.00431405
0.00431405
0.00431405
0.00431405
0.00431405
0.00431405
0.00431405
0.00431405
0.00431404
0.00431405
0.00431405
0.00431405
0.00431405
0.00431405
0.00431405
0.00431405
0.00431405
0.00431236
0.00431372
0.00431144
0.00431369
0.00431405
0.00431405
0.00431405
0.00431405
0.00431405
0.00431405
0.00431405
0.00430646
0.00430775
0.00428529
0.00429838
0.00431405
0.00431405
0.00431405
0.00431405
0.00431405
0.00431405
0.00431405
0.00430906
0.00430764
0.00430634
0.00429371
0.00431405
0.00431405
0.00431405
0.00431257
0.0043122
0.00431405
0.00431405
0.00431405
0.00431366
0.00431339
0.00431404
0.00352349
0.00327554
0.00385054
0.00431405
0.00431405
0.00431383
0.00431405
0.00431405
0.00431403
0.00431312
0.00431405
0.00431404
0.00431376
0.00431404
0.00431405
0.00431405
0.00431394
0.00430819
0.00431194
0.00431405
0.0043071
0.0042912
0.0043127
0.00430786
0.00429916
0.00431134
0.00431405
0.00431269
0.00430975
0.00431391
0.00431276
0.00431405
0.00430745
0.00430653
0.00431405
0.00428568
0.00429324
0.00429044
0.00428538
0.00429318
0.00428446
0.00431405
0.00430896
0.00431027
0.00430972
0.00430901
0.00431405
0.00429066
0.00429861
0.00429384
0.00428938
0.00431205
0.00430706
0.00431405
0.00431235
0.00431344
0.00431034
0.00431223
0.00431405
0.00430559
0.00430852
0.00429959
0.00430501
0.00431333
0.00431271
0.00431349
0.00431374
0.00431405
0.0043105
0.00430806
0.00430883
0.00431036
0.00431378
0.00431369
0.00431405
0.00431405
0.00431405
0.00431394
0.00431405
0.00431405
0.00431405
0.00431405
0.00431405
0.00431197
0.0043109
0.00427278
0.00425102
0.00431405
0.00431405
0.00431405
0.00431405
0.00431393
0.00431405
0.00431405
0.00431405
0.00431071
0.00430927
0.00431405
0.0030849
0.00326249
0.00392922
0.00402664
0.0032766
0.00352676
0.00424678
0.00420652
0.00431405
0.00431376
0.00431388
0.00403749
0.00409079
0.00431389
0.00431395
0.00431405
0.00431405
0.00431405
0.00431405
0.00431405
0.00431405
0.00431405
0.00431389
0.00431405
0.00431397
0.00431405
0.004314
0.00431405
0.00431225
0.00431284
0.00429231
0.00429305
0.00430198
0.00430055
0.00431208
0.00420867
0.00431294
0.00428924
0.0042752
0.00427819
0.00429081
0.00431353
0.00429129
0.00431393
0.00424828
0.00430617
0.00423607
0.00431383
0.00430786
0.00431392
0.00431405
0.00431356
0.00429743
0.00431398
0.004314
0.00429837
0.00429737
0.00431142
0.00431108
0.00430405
0.00430473
0.00430992
0.00431402
0.00431403
0.00431401
0.00431401
0.00430991
0.0043135
0.00431404
0.00431405
0.00431403
0.00431404
0.0043133
0.00428917
0.0042896
0.00428628
0.00428586
0.0042755
0.00427664
0.00430861
0.00431401
0.004314
0.00431401
0.00431401
0.0043086
0.00430943
0.004314
0.004314
0.004314
0.004314
0.00430938
0.00309764
0.00429432
0.0032723
0.00308415
0.00352313
0.00328563
0.00429544
0.0042841
0.00310063
0.00428539
0.00431052
0.00431017
0.00431124
0.00431402
0.00431401
0.00431402
0.00431402
0.00431143
0.00376857
0.00390735
0.00430222
0.00376182
0.00354403
0.00393809
0.00378609
0.00430299
0.00355217
0.0037465
0.00431312
0.00425336
0.00427575
0.00421375
0.00424882
0.00431303
0.00419652
0.00408084
0.00409949
0.00339581
0.00409672
0.0040736
0.00356065
0.00428884
0.00429056
0.00431403
0.00431405
0.00431405
0.00431405
0.00431405
0.00431336
0.00431326
0.00378601
0.00431227
0.00431338
0.00431404
0.00431272
0.00431209
0.00431405
0.00337771
0.00340827
0.00317703
0.00407204
0.00406877
0.0034346
0.00348086
0.00427989
0.00428823
0.00293233
0.00431405
0.00431405
0.00431405
0.00431405
0.00431405
0.00431405
0.00431314
0.00431403
0.00431402
0.00431149
0.00431053
0.00431333
0.00430662
0.00431393
0.00431392
0.00431394
0.00431393
0.00430679
0.00428842
0.00429617
0.00430451
0.004295
0.00410137
0.00406279
0.00431357
0.00429214
0.00430105
0.00430115
0.00430143
0.00348279
0.00431405
0.00431401
0.00431405
0.00431386
0.004312
0.00431097
0.00431404
0.00431405
0.00431405
0.00431405
0.00431405
0.00431403
0.00430971
0.00431398
0.00431395
0.00431401
0.00431399
0.00431024
0.00430329
0.00414606
0.00424174
0.0040693
0.00408862
0.00429368
0.00425149
0.00426198
0.00430946
0.00430127
0.00430693
0.00431109
0.00431381
0.00431383
0.00431364
0.00431367
0.00430984
0.00431392
0.00431393
0.00430683
0.00428741
0.00400559
0.00394708
0.00428839
0.00404059
0.00406353
0.00393697
0.00395319
0.00428489
0.00428632
0.00427992
0.00430878
0.00431366
0.00431364
0.00431361
0.00431375
0.00430963
0.0043096
0.00431362
0.00431364
0.00431364
0.00431362
0.00430918
0.00431149
0.0042775
0.00428527
0.00426704
0.00426196
0.00430859
0.00431322
0.00431403
0.00431403
0.00431403
0.00431403
0.00431328
0.00430706
0.00405287
0.00395511
0.00414352
0.00411533
0.00430748
0.00362103
0.00364834
0.00430961
0.00417233
0.00415178
0.00359171
0.00361368
0.00414832
0.00411134
0.00431403
0.00431404
0.00431404
0.00406495
0.00426479
0.00409178
0.00411005
0.00410511
0.004262
0.00431405
0.00431398
0.00431405
0.00431381
0.00431404
0.00310694
0.00316233
0.00337965
0.00337822
0.00397763
0.0034706
0.00343951
0.00353306
0.00347934
0.00399023
0.00334952
0.0033962
0.00423192
0.00422513
0.00406445
0.00361299
0.0035608
0.00348521
0.00350841
0.00431376
0.00431403
0.00431404
0.00431394
0.00431402
0.00431366
0.00431153
0.00431326
0.00428921
0.0042954
0.00430405
0.00429579
0.00421788
0.00428877
0.00428308
0.00429474
0.00429055
0.00421614
0.00427
0.00426455
0.0042813
0.00427306
0.00428429
0.00416689
0.00418919
0.00412598
0.00415571
0.00428222
0.0040415
0.00405557
0.00427643
0.00431194
0.00430997
0.00431368
0.00431251
0.00428383
0.00429724
0.00429303
0.0043084
0.00429908
0.00431288
0.00431401
0.00431381
0.00431211
0.00431063
0.00431333
0.00431225
0.00431389
0.00431246
0.00431362
0.0043139
0.00431271
0.0043135
0.00431403
0.00431378
0.00431341
0.00411397
0.00413167
0.00430184
0.00398076
0.00390982
0.00416092
0.00399643
0.00380654
0.00374231
0.00388786
0.00383358
0.00429459
0.00409527
0.00410924
0.00424091
0.0042234
0.00429084
0.00425597
0.00420209
0.00418145
0.00422027
0.00420734
0.0043099
0.00426435
0.00427079
0.004302
0.00430656
0.00431373
0.00431379
0.00431042
0.00430986
0.00431368
0.00431372
0.00401684
0.00401555
0.00428792
0.003638
0.00363281
0.0034041
0.00360951
0.00360164
0.00367659
0.00362639
0.00360677
0.00400653
0.00403284
0.00428779
0.00364061
0.00357684
0.00372616
0.00366061
0.00346068
0.00339645
0.00355282
0.00348836
0.00428506
0.00396567
0.00399627
0.00428162
0.00427902
0.00431369
0.00431367
0.00430873
0.00430923
0.00431374
0.0043137
0.00431361
0.00431362
0.00430956
0.00430923
0.00431362
0.00431361
0.00311197
0.0031659
0.00403194
0.0040749
0.00397661
0.00401689
0.00310235
0.0034247
0.00413333
0.00407318
0.00408689
0.00412224
0.0033761
0.00380322
0.0038246
0.00372235
0.00379539
0.00314876
0.00392345
0.00396544
0.00383691
0.00390171
0.0031463
0.00427063
0.00427558
0.00431128
0.00424892
0.00425922
0.00426199
0.00424843
0.00425922
0.00430897
0.00425899
0.00426648
0.0038267
0.00330142
0.00329413
0.00341834
0.00331759
0.00384683
0.00337741
0.00362553
0.00329528
0.00365713
0.00423216
0.00429948
0.00429603
0.0043036
0.00430063
0.00423519
0.00418102
0.00418732
0.00366169
0.00369441
0.00352712
0.00358212
0.00417298
0.00415674
0.00431405
0.00431405
0.00431405
0.00431405
0.00431399
0.004314
0.00431405
0.00431405
0.00431405
0.00431404
0.00431405
0.00431405
0.00431405
0.00431405
0.00431405
0.00431405
0.00431404
0.00431332
0.00431146
0.00430702
0.00430643
0.00428616
0.00429762
0.00431394
0.00431395
0.00430821
0.00427749
0.00427526
0.00429409
0.004287
0.00429098
0.00431257
0.004314
0.00431405
0.00431405
0.0043047
0.00430745
0.00431342
0.00431398
0.00431385
0.00431403
0.00431251
0.00429104
0.00430346
0.00429986
0.00430581
0.00430515
0.00431096
0.00431209
0.0043121
0.00430978
0.00431387
0.00431389
0.00431286
0.00430696
0.00431393
0.00431394
0.00403653
0.00401016
0.00429147
0.00429226
0.00428061
0.00427955
0.00428363
0.00430891
0.0043121
0.00431209
0.00430968
0.00431208
0.00431208
0.00431208
0.00431207
0.00430907
0.0042817
0.00407797
0.00405014
0.00431054
0.00431365
0.00431363
0.00431361
0.00431404
0.00431404
0.00336737
0.00336732
0.00419325
0.00417825
0.00430983
0.00337003
0.0033683
0.00430188
0.00430379
0.00431375
0.00431397
0.0043139
0.00307578
0.00311229
0.00312115
0.00324526
0.00329275
0.00310874
0.00310865
0.00331703
0.00328736
0.0034931
0.00417254
0.00416536
0.0042128
0.00365272
0.00362164
0.00407166
0.00431405
0.00431405
0.00431405
0.00431373
0.00431388
0.00431398
0.00431402
0.0043135
0.00431361
0.00431405
0.00431405
0.00431404
0.00430989
0.0043096
0.00431183
0.00431309
0.00431209
0.00431156
0.00429088
0.0042938
0.00428406
0.00428589
0.00430293
0.00429877
0.00427629
0.00428038
0.00422568
0.00422656
0.0042504
0.00424716
0.00420861
0.00422871
0.00423124
0.00431268
0.00429256
0.00429689
0.00428565
0.00426163
0.00429521
0.00429128
0.004311
0.0043094
0.0043025
0.00419655
0.00418259
0.00428132
0.00425334
0.00421384
0.00431404
0.00431403
0.0043134
0.00431316
0.00431149
0.00431233
0.00430223
0.00431291
0.00431334
0.00427287
0.00428398
0.0043123
0.00416467
0.00414835
0.00430339
0.0043054
0.00431398
0.004314
0.00431371
0.0043129
0.00431392
0.00431395
0.00429099
0.00400759
0.00401326
0.0042756
0.00427741
0.00431205
0.00431205
0.00430947
0.00430933
0.00431205
0.00431205
0.0031098
0.00325596
0.00354888
0.00357032
0.00333593
0.0033517
0.00306841
0.00409795
0.00408316
0.00428289
0.00314317
0.00312133
0.00325714
0.00325989
0.00311785
0.00332096
0.00332779
0.00310279
0.00310622
0.00431369
0.00431367
0.00431065
0.0043118
0.00431374
0.00431371
0.00365946
0.00412052
0.00413518
0.00408917
0.00410492
0.00362296
0.00426373
0.00430165
0.00430441
0.0043038
0.00430278
0.00426718
0.00422135
0.00425897
0.00425458
0.00418561
0.00417527
0.00419863
0.0034193
0.00343545
0.00344466
0.00337916
0.0041126
0.00371638
0.00366899
0.00375562
0.00372748
0.00406594
0.00400199
0.00400653
0.00419513
0.00421373
0.00429381
0.00431403
0.00431403
0.00431397
0.0033796
0.00338839
0.00366107
0.0036596
0.00314887
0.00346066
0.00341785
0.00341703
0.00340487
0.00341274
0.00347405
0.002943
0.00415766
0.00417151
0.00431405
0.00431405
0.00431405
0.00430815
0.0043076
0.00431147
0.00430942
0.00431125
0.00431248
0.00431068
0.00431102
0.00428751
0.00429689
0.00426548
0.00426839
0.00426879
0.00426549
0.00429448
0.00427373
0.00427269
0.00409289
0.00402511
0.00402414
0.00403811
0.004035
0.00408203
0.00431169
0.00431302
0.00431307
0.00431285
0.00431297
0.00431135
0.00430055
0.00430987
0.00430441
0.00430253
0.00430981
0.00431211
0.00431212
0.00428063
0.00428125
0.00429037
0.00428133
0.00431213
0.00431212
0.00430884
0.00431207
0.00431207
0.00430964
0.00430912
0.00431206
0.00431206
0.00426712
0.00427729
0.00427326
0.00428068
0.0042794
0.00426602
0.00336875
0.00337384
0.00337665
0.0033726
0.00359937
0.00346741
0.00346219
0.00403053
0.00403207
0.00413708
0.00405691
0.00407279
0.00402856
0.00404023
0.00412393
0.004314
0.00431398
0.00431401
0.00431396
0.00431403
0.00431404
0.00431405
0.00431401
0.00431402
0.004314
0.00408614
0.00418374
0.00417814
0.00419931
0.00419124
0.00409238
0.00412932
0.00415716
0.00414556
0.00417362
0.00416774
0.00411934
0.00431401
0.00431404
0.00431402
0.00431334
0.00431275
0.00431393
0.00431382
0.00307753
0.00321624
0.00312614
0.0031192
0.00337974
0.00337909
0.00358699
0.00360487
0.00345268
0.00314022
0.00311637
0.00331532
0.00323333
0.00323662
0.00322215
0.00344778
0.00323618
0.00318503
0.00417781
0.00418828
0.00423785
0.00414847
0.00415161
0.00414036
0.00414251
0.00421851
0.00416233
0.00416675
0.00348955
0.00338632
0.00339578
0.00337768
0.00337854
0.00349629
0.00431393
0.00431395
0.00431383
0.00431337
0.00431368
0.00431388
0.00430736
0.00431162
0.00430918
0.00430869
0.00430982
0.00431026
0.00430878
0.00430933
0.00429002
0.00429459
0.0042723
0.00427312
0.00426968
0.00427103
0.00430356
0.00428687
0.00428757
0.00427226
0.00427339
0.00429706
0.00427283
0.00423475
0.0042281
0.00421214
0.00424442
0.00424089
0.00426775
0.00423523
0.00423429
0.00424584
0.00423975
0.00426615
0.00427917
0.00425065
0.00425404
0.00423817
0.00424471
0.00427635
0.00423195
0.00413582
0.00421201
0.00420641
0.00403477
0.00404166
0.00427261
0.00429858
0.00429692
0.00426906
0.0042901
0.00430508
0.00430119
0.00421991
0.00420749
0.00426729
0.00427009
0.00429453
0.00424662
0.00423341
0.00430701
0.00430916
0.00431267
0.00431043
0.00430433
0.00429561
0.00430378
0.00431314
0.00431361
0.0043137
0.00431317
0.00431335
0.00431242
0.00431134
0.00431215
0.00431369
0.00431329
0.00431314
0.00431372
0.00431339
0.00431378
0.00431291
0.00431292
0.00431235
0.00431304
0.00396164
0.00393436
0.00411445
0.00391296
0.00393654
0.00386319
0.00401012
0.00378246
0.00376109
0.00386841
0.00385149
0.00423196
0.00414937
0.00416793
0.00411225
0.00413021
0.00422693
0.00428672
0.00425344
0.00426267
0.00417882
0.0042317
0.00427693
0.0041333
0.00410419
0.00419668
0.00399474
0.00401339
0.00396223
0.00397831
0.00419059
0.00421702
0.0040818
0.00409614
0.00403409
0.00405694
0.00421241
0.00430272
0.00430603
0.00364392
0.00341781
0.0034483
0.00335669
0.00338585
0.00363895
0.00345626
0.0034657
0.003465
0.0035376
0.00361126
0.0032016
0.00323023
0.00324773
0.00320245
0.00363598
0.00362002
0.0033057
0.00333005
0.00325911
0.00328368
0.0036137
0.00362345
0.00360408
0.0037095
0.00368352
0.00343584
0.00341321
0.00353181
0.00351371
0.00427759
0.00427818
0.00430951
0.00431205
0.00431206
0.00431205
0.00431205
0.00430928
0.00311739
0.00347565
0.00351878
0.0032258
0.00306828
0.00338085
0.00342535
0.00318984
0.00316579
0.00380947
0.00342573
0.00342973
0.0037598
0.00339247
0.00332333
0.00343102
0.00342223
0.00378276
0.00324394
0.00321573
0.00327712
0.00330723
0.00313593
0.00314319
0.00321276
0.00427284
0.0042922
0.00429068
0.00429444
0.00429336
0.00427422
0.00425247
0.00425742
0.0042572
0.00424772
0.00424769
0.00425195
0.00425875
0.00428367
0.00428192
0.00428855
0.00428603
0.00426196
0.00329545
0.00341641
0.0034345
0.00338814
0.00340198
0.00329375
0.0033824
0.00352998
0.00356267
0.00345972
0.0034932
0.00334752
0.00336984
0.00323534
0.00324318
0.00323656
0.00323591
0.00329506
0.0033478
0.00337188
0.00326815
0.0033075
0.00328845
0.00426557
0.00426273
0.00422825
0.00417976
0.0041944
0.00338753
0.00341102
0.00354886
0.00341637
0.00339049
0.00345496
0.00344176
0.00356831
0.00338212
0.00338067
0.00401106
0.00401703
0.00431405
0.00431405
0.00431405
0.00431405
0.00431405
0.00431405
0.00431405
0.00431405
0.00431405
0.00431405
0.00431405
0.00431405
0.00431405
0.00431405
0.00431405
0.00431405
0.00431405
0.00431405
0.00431405
0.00431405
0.00431405
0.00431405
0.00431405
0.00431405
0.00431405
0.00431405
0.00431405
0.00431405
0.00431405
0.00431405
0.00431405
0.00431405
0.00431405
0.00431405
0.00431405
0.00431405
0.00431405
0.00431405
0.00431405
0.00431405
0.00431405
0.00431405
0.00431405
0.00431405
0.00431405
0.00431405
0.00431405
0.00431405
0.00431405
0.00431405
0.00431405
0.00431405
0.00431405
0.00431405
0.00431405
0.00431405
0.00431405
0.00431405
0.00431405
0.00431405
0.00431405
0.00431405
0.00431405
0.00431405
0.00431405
0.00431405
0.00431405
0.00431405
0.00431405
0.00431405
0.00431405
0.00431405
0.00431405
0.00431405
0.00431405
0.00431405
0.00431405
0.00431405
0.00431405
0.00431405
0.00431405
0.00431405
0.00431405
0.00431405
0.00431405
0.00431403
0.00431403
0.00431405
0.00431405
0.00431405
0.00431405
0.00431405
0.00431405
0.00431405
0.00431405
0.00431405
0.00431405
0.00431405
0.00431405
0.00431405
0.00431403
0.00431403
0.00431405
0.00431405
0.00431405
0.00431405
0.00431405
0.00431405
0.00431405
0.00431405
0.00431405
0.00431405
0.00431404
0.00431404
0.00431405
0.00431405
0.00431405
0.00431405
0.00431405
0.00431405
0.00431405
0.00431405
0.00431405
0.00431405
0.00431405
0.00431405
0.00431405
0.00431405
0.00431405
0.00431405
0.00431405
0.00431405
0.00431405
0.00431405
0.00431405
0.00431405
0.00431299
0.00431297
0.00348318
0.00426371
0.00426853
0.00431405
0.00431405
0.00431405
0.00431405
0.00431405
0.00431405
0.00431405
0.00431405
0.00431405
0.00431405
0.00431405
0.00431405
0.00431404
0.00377277
0.00375736
0.00407026
0.00431405
0.00431405
0.00431405
0.00431405
0.00431405
0.00431405
0.00431405
0.00431405
0.00431405
0.00431404
0.00431405
0.00431199
0.00402576
0.00377727
0.00419918
0.00431398
0.00431405
0.00431405
0.00431405
0.00431405
0.00431405
0.00431405
0.00431405
0.00431405
0.00431405
0.00431405
0.00431405
0.00431405
0.00431405
0.00431404
0.00431404
0.00431405
0.00431405
0.00431404
0.00431404
0.00431405
0.00431405
0.00431405
0.00431403
0.00431403
0.00431405
0.00431405
0.00431404
0.00431404
0.00431404
0.00431403
0.00431405
0.00431404
0.00431404
0.00431405
0.00431405
0.00431404
0.00431405
0.00431404
0.00431404
0.00431405
0.00431405
0.00431405
0.00431405
0.00431405
0.00431405
0.00431405
0.00431297
0.00431339
0.00431405
0.00314637
0.0036023
0.00360732
0.00396404
0.00396529
0.0029495
0.00431405
0.00431405
0.00431405
0.00431405
0.00431405
0.00431405
0.00431405
0.00431405
0.00431404
0.00431405
0.00431405
0.00431405
0.00431405
0.00431405
0.00431405
0.00431405
0.00431405
0.00431405
0.00431405
0.00431405
0.00431405
0.00431405
0.00431405
0.00431405
0.00431405
0.00431405
0.00431405
0.00431405
0.00431405
0.00431405
0.00431403
0.004314
0.00431405
0.00431405
0.00431405
0.00431405
0.00431405
0.00431405
0.00431405
0.00431405
0.00431405
0.00431405
0.00431405
0.00431405
0.00431405
0.00431405
0.00431405
0.00431405
0.00431405
0.00431405
0.00431405
0.00431405
0.00431405
0.00431404
0.00431405
0.00431405
0.00431266
0.00431366
0.00431358
0.00431397
0.00431394
0.00431361
0.0043133
0.00431288
0.00431356
0.00431405
0.00431405
0.00431405
0.00431405
0.00431405
0.00431405
0.00431405
0.00431405
0.00431405
0.00431405
0.00431405
0.00431405
0.00431405
0.00431405
0.00431405
0.00431405
0.00431405
0.00431405
0.00431403
0.00431403
0.00431405
0.00430644
0.00431213
0.00431213
0.00431242
0.00431232
0.00430736
0.00431405
0.00431405
0.00431405
0.00431405
0.00431405
0.00431405
0.00431405
0.00431405
0.00431405
0.00431405
0.00431405
0.00431405
0.00431405
0.00431405
0.00431405
0.00431405
0.00431405
0.00431405
0.00431403
0.00431403
0.00431405
0.00430842
0.00431395
0.00431397
0.00431241
0.00431246
0.00430783
0.00430563
0.00429061
0.00429262
0.00431405
0.00431405
0.00431405
0.00431405
0.00431405
0.00431405
0.00431405
0.00431405
0.00431405
0.00431242
0.00430215
0.00430453
0.00430847
0.00430889
0.00431234
0.00431405
0.00431405
0.00431405
0.00431405
0.00431405
0.00431405
0.00431405
0.00431405
0.00431405
0.00431364
0.00431244
0.00431255
0.00431143
0.00431164
0.00431344
0.00431345
0.00431298
0.00431404
0.00349224
0.00430144
0.00430107
0.00407076
0.00407409
0.00329985
0.00431245
0.00431231
0.00380299
0.00431405
0.00431392
0.00431398
0.004314
0.00431392
0.00431405
0.0043139
0.00431402
0.004314
0.00431405
0.00431405
0.00431402
0.00431405
0.00431405
0.00431405
0.00431402
0.00431358
0.00431396
0.00431405
0.00431405
0.00431405
0.00431401
0.00431404
0.00431405
0.0043138
0.00431352
0.00431346
0.00431404
0.00431403
0.00431404
0.00431405
0.00431405
0.00431405
0.00431404
0.00431405
0.00431405
0.00431403
0.00431403
0.00431399
0.00430867
0.00431266
0.00431254
0.00431347
0.00431335
0.00431139
0.00431405
0.00431404
0.00431404
0.00430609
0.00429522
0.00429813
0.00426117
0.00426264
0.00429198
0.00430002
0.00430134
0.00430847
0.00431404
0.00431404
0.00431405
0.00431254
0.0043133
0.00431338
0.00431376
0.00431401
0.00431402
0.00431343
0.00431346
0.00431279
0.00431405
0.00431405
0.00431404
0.00430726
0.00431232
0.00431236
0.00431215
0.00431217
0.00430662
0.00431405
0.00431403
0.00431403
0.00428628
0.00424873
0.0042473
0.00426355
0.0042621
0.0042926
0.00428972
0.00425838
0.00425976
0.00424635
0.00424579
0.00428502
0.00431404
0.00431404
0.00431405
0.00431274
0.00431268