/*--------------------------------*- C++ -*----------------------------------*\
| =========                 |                                                 |
| \\      /  F ield         | OpenFOAM: The Open Source CFD Toolbox           |
|  \\    /   O peration     | Version:  5.x                                   |
|   \\  /    A nd           | Web:      www.OpenFOAM.org                      |
|    \\/     M anipulation  |                                                 |
\*---------------------------------------------------------------------------*/
FoamFile
{
    version     2.0;
    format      ascii;
    class       volScalarField;
    location    "300";
    object      massFlux;
}
// * * * * * * * * * * * * * * * * * * * * * * * * * * * * * * * * * * * * * //

dimensions      [0 0 0 0 0 0 0];

internalField   nonuniform List<scalar> 
6584
(
0.0241652
0.0241651
0.0241651
0.0241652
0.0241652
0.0241652
0.0241652
0.0241652
0.0241652
0.0241652
0.0241652
0.0241652
0.0241652
0.0241652
0.0241652
0.0241652
0.0241652
0.0241652
0.0241652
0.0241652
0.0241651
0.0241651
0.0241651
0.0241651
0.0241388
0.0241388
0.0241388
0.0241388
0.0241388
0.0241389
0.0241389
0.024139
0.024139
0.024139
0.024139
0.024139
0.024139
0.024139
0.024139
0.024139
0.024139
0.0241389
0.0241389
0.0241389
0.0241388
0.0241388
0.0241388
0.0241387
0.0241124
0.0241124
0.0241124
0.0241124
0.0241125
0.0241125
0.0241126
0.0241127
0.0241128
0.0241259
0.0241259
0.0241259
0.0241259
0.0241259
0.0241259
0.0241128
0.0241127
0.0241126
0.0241126
0.0241125
0.0241125
0.0241125
0.0241124
0.0241124
0.024086
0.0240861
0.0240861
0.0240861
0.0240861
0.0240862
0.0240863
0.0240864
0.0240865
0.0240996
0.0240996
0.0240995
0.0240995
0.0240996
0.0240996
0.0240997
0.0240864
0.0240863
0.0240863
0.0240862
0.0240862
0.0240861
0.0240861
0.024086
0.0240597
0.0240597
0.0240598
0.0240598
0.0240598
0.0240599
0.0240599
0.0240599
0.0240732
0.0240733
0.0240731
0.024073
0.024073
0.024073
0.0240733
0.0240733
0.0240733
0.0240601
0.02406
0.0240599
0.0240599
0.0240598
0.0240597
0.0240597
0.0240334
0.0240334
0.0240334
0.0240335
0.0240336
0.0240336
0.0240337
0.0240468
0.0240467
0.0240466
0.0240531
0.0240528
0.0240527
0.024053
0.0240468
0.024047
0.0240471
0.024034
0.0240338
0.0240337
0.0240336
0.0240335
0.0240334
0.0240334
0.0240071
0.0240071
0.0240071
0.0240072
0.0240073
0.0240074
0.0240075
0.0240206
0.0240204
0.0240203
0.0240261
0.0240288
0.0240284
0.0240259
0.0240271
0.024021
0.024021
0.0240081
0.0240077
0.0240075
0.0240074
0.0240073
0.0240072
0.0240071
0.0239808
0.0239808
0.0239809
0.0239809
0.0239811
0.0239812
0.0239815
0.0239944
0.0239943
0.0239944
0.0239996
0.0240008
0.0240018
0.024001
0.0239953
0.0239952
0.0239822
0.0239817
0.0239814
0.0239812
0.023981
0.0239809
0.0239808
0.0239545
0.0239545
0.0239546
0.0239547
0.0239549
0.0239551
0.0239555
0.0239684
0.0239685
0.0239688
0.023974
0.0239752
0.0239767
0.0239759
0.02397
0.0239696
0.0239565
0.0239557
0.0239553
0.023955
0.0239548
0.0239547
0.0239546
0.0239282
0.0239283
0.0239284
0.0239285
0.0239287
0.023929
0.0239295
0.0239425
0.0239428
0.0239435
0.0239492
0.0239513
0.0239536
0.0239516
0.023945
0.0239442
0.0239307
0.0239297
0.0239292
0.0239289
0.0239286
0.0239284
0.0239283
0.0239019
0.023902
0.0239021
0.0239023
0.0239026
0.0239029
0.0239035
0.0239166
0.0239171
0.0239182
0.0239244
0.0239274
0.0239308
0.0239275
0.02392
0.0239188
0.0239049
0.0239038
0.0239032
0.0239027
0.0239024
0.0239021
0.023902
0.0238756
0.0238757
0.0238759
0.0238761
0.0238764
0.0238768
0.0238775
0.0238907
0.0238914
0.0238927
0.0238993
0.0239028
0.0239071
0.0239029
0.0238949
0.0238933
0.0238791
0.0238779
0.0238771
0.0238765
0.0238761
0.0238759
0.0238757
0.0238494
0.0238495
0.0238496
0.0238499
0.0238502
0.0238507
0.0238515
0.0238647
0.0238656
0.0238669
0.0238737
0.0238772
0.023882
0.0238777
0.0238694
0.0238677
0.0238532
0.0238518
0.023851
0.0238503
0.0238498
0.0238496
0.0238494
0.0238231
0.0238232
0.0238234
0.0238237
0.0238241
0.0238246
0.0238254
0.0238259
0.0238394
0.0238406
0.0238471
0.0238496
0.0168579
0.023852
0.0238518
0.0238437
0.0238418
0.0238273
0.0238258
0.0238248
0.0238241
0.0238236
0.0238232
0.023823
0.0237968
0.0237969
0.0237971
0.0237975
0.0237979
0.0237984
0.0237991
0.0237994
0.0238129
0.0238141
0.0238205
0.0238196
0.0219434
0.0238255
0.0238185
0.0238175
0.023802
0.023801
0.0237994
0.0237985
0.0237979
0.0237973
0.0237969
0.0237966
0.0237705
0.0237707
0.0237709
0.0237712
0.0237716
0.0237721
0.0237727
0.0237731
0.0237866
0.0237879
0.0237878
0.0237931
0.0220647
0.0237926
0.0237923
0.0237914
0.0237759
0.0237747
0.0237731
0.0237721
0.0237714
0.0237708
0.0237705
0.0237702
0.0237442
0.0237444
0.0237446
0.0237449
0.0237454
0.0237458
0.0237464
0.0237469
0.0237477
0.0237617
0.0237616
0.0237419
0.022952
0.0237663
0.023766
0.0237651
0.0237496
0.0237484
0.0237468
0.0237457
0.023745
0.0237444
0.023744
0.0237437
0.0237179
0.0237181
0.0237183
0.0237187
0.0237191
0.0237195
0.0237201
0.0237207
0.0237216
0.0237222
0.0237354
0.023707
0.0229455
0.02374
0.0237266
0.0237248
0.0237233
0.023722
0.0237204
0.0237193
0.0237185
0.0237179
0.0237175
0.0237171
0.0236916
0.0236918
0.023692
0.0236924
0.0236928
0.0236932
0.0236939
0.0236946
0.0236954
0.023696
0.0236928
0.0227403
0.0233274
0.0237008
0.0237003
0.0236985
0.0236969
0.0236957
0.023694
0.0236929
0.0236921
0.0236914
0.023691
0.0236906
0.0236653
0.0236655
0.0236657
0.0236661
0.0236666
0.023667
0.0236678
0.0236684
0.0236693
0.0236699
0.0236636
0.0227163
0.0233026
0.0236746
0.0236741
0.0236723
0.0236706
0.0236693
0.0236676
0.0236664
0.0236656
0.0236649
0.0236645
0.0236641
0.023639
0.0236392
0.0236395
0.0236399
0.0236403
0.0236407
0.0236416
0.0236423
0.0236432
0.0236438
0.0236345
0.0226919
0.0232774
0.0236484
0.0236478
0.023646
0.0236442
0.0236429
0.0236411
0.02364
0.0236391
0.0236384
0.023638
0.0236375
0.0236127
0.0236129
0.0236132
0.0236136
0.0236141
0.0236145
0.0236154
0.0236162
0.0236171
0.0236176
0.0236055
0.0226674
0.023252
0.0236222
0.0236216
0.0236198
0.0236179
0.0236165
0.0236147
0.0236135
0.0236126
0.0236119
0.0236115
0.023611
0.0235864
0.0235866
0.0235869
0.0235873
0.0235878
0.0235883
0.0235893
0.02359
0.0235911
0.0235915
0.0235765
0.0226426
0.0232263
0.0235961
0.0235954
0.0235935
0.0235916
0.0235901
0.0235883
0.023587
0.0235861
0.0235854
0.0235849
0.0235844
0.0235601
0.0235603
0.0235606
0.0235611
0.0235616
0.0235621
0.0235631
0.0235639
0.023565
0.0235654
0.0235476
0.0226177
0.0232005
0.0235699
0.0235692
0.0235673
0.0235652
0.0235637
0.0235618
0.0235605
0.0235596
0.0235588
0.0235584
0.0235578
0.0235338
0.023534
0.0235343
0.0235348
0.0235354
0.0235359
0.023537
0.0235378
0.023539
0.0235393
0.0235188
0.0225927
0.0231746
0.0235437
0.023543
0.023541
0.0235389
0.0235373
0.0235354
0.0235341
0.0235331
0.0235323
0.0235318
0.0235313
0.0235075
0.0235077
0.0235081
0.0235086
0.0235092
0.0235097
0.0235108
0.0235117
0.0235129
0.0235132
0.0234897
0.0225678
0.0231488
0.0235176
0.0235169
0.0235148
0.0235126
0.0235109
0.0235089
0.0235076
0.0235066
0.0235058
0.0235052
0.0235047
0.0234812
0.0234815
0.0234818
0.0234823
0.0234829
0.0234836
0.0234847
0.0234856
0.0234869
0.0234871
0.0234604
0.0225432
0.023123
0.0234915
0.0234908
0.0234886
0.0234863
0.0234846
0.0234825
0.0234812
0.0234801
0.0234793
0.0234787
0.0234782
0.0234549
0.0234552
0.0234556
0.0234561
0.0234567
0.0234574
0.0234586
0.0234595
0.0234609
0.023461
0.0234312
0.0225184
0.0230973
0.0234655
0.0234647
0.0234625
0.02346
0.0234583
0.0234561
0.0234547
0.0234536
0.0234528
0.0234522
0.0234517
0.0234287
0.0234289
0.0234293
0.0234298
0.0234305
0.0234312
0.0234325
0.0234335
0.0234349
0.023435
0.0234021
0.0224936
0.0230714
0.0234394
0.0234386
0.0234363
0.0234338
0.0234319
0.0234297
0.0234283
0.0234271
0.0234263
0.0234257
0.0234251
0.0234024
0.0234027
0.0234031
0.0234036
0.0234043
0.023405
0.0234064
0.0234074
0.0234089
0.0234089
0.023373
0.0224687
0.0230455
0.0234133
0.0234125
0.0234101
0.0234075
0.0234056
0.0234033
0.0234018
0.0234006
0.0233998
0.0233992
0.0233986
0.0233761
0.0233764
0.0233768
0.0233774
0.0233781
0.0233789
0.0233803
0.0233814
0.0233829
0.0233828
0.0233439
0.0224438
0.0230196
0.0233872
0.0233864
0.023384
0.0233812
0.0233792
0.0233769
0.0233754
0.0233742
0.0233732
0.0233726
0.0233721
0.0233499
0.0233501
0.0233506
0.0233511
0.0233519
0.0233527
0.0233542
0.0233554
0.023357
0.0233567
0.0233149
0.0224188
0.0229937
0.0233612
0.0233603
0.0233578
0.023355
0.0233529
0.0233505
0.0233489
0.0233477
0.0233467
0.0233461
0.0233456
0.0233236
0.0233239
0.0233243
0.0233249
0.0233257
0.0233266
0.0233281
0.0233293
0.023331
0.0233306
0.0232858
0.0223939
0.0229677
0.0233351
0.0233342
0.0233316
0.0233287
0.0233265
0.0233241
0.0233225
0.0233212
0.0233202
0.0233196
0.023319
0.0232973
0.0232976
0.0232981
0.0232987
0.0232995
0.0233005
0.0233021
0.0233033
0.023305
0.0233045
0.0232568
0.0223689
0.0229417
0.023309
0.0233081
0.0233054
0.0233024
0.0233002
0.0232977
0.023296
0.0232947
0.0232937
0.023293
0.0232925
0.0232711
0.0232714
0.0232719
0.0232724
0.0232734
0.0232744
0.023276
0.0232773
0.0232791
0.0232784
0.0232277
0.0223439
0.0229157
0.023283
0.023282
0.0232793
0.0232761
0.0232738
0.0232712
0.0232696
0.0232682
0.0232672
0.0232665
0.0232659
0.0232448
0.0232452
0.0232456
0.0232462
0.0232472
0.0232483
0.02325
0.0232513
0.0232531
0.0232523
0.0231985
0.022319
0.0228898
0.0232569
0.0232559
0.0232531
0.0232499
0.0232475
0.0232448
0.0232431
0.0232417
0.0232406
0.0232399
0.0232394
0.0239783
0.0239793
0.0240012
0.0239542
0.0239564
0.0239764
0.0239304
0.0239338
0.0239536
0.023906
0.0239103
0.0239309
0.0238804
0.0238854
0.0239072
0.023853
0.0162997
0.0165894
0.0238591
0.0238821
0.0240042
0.0240283
0.0240045
0.0240289
0.0239804
0.0239787
0.0240014
0.0239882
0.0240003
0.0239796
0.0239817
0.0240005
0.0239553
0.0239544
0.0239756
0.0239661
0.0239568
0.0239731
0.0239389
0.0239711
0.0239564
0.0239575
0.0239756
0.0239306
0.0239305
0.0239514
0.0239424
0.02391
0.0239241
0.0236342
0.0238025
0.0239337
0.0239336
0.0239515
0.0239056
0.0239059
0.0239275
0.0239184
0.0238978
0.0239022
0.0238317
0.0237004
0.0239101
0.0239094
0.0239276
0.0238786
0.0238859
0.0238852
0.0238844
0.0239032
0.0238658
0.0238741
0.0238263
0.0180381
0.0163248
0.0204493
0.023832
0.0238556
0.0239751
0.0239871
0.0239876
0.0239866
0.0239718
0.0240004
0.0239882
0.0239726
0.0239874
0.0239883
0.0239871
0.0239751
0.0239272
0.0239535
0.0239631
0.0239313
0.0238481
0.0239684
0.0239356
0.0238143
0.0239372
0.0239649
0.0239502
0.0239126
0.0239739
0.0239515
0.0239678
0.0239028
0.0239089
0.0239394
0.0238175
0.0238418
0.0238442
0.0238167
0.0236956
0.0236256
0.0239423
0.0238891
0.0238902
0.0239114
0.0238904
0.0239452
0.0238175
0.0238391
0.0238438
0.0238135
0.023885
0.0238391
0.0239192
0.0239005
0.0239018
0.0238902
0.0238999
0.0239222
0.0238515
0.0238523
0.0238413
0.0238508
0.023875
0.0238786
0.0239009
0.023893
0.023898
0.0238464
0.0238199
0.023852
0.0238474
0.0238527
0.0238643
0.0239908
0.0239887
0.024001
0.0239911
0.023999
0.0238801
0.0238803
0.0239028
0.0238933
0.0238837
0.0238909
0.0234498
0.0232436
0.0238589
0.0238588
0.0238781
0.0239995
0.0239917
0.024001
0.0239887
0.0239915
0.0238918
0.0238971
0.0239153
0.0166731
0.0177634
0.0212805
0.0219087
0.0178223
0.0190743
0.0232036
0.0228287
0.0238949
0.0238918
0.0238821
0.0219828
0.0223581
0.0238806
0.0238696
0.0238724
0.0240151
0.0240137
0.0240023
0.0240022
0.0240138
0.0240151
0.0239901
0.0239932
0.0239907
0.0239996
0.0239917
0.0239949
0.0239516
0.0239578
0.0237366
0.0237442
0.0237875
0.0237719
0.0238775
0.0228342
0.0238893
0.0236088
0.0234731
0.0235025
0.0236261
0.0238709
0.0238845
0.0239815
0.0236804
0.0239509
0.0236205
0.0239795
0.0239591
0.0239912
0.0239933
0.0239892
0.0239129
0.0239802
0.0239811
0.0238855
0.0238803
0.023958
0.0239557
0.0238663
0.0238728
0.0239199
0.02396
0.0239643
0.0239543
0.0239585
0.023919
0.0239644
0.0239717
0.0239762
0.0239658
0.0239702
0.0239618
0.0238291
0.0238303
0.0238229
0.0238207
0.023509
0.0235265
0.0238776
0.0239377
0.0239418
0.0239323
0.0239364
0.0238768
0.0239035
0.0239487
0.0239529
0.0239432
0.0239473
0.0239023
0.0167259
0.0238284
0.0177832
0.016392
0.0193072
0.0178641
0.0238314
0.0237958
0.0164958
0.0238001
0.0238725
0.0238694
0.0238949
0.0239267
0.0239309
0.0239211
0.0239253
0.0238963
0.0203622
0.0211436
0.0238465
0.020539
0.0194065
0.0214977
0.0206641
0.0238478
0.0191981
0.0202442
0.0238773
0.0232599
0.0234786
0.0228793
0.0232159
0.0238778
0.022736
0.0223241
0.0224574
0.0173593
0.0224017
0.0222702
0.0185541
0.0236024
0.0236213
0.0239973
0.023854
0.0238532
0.023877
0.0238673
0.0238633
0.0238727
0.0200016
0.0238229
0.0238442
0.0239974
0.0238735
0.0238825
0.0238901
0.0173554
0.017558
0.0154445
0.0222803
0.0222511
0.0177644
0.0181165
0.0235333
0.023596
0.0128742
0.0240066
0.0240071
0.0240006
0.0240003
0.0240071
0.0240066
0.0239647
0.0239697
0.0239651
0.0239418
0.0239403
0.0239653
0.0239145
0.0239456
0.0239412
0.0239515
0.0239471
0.0239165
0.0236852
0.0237803
0.023813
0.0237118
0.0220569
0.0217559
0.0238697
0.0236392
0.0237267
0.023777
0.0237676
0.0178713
0.023995
0.0239926
0.0240001
0.0239758
0.0239575
0.0239447
0.0239823
0.0239839
0.0239887
0.0239777
0.0239823
0.0239806
0.0239379
0.0239575
0.023953
0.0239635
0.023959
0.0239416
0.0239112
0.0230981
0.0236056
0.0227206
0.0228112
0.023861
0.0236559
0.0237101
0.0239452
0.0238353
0.0238963
0.0239334
0.0239599
0.0239615
0.0239498
0.0239522
0.0239154
0.0239398
0.0239354
0.023906
0.0238235
0.0224602
0.0221551
0.0238336
0.0225868
0.0226945
0.0221008
0.0221691
0.023816
0.023621
0.0235668
0.0238827
0.0239361
0.023938
0.0239272
0.0239308
0.0238853
0.0239083
0.0239468
0.023949
0.0239386
0.0239405
0.0238962
0.0238807
0.0235
0.0235827
0.023394
0.023345
0.0238544
0.0239052
0.0239153
0.0239197
0.0239093
0.0239139
0.0239045
0.0238526
0.022154
0.0215919
0.0227705
0.0225996
0.0238527
0.019231
0.0194277
0.0238505
0.0229536
0.0228222
0.0189854
0.0191723
0.0224301
0.0221357
0.0239943
0.0239973
0.0239955
0.021737
0.0233737
0.021894
0.0220652
0.021999
0.0233473
0.0239962
0.0239947
0.0239982
0.0239932
0.023995
0.0168967
0.0172131
0.0174255
0.0173713
0.0215858
0.0181273
0.0179304
0.0185505
0.0181826
0.0216661
0.0181461
0.0183881
0.0230645
0.023001
0.0221697
0.019108
0.0187439
0.0181495
0.0183314
0.0239868
0.0239896
0.0239926
0.0239855
0.0239887
0.0239853
0.0239429
0.0239639
0.0236934
0.0237725
0.0238086
0.0237199
0.0229201
0.0236147
0.0235556
0.0236766
0.0236334
0.0229038
0.0234199
0.0233651
0.0235373
0.0234517
0.0235611
0.0225409
0.0227295
0.0221983
0.0224469
0.0235411
0.0215918
0.0216764
0.0238139
0.0239738
0.0239629
0.0239847
0.0239771
0.0238485
0.0239014
0.0238796
0.0239552
0.0239106
0.0239833
0.0239896
0.0239861
0.0239805
0.0239733
0.0239733
0.0239603
0.0239769
0.0239653
0.0239796
0.0239844
0.0239681
0.0239778
0.0239839
0.0239804
0.0239747
0.0229314
0.0230217
0.0239037
0.0221892
0.0218003
0.0231807
0.0222693
0.0212277
0.0208551
0.0216796
0.0213876
0.0238657
0.0228431
0.0229086
0.0236075
0.0235112
0.0238684
0.0236876
0.0233972
0.0232907
0.0234939
0.0234246
0.023948
0.0237226
0.0237571
0.0238424
0.0238925
0.0239563
0.023959
0.0239266
0.0239163
0.023953
0.0239555
0.0225408
0.0225123
0.0238252
0.0203018
0.0203036
0.0187304
0.0201126
0.0201544
0.0206322
0.0202674
0.0201634
0.0224267
0.0225508
0.0238305
0.0202457
0.0198456
0.0207653
0.0203672
0.0190759
0.0186601
0.0196889
0.0192681
0.0238172
0.0222308
0.0223773
0.0235687
0.0235519
0.0239337
0.0239355
0.0238811
0.0238816
0.0239314
0.023933
0.0239439
0.023946
0.0239072
0.0238974
0.0239412
0.0239432
0.0167807
0.0170781
0.0226119
0.0228142
0.0223396
0.0225391
0.0166595
0.0187381
0.0230724
0.0227326
0.0228683
0.0230246
0.0184332
0.021393
0.0215266
0.0209071
0.0213432
0.0168548
0.0220617
0.0222825
0.0215967
0.0219466
0.0168509
0.0234297
0.02348
0.0238791
0.0232079
0.0233134
0.0233392
0.0232025
0.0233124
0.0238579
0.0233128
0.0233858
0.0206728
0.016973
0.0170206
0.0177867
0.0170661
0.0207861
0.0174255
0.0195704
0.0170552
0.0197454
0.0230556
0.0237258
0.02369
0.0237687
0.0237378
0.0230843
0.0225882
0.0226438
0.019518
0.0197275
0.0184763
0.0189055
0.0226307
0.022498
0.0240052
0.0240069
0.0240266
0.0238691
0.0238668
0.0238563
0.0240027
0.0240031
0.023999
0.0239983
0.0240029
0.0240027
0.0240149
0.0240143
0.0240029
0.0239758
0.0239712
0.023967
0.0239399
0.0239009
0.0238952
0.0236476
0.0237949
0.023928
0.0239236
0.0239002
0.023521
0.0234924
0.0237037
0.0236008
0.0236423
0.023888
0.0239805
0.0239821
0.0239774
0.0239332
0.0239479
0.0239746
0.0239854
0.0239818
0.0239848
0.023966
0.0238639
0.0239267
0.0238213
0.0238892
0.0238816
0.0239331
0.023934
0.0239348
0.0239135
0.0239634
0.0239651
0.0239547
0.0239051
0.0239339
0.0239295
0.0226767
0.0225555
0.0238361
0.0236863
0.0235584
0.0235483
0.023617
0.0238878
0.0239213
0.0239219
0.0239104
0.0239324
0.0239332
0.0239225
0.0239231
0.023892
0.0237876
0.0228678
0.0227393
0.0238901
0.0239248
0.023926
0.0238978
0.0239031
0.0239077
0.0172887
0.0172974
0.023093
0.0229927
0.0238498
0.0172799
0.0172822
0.023734
0.0237494
0.0238598
0.023992
0.0239918
0.0166511
0.0168436
0.0169118
0.0176791
0.0178858
0.0166914
0.0167667
0.0177032
0.0175367
0.018903
0.0225342
0.0224762
0.0228866
0.019399
0.0191702
0.0222206
0.024008
0.0240074
0.0240008
0.0239884
0.0239891
0.0239901
0.0239913
0.0239819
0.0239834
0.0239936
0.0239966
0.0239949
0.0239301
0.023927
0.0239471
0.0239609
0.0239513
0.0239457
0.023716
0.0237518
0.0235828
0.0236026
0.0237975
0.0237523
0.0234961
0.0235418
0.0229889
0.0229991
0.0232285
0.0231968
0.0228345
0.0230219
0.023047
0.0238884
0.0236591
0.023705
0.0238589
0.0237455
0.0238981
0.0238796
0.0239722
0.0239645
0.023934
0.0234011
0.0233228
0.0238329
0.0236997
0.0235104
0.0239923
0.0239906
0.0239864
0.0239867
0.0239794
0.0239836
0.0239352
0.0239753
0.0239793
0.0237684
0.0238274
0.0239643
0.0232206
0.023126
0.0238597
0.0238793
0.0239702
0.0239719
0.0239688
0.0239558
0.0239667
0.0239685
0.0238346
0.0225436
0.022536
0.0235074
0.0235354
0.0239279
0.0239286
0.0239046
0.0239004
0.0239264
0.0239272
0.0167837
0.0176799
0.019705
0.019835
0.0182815
0.0183954
0.0163163
0.0229599
0.022892
0.0237917
0.0166904
0.0164953
0.0176971
0.0177088
0.0166231
0.0181431
0.0182091
0.0163758
0.0164519
0.0239225
0.0239236
0.0238906
0.0238981
0.0239201
0.0239213
0.0199848
0.0229316
0.0229935
0.0228001
0.0228659
0.0197899
0.0233607
0.0237456
0.0237769
0.0237662
0.0237565
0.0233946
0.0229523
0.0233129
0.0232696
0.022635
0.0225559
0.0227465
0.017659
0.0177782
0.0178235
0.0173024
0.0225196
0.0198702
0.0195181
0.0201798
0.0199571
0.0222122
0.0215255
0.0215606
0.0227801
0.0229398
0.0236519
0.0239966
0.0239975
0.0239955
0.0173597
0.0174136
0.0194533
0.0194077
0.0152324
0.0179646
0.0175737
0.0175828
0.0174305
0.0175131
0.0180656
0.0129909
0.0225403
0.0226219
0.0240038
0.0240033
0.0239989
0.023912
0.0239066
0.0239408
0.0239303
0.0239468
0.0239589
0.0239407
0.0239442
0.0236684
0.0237875
0.0233805
0.0234122
0.0234107
0.023378
0.023707
0.0234709
0.0234573
0.0219902
0.0215024
0.0214901
0.0215801
0.0215626
0.0219053
0.0239542
0.0239664
0.0239676
0.0239633
0.0239653
0.0239505
0.0238282
0.0239227
0.0238746
0.023858
0.0239145
0.0239357
0.0239365
0.0235575
0.0235634
0.0236659
0.023588
0.0239201
0.0239207
0.023885
0.0239309
0.0239316
0.0239093
0.0238943
0.0239238
0.0239244
0.0233976
0.0235031
0.0234592
0.0235386
0.0235255
0.0233877
0.0173128
0.0173505
0.0173032
0.0172842
0.0190514
0.0180077
0.0179525
0.0216015
0.0216017
0.0223401
0.0217407
0.0218635
0.0215206
0.0216137
0.0222355
0.0239938
0.023993
0.0239933
0.0239937
0.0239965
0.0239968
0.023998
0.0239947
0.0239955
0.0239956
0.0218564
0.0226564
0.022608
0.022793
0.0227221
0.021918
0.0221944
0.0224286
0.0223292
0.0225695
0.0225194
0.0221139
0.0239956
0.0239962
0.0239951
0.0239895
0.0239863
0.0239936
0.0239924
0.0166887
0.0175208
0.0169531
0.0169229
0.0174103
0.0173911
0.0190139
0.019121
0.0180157
0.016682
0.016639
0.0179819
0.0169562
0.01691
0.0169266
0.0186631
0.0172243
0.0168901
0.0225925
0.0226848
0.02312
0.0223535
0.0223784
0.0222859
0.0223044
0.0229394
0.0224539
0.0224951
0.0181835
0.0172519
0.0173403
0.0171877
0.0171855
0.0182367
0.0239881
0.023989
0.023988
0.0239825
0.0239845
0.023987
0.0239079
0.0239445
0.0239228
0.0239174
0.0239308
0.0239354
0.0239206
0.023926
0.0237019
0.0237597
0.0234489
0.0234604
0.0234244
0.0234372
0.0238039
0.0236128
0.0236197
0.0234544
0.0234688
0.0237335
0.0234611
0.023076
0.0230107
0.022867
0.0231704
0.0231361
0.023397
0.0230787
0.0230698
0.0231786
0.0231215
0.023381
0.0235154
0.0232302
0.0232635
0.0231062
0.0231711
0.023486
0.0230545
0.0222806
0.0229049
0.0228555
0.0215365
0.0215821
0.0237997
0.0239142
0.0239062
0.0237798
0.023878
0.0239446
0.0239266
0.0235279
0.0234613
0.0237576
0.0237725
0.0238874
0.0236664
0.0235986
0.0239581
0.0239681
0.0239837
0.0239757
0.0239447
0.0239061
0.0239432
0.0239708
0.0239752
0.0239768
0.0239693
0.0239718
0.0239624
0.0239512
0.0239621
0.023981
0.0239777
0.0239751
0.0239827
0.0239791
0.0239826
0.0239706
0.0239728
0.0239675
0.0239731
0.0220891
0.0219366
0.0229257
0.0217644
0.0219008
0.0214824
0.0223412
0.0210864
0.0209623
0.0215744
0.0214849
0.0235588
0.0231109
0.0232176
0.0228976
0.0230006
0.0235309
0.0238475
0.0236841
0.023733
0.0232799
0.0235681
0.0237975
0.0230376
0.022867
0.0233693
0.0222277
0.0223322
0.0220499
0.0221376
0.0233382
0.0234763
0.0227254
0.0228058
0.0224501
0.0225815
0.0234515
0.0238531
0.0238873
0.020357
0.0188414
0.0190587
0.0183953
0.0186084
0.0203386
0.0190983
0.0191694
0.0191614
0.0196422
0.0202235
0.0172332
0.0174393
0.0176221
0.0172607
0.0203822
0.0202319
0.0180212
0.0181999
0.0176705
0.017859
0.0201963
0.0201443
0.0200249
0.0206706
0.0205086
0.0189047
0.0187504
0.019554
0.0194402
0.0235306
0.0235433
0.0239058
0.0239293
0.0239301
0.0239251
0.0239257
0.0238987
0.0168199
0.0192327
0.0195139
0.0174815
0.0163663
0.0185984
0.0188993
0.0171053
0.016892
0.0214338
0.0190064
0.0190069
0.0211292
0.0186861
0.0181827
0.0189901
0.0189059
0.0212659
0.0175785
0.0173338
0.0178047
0.018035
0.0167547
0.0167841
0.0173152
0.0234525
0.0236623
0.023646
0.0236857
0.0236744
0.0234662
0.0232434
0.0232923
0.0232898
0.0232007
0.0231986
0.0232359
0.0233079
0.02357
0.0235514
0.023623
0.0235955
0.0233382
0.0169642
0.0179587
0.01806
0.0178083
0.0178824
0.0169869
0.0175307
0.0186579
0.0188641
0.0182123
0.0184235
0.0172741
0.0173831
0.0167226
0.0167668
0.016835
0.016769
0.0170741
0.0175559
0.0177134
0.0169631
0.0172661
0.0170337
0.0233779
0.0233501
0.0230185
0.0225795
0.0227079
0.0174475
0.0176128
0.018644
0.0175389
0.0173131
0.0178809
0.0177608
0.0187951
0.0173403
0.0173279
0.0215493
0.0215524
0.0240598
0.0240597
0.0240731
0.0240596
0.0240595
0.0240729
0.0240595
0.0240595
0.024073
0.0240597
0.0240599
0.0240732
0.0240333
0.0240331
0.0240465
0.0240328
0.0240326
0.024053
0.0240323
0.0240319
0.0240527
0.0240319
0.0240324
0.0240528
0.0240328
0.0240332
0.0240532
0.0240336
0.0240338
0.0240468
0.0240073
0.0240067
0.0240264
0.0240062
0.0240048
0.0240256
0.0240181
0.0240178
0.0240287
0.0240171
0.0240175
0.0240283
0.024019
0.0240194
0.024026
0.0240075
0.0240081
0.0240209
0.0239816
0.0239808
0.0240001
0.0239931
0.023993
0.0239995
0.0239974
0.0239971
0.0240005
0.023992
0.0239934
0.0240031
0.0239821
0.0239829
0.0239954
0.0239562
0.0239556
0.0239745
0.0239678
0.0239678
0.023974
0.0239722
0.0239722
0.0239752
0.0239679
0.0239689
0.0239779
0.0239577
0.0239581
0.0239705
0.0239309
0.0239307
0.0239494
0.023943
0.0239432
0.0239493
0.0239483
0.0239484
0.0239513
0.0239451
0.0239455
0.0239542
0.0239335
0.0239334
0.0239458
0.0239055
0.0239056
0.0239245
0.0239181
0.0239186
0.0239248
0.0239244
0.0239246
0.0239276
0.0239221
0.0239218
0.0239307
0.0239091
0.0239086
0.0239211
0.0238799
0.0238801
0.0238993
0.0238997
0.0238998
0.023903
0.0238979
0.0238971
0.0239064
0.0238841
0.0238834
0.0238961
0.0238539
0.023854
0.0238736
0.0238722
0.0238721
0.0238785
0.0238583
0.0238578
0.0238707
0.0238273
0.0238268
0.0238401
0.0238272
0.0238265
0.0238464
0.0238395
0.0238334
0.0238435
0.0176665
0.0234055
0.0234472
0.0238322
0.0238326
0.0238523
0.0238317
0.0238319
0.0238449
0.023801
0.0238006
0.0238137
0.023801
0.0238
0.0238199
0.0237997
0.0199333
0.0198863
0.0220367
0.0238053
0.0238254
0.0238055
0.0238062
0.0238257
0.0238053
0.0238056
0.0238187
0.0237747
0.0237742
0.0237874
0.0237617
0.0217748
0.0199453
0.022955
0.0237772
0.0237986
0.0237794
0.0237799
0.023793
0.0239782
0.0239813
0.0239814
0.0239823
0.0239834
0.0239786
0.024001
0.0239977
0.0239979
0.0239543
0.0239572
0.0239572
0.0239592
0.0239593
0.023955
0.023977
0.0239724
0.0239735
0.0239306
0.0239336
0.0239334
0.0239366
0.023937
0.0239328
0.0239536
0.0239495
0.0239508
0.0239061
0.0239093
0.0239091
0.0239133
0.0239141
0.0239097
0.0239314
0.0239272
0.023928
0.0238885
0.0238883
0.0238851
0.0239067
0.0239037
0.0239042
0.0238468
0.0238601
0.0238638
0.0152297
0.0189513
0.018981
0.0212734
0.021285
0.0130605
0.0238819
0.0238787
0.0238789
0.0240029
0.0240142
0.0240146
0.0239995
0.0239994
0.0239984
0.0240284
0.0240174
0.0240171
0.0239993
0.0239995
0.024008
0.0240078
0.0240043
0.0240288
0.024018
0.0240184
0.0239803
0.0239866
0.0239867
0.0239882
0.0239864
0.0239801
0.0239992
0.0239927
0.0239914
0.0239899
0.0239894
0.0239865
0.024
0.0239981
0.0239985
0.023981
0.0239903
0.0239889
0.0239879
0.0239879
0.0239818
0.0240003
0.0239941
0.0239941
0.0239555
0.0239616
0.0239616
0.0239634
0.0239617
0.0239556
0.0239739
0.0239678
0.0239664
0.0239661
0.0239691
0.0239691
0.0239596
0.0239643
0.0239624
0.0239746
0.0239729
0.0239712
0.023967
0.0239623
0.0239691
0.0239572
0.023966
0.023965
0.0239635
0.0239639
0.023958
0.0239758
0.0239698
0.0239695
0.0239309
0.0239371
0.0239368
0.0239395
0.0239374
0.0239313
0.0239495
0.0239435
0.0239425
0.0239425
0.0239454
0.0239453
0.0239113
0.0239351
0.0239337
0.0239446
0.0239428
0.0239212
0.0239337
0.0239425
0.0239422
0.0239396
0.0239403
0.0239343
0.0239521
0.0239462
0.0239456
0.0239061
0.0239123
0.0239119
0.0239153
0.0239128
0.0239065
0.0239251
0.023919
0.0239183
0.0239185
0.0239216
0.0239214
0.0238996
0.0239221
0.0239176
0.0239217
0.0239205
0.0239016
0.0238242
0.0236515
0.0236737
0.0239096
0.0239187
0.0239191
0.0239155
0.0239163
0.0239102
0.0239284
0.0239224
0.0239216
0.0238784
0.02376
0.0237846
0.0238421
0.0238461
0.0238868
0.0238848
0.0238911
0.0238947
0.0238908
0.0238915
0.0238852
0.023904
0.0238978
0.023897
0.0238671
0.0238524
0.0238521
0.0238503
0.0238512
0.0238731
0.0238226
0.02383
0.0238329
0.0179087
0.023764
0.023752
0.0222617
0.0222746
0.016437
0.0238108
0.0238199
0.0201214
0.0238387
0.0238382
0.0238296
0.0238529
0.0238416
0.0238455
0.023977
0.0239779
0.0239762
0.0239886
0.0239837
0.0239822
0.0239845
0.0239844
0.0239876
0.023985
0.0239823
0.0239866
0.0239986
0.0239983
0.0240001
0.0239877
0.0239895
0.0239899
0.0239737
0.0239707
0.0239693
0.0239872
0.0239862
0.0239865
0.0239881
0.023985
0.0239852
0.0239855
0.0239859
0.0239876
0.0239765
0.0239781
0.0239772
0.0239306
0.0239484
0.0239465
0.0239605
0.0239585
0.0239495
0.0239602
0.0239602
0.0239631
0.0239259
0.0238735
0.0238884
0.0237028
0.0237099
0.0238521
0.0238981
0.0239051
0.0239392
0.023965
0.0239607
0.0239621
0.023948
0.0239556
0.0239571
0.02397
0.0239735
0.023975
0.0239583
0.0239593
0.0239526
0.0239706
0.0239709
0.0239665
0.0239035
0.0239243
0.023923
0.0239323
0.0239309
0.0239079
0.0239364
0.0239366
0.0239395
0.0238196
0.0236472
0.0236411
0.0237086
0.0237026
0.0238397
0.0238405
0.0236894
0.023696
0.0236371
0.023635
0.0238156
0.0239425
0.0239384
0.0239395
0.0239178
0.023918
0.0238897
0.023948
0.0239481
0.0239439
0.0238214
0.0233349
0.0232556
0.0236289
0.0236141
0.0238368
0.0238457
0.0237208
0.0237149
0.0232301
0.0231409
0.0238092
0.0238837
0.023832
0.0238374
0.0236975
0.0237172
0.0238456
0.02392
0.0239156
0.0239163
0.0239016
0.0239152
0.0239165
0.0239074
0.0239087
0.0239027
0.0238901
0.0239172
0.0239175
0.0239177
0.0239189
0.0238984
0.0239251
0.0239258
0.0239215
0.023852
0.0237343
0.0237269
0.0237672
0.023763
0.0238525
0.0238432
0.0236556
0.0236425
0.0237188
0.02371
0.02385
0.0238759
0.0238474
0.023849
0.0237918
0.02381
0.0238785
0.0238999
0.0239046
0.023906
0.0238969
0.0239015
0.0238966
0.0239011
0.0239007
0.0238976
0.0238428
0.0231878
0.0231213
0.0230249
0.0231467
0.0238398
0.0238516
0.0237744
0.023771
0.0238581
0.0237506
0.0237487
0.0239907
0.0239939
0.0239941
0.0239938
0.0239952
0.0239902
0.0240002
0.0239968
0.0239956
0.0239986
0.0239974
0.0239979
0.02389
0.0238874
0.0238809
0.0239002
0.0238938
0.0238932
0.0238935
0.0238967
0.0238965
0.023887
0.0238958
0.0238926
0.023902
0.0238989
0.023888
0.0234249
0.0231412
0.0231831
0.0228635
0.0229295
0.0232827
0.0238591
0.0238656
0.0238689
0.0239984
0.023998
0.0239992
0.0239903
0.0239921
0.0239929
0.0239955
0.023997
0.0240022
0.0239903
0.0239953
0.0239937
0.0239947
0.0239945
0.0239913
0.0238943
0.0239099
0.023905
0.0239161
0.0239115
0.0238951
0.0239122
0.0239124
0.0239155
0.0213964
0.0202666
0.0201563
0.0208408
0.0207308
0.0218272
0.0231639
0.0227441
0.0227991
0.0238945
0.0238914
0.0238917
0.0238878
0.0238906
0.0238953
0.0238843
0.023889
0.0238864
0.022053
0.0210539
0.0209504
0.0214991
0.0214299
0.0223134
0.0238759
0.0238779
0.0238811
0.0238715
0.0238747
0.0238744
0.0238757
0.0238754
0.0238722
0.0240153
0.0240092
0.0240088
0.0240099
0.0240096
0.0240155
0.0240013
0.0240075
0.024008
0.0240041
0.0240039
0.0240019
0.0240155
0.0240095
0.0240099
0.0240089
0.0240092
0.0240152
0.0239934
0.0239904
0.0239915
0.0239961
0.0239976
0.0239996
0.0239923
0.0239933
0.0239927
0.0239967
0.0239963
0.0239945
0.0237165
0.0237499
0.0238781
0.0238891
0.0238619
0.0238643
0.0235949
0.0234008
0.0234235
0.0232217
0.0232552
0.023494
0.0235645
0.0237821
0.0237747
0.0237943
0.0237886
0.0235813
0.023872
0.0238519
0.0238523
0.0239742
0.0239805
0.0239833
0.0239771
0.0239532
0.0239708
0.0239661
0.0239801
0.0239765
0.0239921
0.023991
0.0239897
0.0239916
0.0239912
0.0239929
0.0239789
0.0239777
0.0239791
0.0239821
0.0239811
0.02398
0.0237685
0.0237788
0.023891
0.0238753
0.0237504
0.0237591
0.0239403
0.0239451
0.0239602
0.0239532
0.0239309
0.0239356
0.0239412
0.0239424
0.0239211
0.0239614
0.0239604
0.0239589
0.0239634
0.0239619
0.0239629
0.0239557
0.0239545
0.023953
0.0239574
0.023956
0.0239571
0.0239182
0.0239392
0.0239401
0.0239678
0.023969
0.0239662
0.0239732
0.0239726
0.0239711