/*--------------------------------*- C++ -*----------------------------------*\
| =========                 |                                                 |
| \\      /  F ield         | OpenFOAM: The Open Source CFD Toolbox           |
|  \\    /   O peration     | Version:  5.x                                   |
|   \\  /    A nd           | Web:      www.OpenFOAM.org                      |
|    \\/     M anipulation  |                                                 |
\*---------------------------------------------------------------------------*/
FoamFile
{
    version     2.0;
    format      ascii;
    class       volScalarField;
    location    "300";
    object      p;
}
// * * * * * * * * * * * * * * * * * * * * * * * * * * * * * * * * * * * * * //

dimensions      [0 2 -2 0 0 0 0];

internalField   nonuniform List<scalar> 
6584
(
20.9977
19.1733
17.3483
15.5237
13.6992
11.8748
10.0504
8.22657
6.40299
4.57939
2.75524
0.929923
-0.896947
-2.72527
-4.55447
-6.38388
-8.21301
-10.0417
-11.8701
-13.6981
-15.5259
-17.3529
-19.1791
-21.0043
20.9992
19.1776
17.3539
15.5297
13.7054
11.88
10.0533
8.2279
6.40413
4.58081
2.75694
0.93182
-0.895098
-2.72371
-4.5533
-6.38352
-8.21401
-10.0443
-11.8745
-13.7038
-15.5318
-17.359
-19.1839
-21.0055
20.9996
19.1808
17.3605
15.5378
13.7139
11.8885
10.0596
8.2308
6.40573
5.03808
3.21559
1.3916
-0.434837
-2.26388
-4.09455
-6.38718
-8.22221
-10.0545
-11.8847
-13.7133
-15.5401
-17.3653
-19.1868
-21.0066
20.9996
19.1814
17.3628
15.543
13.7206
11.8964
10.0678
8.2375
6.40977
5.04029
3.21952
1.39735
-0.428785
-2.26031
-4.09956
-5.93815
-8.23811
-10.0686
-11.8963
-13.7227
-15.5472
-17.3688
-19.1882
-21.0073
20.9992
19.1812
17.363
15.5446
13.7248
11.9023
10.0769
8.25222
6.87473
5.04495
3.225
1.40556
-0.419688
-2.26392
-4.11855
-5.9619
-7.79483
-10.0813
-11.9064
-13.7302
-15.5514
-17.3707
-19.1894
-21.0081
20.9988
19.1808
17.3627
15.5446
13.7262
11.9062
10.0852
8.71925
6.89603
5.07232
3.47006
1.64798
-0.172625
-2.04741
-4.1422
-5.9806
-7.80877
-10.092
-11.9149
-13.7353
-15.5541
-17.3724
-19.1905
-21.0088
20.9983
19.1804
17.3622
15.544
13.7257
11.9069
10.0873
8.72135
6.90223
5.08668
3.50338
1.80164
-0.0120826
-2.06933
-3.93544
-5.99977
-7.82312
-10.1016
-11.9211
-13.7388
-15.5563
-17.3739
-19.1916
-21.0094
20.9979
19.1799
17.3616
15.5433
13.7247
11.9057
10.0867
8.72148
6.89921
5.07812
3.49047
1.80602
-2.02179
-3.97203
-6.01952
-7.83599
-10.108
-11.9252
-13.7415
-15.5582
-17.3752
-19.1925
-21.0099
20.9976
19.1794
17.3611
15.5425
13.7237
11.9041
10.084
8.71872
6.8926
5.06201
3.45635
1.71643
-2.13796
-4.01196
-6.03512
-7.84307
-10.11
-11.9268
-13.7433
-15.5596
-17.3761
-19.193
-21.0101
20.9973
19.179
17.3606
15.5419
13.7228
11.903
10.0822
8.71542
6.88589
5.05059
3.43573
1.67963
-2.18924
-4.03343
-6.0417
-7.84506
-10.1081
-11.9247
-13.7425
-15.5599
-17.3764
-19.1932
-21.0101
20.9971
19.1787
17.3603
15.5415
13.7224
11.9025
10.0816
8.71386
6.88386
5.04978
3.43776
1.69546
-2.16447
-4.02367
-6.03444
-7.8393
-10.1021
-11.9189
-13.738
-15.5581
-17.3761
-19.193
-21.0098
20.9971
19.1786
17.3602
15.5414
13.7224
11.9029
10.0821
8.71418
6.88625
5.05737
3.45538
1.74035
-2.09487
-3.99027
-6.01568
-7.82644
-10.0921
-11.9103
-13.7306
-15.5528
-17.374
-19.1923
-21.0092
20.9972
19.1787
17.3603
15.5417
13.7229
11.904
10.0837
8.7162
6.89099
5.0676
3.47518
1.78112
-2.02136
-3.94852
-5.99111
-7.80897
-10.0786
-11.8991
-13.7211
-15.545
-17.3699
-19.1912
-21.0084
20.9974
19.1789
17.3606
15.5421
13.7237
11.9052
10.0853
8.2631
6.89508
5.07276
3.48048
1.77466
0.0585829
-2.06858
-3.91009
-5.96361
-7.78906
-10.0625
-11.8859
-13.7098
-15.537
-17.3642
-19.1881
-21.0073
20.9976
19.1791
17.3609
15.5425
13.7241
11.9057
10.0847
8.25867
6.89082
5.0566
3.45848
1.64585
-0.17523
-2.0341
-4.10674
-5.94063
-8.2252
-10.0513
-11.8771
-13.7018
-15.5296
-17.3566
-19.1816
-21.0046
20.9978
19.1793
17.3609
15.5425
13.7241
11.9052
10.0821
8.25052
6.87494
5.04838
3.22764
1.63423
-0.195922
-2.25959
-4.09828
-5.93243
-8.2186
-10.0456
-11.8715
-13.6994
-15.5253
-17.3511
-19.1762
-21.0018
20.9979
19.1793
17.3609
15.5423
13.7236
11.9036
10.0778
8.24538
6.41471
5.04669
3.22334
1.39816
-0.427216
-2.26123
-4.09637
-5.92764
-8.21238
-10.0391
-11.8661
-13.694
-15.5211
-17.3475
-19.1748
-21.0004
20.9979
19.1792
17.3606
15.5418
13.7226
11.9005
10.0725
8.24089
6.41313
4.58941
3.22036
1.39617
-0.435322
-2.26342
-4.55128
-6.38067
-8.20858
-10.0356
-11.8627
-13.6901
-15.5169
-17.3437
-19.171
-20.9984
20.9978
19.179
17.3602
15.5412
13.7215
11.8972
10.0672
8.23773
6.41136
4.58746
2.75894
0.93764
-0.890879
-2.72441
-4.54958
-6.37902
-8.20626
-10.0334
-11.8602
-13.6873
-15.514
-17.3411
-19.1679
-20.9964
20.9978
19.1788
17.3597
15.5404
13.7203
11.8946
10.0639
8.23611
6.41009
4.58616
2.75825
0.935045
-0.892386
-2.7233
-4.54874
-6.37784
-8.20448
-10.0316
-11.8582
-13.6851
-15.512
-17.3389
-19.1656
-20.9949
20.9977
19.1784
17.359
15.5395
13.7191
11.8927
10.0617
8.23495
6.40918
4.58503
2.75756
0.932896
-0.894054
-2.7229
-4.5484
-6.37692
-8.20317
-10.0303
-11.8566
-13.6834
-15.5103
-17.3371
-19.1636
-20.9936
20.9975
19.178
17.3584
15.5386
13.7178
11.8913
10.0603
8.23403
6.40818
4.58408
2.75688
0.931754
-0.894913
-2.72286
-4.54829
-6.37629
-8.20223
-10.0293
-11.8554
-13.682
-15.5089
-17.3356
-19.162
-20.9925
20.9973
19.1776
17.3577
15.5377
13.7166
11.8901
10.0592
8.23291
6.40732
4.58332
2.75644
0.931038
-0.895433
-2.72281
-4.54823
-6.37582
-8.20155
-10.0285
-11.8544
-13.681
-15.5077
-17.3343
-19.1606
-20.9916
20.997
19.1772
17.357
15.5367
13.7154
11.8889
10.0581
8.23186
6.40655
4.58252
2.75608
0.930537
-0.895804
-2.72278
-4.54819
-6.37543
-8.20105
-10.0278
-11.8536
-13.6802
-15.5067
-17.3332
-19.1594
-20.9908
20.9968
19.1767
17.3563
15.5358
13.7142
11.8878
10.0572
8.2309
6.40566
4.58173
2.75579
0.930163
-0.896062
-2.72275
-4.54816
-6.37514
-8.20065
-10.0273
-11.853
-13.6795
-15.5059
-17.3323
-19.1584
-20.9902
20.9965
19.1763
17.3556
15.5349
13.7131
11.8867
10.0563
8.22998
6.40476
4.58098
2.75502
0.929487
-0.896613
-2.72298
-4.54836
-6.3751
-8.20057
-10.0271
-11.8528
-13.6793
-15.5054
-17.3316
-19.1576
-20.9896
20.9963
19.1759
17.3549
15.5341
13.7121
11.8857
10.0554
8.22918
6.4039
4.57957
2.75363
0.928138
-0.897802
-2.724
-4.54938
-6.37593
-8.20136
-10.0279
-11.8535
-13.6798
-15.5057
-17.3318
-19.1576
-20.9895
20.996
19.1754
17.3543
15.5333
13.7111
11.8848
10.0547
8.22839
6.40268
4.57782
2.75196
0.926416
-0.899496
-2.72559
-4.55096
-6.37735
-8.20274
-10.0291
-11.8547
-13.6809
-15.5067
-17.3328
-19.1585
-20.9898
20.9958
19.175
17.3537
15.5325
13.7102
11.8839
10.0539
8.22722
6.40106
4.57613
2.75029
0.924738
-0.901151
-2.72717
-4.55252
-6.37878
-8.20413
-10.0304
-11.8559
-13.6821
-15.5078
-17.3338
-19.1595
-20.9901
20.9956
19.1746
17.3532
15.5318
13.7093
11.883
10.0528
8.22557
6.39946
4.57446
2.74867
0.923096
-0.902771
-2.72871
-4.55407
-6.3802
-8.20553
-10.0317
-11.8572
-13.6833
-15.5089
-17.3348
-19.1605
-20.9905
20.9954
19.1743
17.3526
15.5311
13.7084
11.8816
10.0509
8.22391
6.39786
4.5728
2.74706
0.92148
-0.904365
-2.73023
-4.55558
-6.38163
-8.20694
-10.033
-11.8585
-13.6845
-15.51
-17.3359
-19.1616
-20.9909
20.9952
19.1739
17.3521
15.5305
13.7069
11.8792
10.0489
8.22226
6.39627
4.57118
2.74546
0.919884
-0.905938
-2.73175
-4.55709
-6.38302
-8.20833
-10.0344
-11.8597
-13.6857
-15.5112
-17.3371
-19.1626
-20.9913
20.9951
19.1736
17.3517
15.5295
13.7045
11.8764
10.047
8.22061
6.3947
4.56954
2.74389
0.918308
-0.907496
-2.73325
-4.55856
-6.38445
-8.20972
-10.0357
-11.861
-13.6869
-15.5123
-17.3382
-19.1637
-20.9918
20.9949
19.1733
17.3513
15.528
13.7016
11.8736
10.045
8.21895
6.39313
4.56793
2.7423
0.916743
-0.909046
-2.73472
-4.56005
-6.38584
-8.21112
-10.037
-11.8623
-13.6881
-15.5136
-17.3393
-19.1648
-20.9921
20.9948
19.1731
17.3509
15.5265
13.6988
11.8709
10.0431
8.21729
6.39153
4.5663
2.74071
0.915196
-0.910579
-2.73617
-4.56152
-6.3872
-8.21252
-10.0383
-11.8636
-13.6894
-15.5147
-17.3404
-19.1659
-20.9925
20.9948
19.1728
17.3506
15.5255
13.697
11.8685
10.0412
8.21565
6.39001
4.56469
2.73911
0.91362
-0.912148
-2.73762
-4.56298
-6.3886
-8.21393
-10.0396
-11.8649
-13.6906
-15.516
-17.3416
-19.167
-20.993
1.72506
-1.90914
-1.78974
1.68116
-1.97537
-1.92253
1.69112
-1.9554
-1.97766
1.73456
-1.88352
-1.94807
1.77687
-1.80348
-1.87338
1.78777
0.185036
0.0643264
-1.73553
-1.7941
1.81561
0.217698
-1.77285
-1.7068
3.46451
1.95948
2.0289
-1.02874
-0.885329
-2.12614
-3.55624
-3.51726
3.43869
1.91776
1.95159
1.696
0.918627
0.945463
-1.20215
-1.15837
-2.18687
-3.59039
-3.5676
3.43529
1.92491
1.91632
1.67989
0.903906
0.901159
-1.23679
-1.24174
-2.1713
-3.58719
-3.59326
3.45028
1.963
1.92875
1.71101
0.959656
0.931353
-1.12493
-1.17951
-2.10427
-3.55271
-3.58074
-1.00127
-1.07512
-2.03012
-3.50587
-3.54141
-0.904983
-0.945632
1.64969
0.165282
0.175519
-0.0647112
-1.56655
-1.72745
0.950329
1.00054
1.75678
0.881642
0.829268
0.990116
0.891445
-1.15491
-1.06984
-1.8625
-1.15022
-1.20799
0.901827
0.915406
1.69106
0.826371
0.809645
0.824736
0.827542
-1.23742
-1.20747
-1.9605
-1.26069
-1.27979
-1.21086
-1.2569
-1.95307
0.927739
0.906586
1.68173
0.813816
0.839528
0.810047
0.811523
-1.18503
-1.23277
-1.97233
-1.27468
-1.23997
-1.28279
-1.27824
-1.9758
0.848558
0.881865
0.842085
0.843695
-1.07824
-1.12372
-1.91272
-1.17946
-1.16236
-1.23544
-1.18136
-1.92222
0.916554
0.940475
0.88588
0.912833
-0.951716
-0.995176
-1.1563
-1.11328
-1.84268
0.963253
0.937846
0.942773
0.961145
-0.851799
-0.900643
1.76894
1.01071
1.09782
-0.533035
-0.382225
3.47059
2.00158
1.96825
1.7571
1.0252
0.999093
-0.495341
-0.518974
-1.96574
-3.46155
-3.49403
0.611541
0.486598
-1.00787
-1.13592
-1.84449
0.995215
0.964233
1.71681
0.434398
0.458199
0.512688
0.525417
0.456196
0.472871
-0.522682
-0.545315
-1.83277
-1.10716
-1.06508
0.526925
0.534299
-1.05925
-1.0203
-1.7669
0.223493
0.952829
1.00261
-0.867112
-0.743041
0.0966631
-0.560595
-0.97146
-0.611746
-0.452804
-0.592907
-0.950469
-1.1801
-1.1817
-1.25031
-1.2503
-1.15389
-1.15154
-1.01925
-0.62733
-1.0505
-0.471059
-0.49292
-0.577197
-0.554415
-0.927364
0.420585
0.854421
0.458134
0.477648
0.460163
0.846881
0.480655
0.53936
0.930774
0.472189
0.419436
-1.11979
-1.11526
0.812863
0.813014
0.838685
0.837751
-1.21146
-1.20826
-1.2533
-1.60285
-1.59273
-1.61343
-1.60573
-1.25644
-1.23186
-1.56865
-1.54913
-1.5887
-1.57405
-1.2324
0.826457
0.828404
0.808157
0.808857
-1.19458
-1.19933
-1.24415
-1.60067
-1.61103
-1.58272
-1.59646
-1.23982
-1.29108
-1.61805
-1.6152
-1.61366
-1.61779
-1.29106
0.437215
0.863013
0.490004
0.461849
0.513349
0.489233
0.867824
0.824119
0.464744
0.828493
-1.10077
-1.10302
-1.20775
-1.56146
-1.5773
-1.53947
-1.55612
-1.2069
0.491709
0.50994
0.897821
0.529204
0.513311
0.547061
0.530895
0.901554
0.473692
0.489805
-0.97017
-0.60153
-0.58054
-0.62016
-0.600898
-0.976645
-0.538309
0.523455
0.53579
0.197177
0.535669
0.519284
-0.0181935
-0.417567
-0.468393
-0.0420397
3.48445
2.12839
2.0055
1.7921
1.12535
1.11153
-0.0317126
-0.741611
-0.788397
0.421854
1.05183
1.02873
1.76238
0.295477
0.288445
0.171499
0.522178
0.502251
0.296813
0.308616
-0.366611
-0.403022
0.0359757
0.310941
0.620099
0.624457
-0.360959
-0.26978
0.177808
0.92772
1.28857
1.27792
-1.18533
-1.02132
-1.16658
0.90068
1.26301
1.26449
1.26354
1.26169
0.90038
-1.24512
-1.24652
-1.13774
-1.159
-0.232108
-0.23551
-0.921478
-0.551808
-0.559613
0.879795
0.87022
0.198865
0.94567
0.551542
0.662533
-1.13783
-0.980335
-1.01421
-1.18999
-1.50581
-1.47182
-1.54159
-1.51491
-1.20069
0.904905
1.26797
1.26321
1.27629
1.26857
0.906366
0.818105
0.623889
0.650542
0.620034
0.619277
0.811382
0.653132
0.652419
0.832251
-1.22862
-1.20049
-1.25704
-1.41504
-1.38694
-1.43569
-1.42994
-1.27135
1.2668
1.27119
0.915758
0.81974
0.642553
0.619366
0.808585
0.619348
0.620256
0.614947
0.614033
0.809697
-1.18182
-1.22046
-1.26317
-1.42554
-1.43131
-1.36734
-1.40173
-1.23913
-1.28791
-1.44007
-1.436
-1.43412
-1.4376
-1.28609
-1.0873
-0.914462
-0.912606
-0.976485
-0.958549
-1.11685
-1.188
-1.51676
-1.53381
-1.49401
-1.51091
-1.18208
0.927683
0.564441
0.549105
0.608017
0.5981
0.931091
0.326111
0.329754
0.950611
0.617469
0.611004
0.32048
0.324835
-0.225365
-0.225878
-0.47871
-0.149659
-0.454923
-0.275798
-0.506795
-0.335829
-0.3125
-0.34713
-0.511308
0.550853
0.374284
0.477032
0.35165
0.531064
0.431157
0.444199
0.30265
0.298681
0.519371
0.350236
0.350253
0.350845
0.34841
0.520388
0.453605
0.458897
-0.530045
-0.530852
0.530613
0.363468
0.357272
0.305257
0.298698
-0.65639
-0.810866
-0.770812
-0.853586
-0.822621
-0.677048
-1.18046
-1.17132
-1.2473
-1.2491
-1.14359
-1.15303
-0.660272
-0.813084
-0.823006
-0.801226
-0.811629
-0.655903
-0.83221
-0.854759
-0.827729
-0.828747
-0.480262
-0.299854
-0.292744
-0.319119
-0.301128
-0.482959
-0.239579
-0.270498
0.448795
0.64577
0.636499
0.668534
0.650277
0.449512
0.614457
0.615787
0.631947
0.616001
0.506012
0.694114
0.673983
0.44718
0.442262
-0.963543
-0.973182
-1.13409
-0.920318
-0.884909
-0.863289
-0.909326
-0.891858
-1.09696
-0.942557
-0.956142
0.616452
0.61855
0.816724
0.557648
0.556504
0.595302
0.560123
0.559851
0.561199
0.557561
0.560675
0.81111
0.619359
0.617229
0.590358
0.58423
0.615701
0.598908
0.592275
0.596715
0.585762
0.590486
0.83284
0.651671
0.649794
-1.22569
-1.20052
-1.42087
-1.41521
-1.25241
-1.26828
-1.42909
-1.42194
0.64971
0.64567
0.822316
0.59104
0.591942
0.548146
0.585867
0.58439
0.595867
0.590796
0.586254
0.61756
0.619176
0.809105
0.5602
0.557865
0.561642
0.560292
0.553281
0.549797
0.557296
0.554965
0.808703
0.615105
0.616956
-1.18175
-1.21452
-1.41482
-1.4222
-1.25813
-1.23492
-1.4044
-1.41136
-1.44162
-1.4397
-1.28962
-1.28806
-1.43968
-1.44044
0.433966
0.470875
0.653166
0.662869
0.640051
0.649001
0.458116
0.504337
0.677612
0.655171
0.665363
0.674354
0.496461
0.613844
0.613279
0.604841
0.613219
0.471376
0.630056
0.63819
0.614114
0.625831
0.465863
-0.939051
-0.921036
-1.09122
-0.870344
-0.896827
-0.85857
-0.860889
-0.900622
-1.11237
-0.949145
-0.932269
0.496209
0.318141
0.327572
0.345502
0.317066
0.498895
0.301649
0.475711
0.3301
0.479237
-0.620619
-0.790709
-0.797982
-0.776514
-0.787351
-0.612771
-0.5595
-0.57013
0.332523
0.344244
0.30245
0.3185
-0.20036
-0.223398
-2.00775
-3.50466
-3.47454
-1.75868
-1.06968
-1.03732
0.361489
0.490552
0.475158
-0.0140175
0.0257817
0.294109
-1.7383
-0.997526
-0.991615
1.30532
1.2913
0.931327
-1.1963
-1.15282
-1.15952
-1.24101
-1.24341
1.28457
1.29314
0.9424
-1.13592
-1.12821
-1.17299
-0.909978
-0.893051
-1.06462
0.967914
1.32713
1.30937
0.676108
0.679232
0.834085
-0.913682
-0.936217
-1.09138
0.847448
0.661456
0.674889
-1.23405
-1.16668
-1.17272
-1.211
-1.33494
-1.33255
-1.27684
-1.38241
-1.37625
-1.24257
0.918476
1.27423
1.28103
0.656739
0.648609
0.834183
-1.18902
-1.14835
-1.14215
-1.22878
-1.27109
-1.3279
-1.33082
-1.28473
-1.33893
-1.33712
-1.33368
-1.33622
-1.28166
0.817028
0.670487
0.661646
-1.21905
-1.35754
-1.36392
-1.13764
-1.47101
-1.48824
0.216971
0.216902
0.62998
0.620101
0.952807
0.214856
0.216021
-0.553911
-0.535305
-0.884672
-0.520593
-0.470436
0.431901
0.40662
0.409766
0.458721
0.453872
0.39874
0.402839
0.41828
0.41628
0.470872
-0.498029
-0.4891
-0.541419
0.359267
0.361939
0.531234
-0.825869
-0.415065
-0.433375
-0.579734
-0.624033
-0.677237
-0.662436
-0.755435
-0.739021
-0.757927
-0.71879
-0.535356
-1.1241
-1.12611
-1.17787
-1.18029
-1.12748
-1.12968
-1.25167
-1.25044
-1.10081
-1.09877
-1.15297
-1.14877
-1.09436
-1.09412
-0.702797
-0.711763
-0.682986
-0.689621
-0.636924
-0.72143
-0.729968
-1.06126
-0.88941
-0.883732
0.42239
0.455843
0.513612
0.513902
0.541819
0.535458
0.473442
0.494952
0.498087
0.510874
0.494312
0.454718
0.693928
0.699902
0.51339
0.460323
0.394937
0.398091
0.421705
-0.784667
-0.773433
0.649414
0.655681
0.845658
0.500499
0.502865
-1.21561
-1.20519
-1.36064
-1.35484
-1.22306
-1.23826
-1.37021
-1.36525
0.832162
0.64864
0.649611
-1.18898
-1.20396
-1.34418
-1.34404
-1.291
-1.29124
-1.34387
-1.34403
0.439527
0.489551
0.544593
0.546671
0.518518
0.518006
0.458662
0.675055
0.672125
0.820211
0.496069
0.492567
0.503384
0.509801
0.46776
0.520536
0.519709
0.488852
0.4865
-1.34543
-1.35084
-1.21398
-1.19707
-1.33456
-1.34055
0.51871
0.666494
0.671114
0.657992
0.661591
0.515002
-0.590865
-0.737061
-0.773623
-0.72505
-0.731122
-0.588579
-0.61848
-0.679669
-0.679497
-0.541135
-0.502651
-0.58408
0.190225
0.225358
0.237164
0.210941
0.543274
0.372645
0.361797
0.380791
0.37499
0.515714
-0.0643612
-0.0910241
-0.288092
-0.283748
-0.456997
0.392152
0.421126
0.35799
0.291738
0.28874
0.328042
0.323193
0.165278
0.309287
0.265196
0.262116
0.257672
0.262374
0.31067
0.101093
-0.155439
-0.189012
-0.324854
-0.0652653
-0.105051
-1.1411
-1.14667
-1.19067
-1.02473
-1.05416
-1.05788
-1.06435
-1.05763
-1.24386
-1.24468
-1.02226
-1.02994
-1.00843
-1.01429
-1.16587
-1.11979
-1.11164
-0.239436
-0.185588
-0.175141
-0.197366
-0.193955
-0.243264
-0.990612
-1.03629
-1.02893
-1.05387
-1.04549
-1.00259
-1.23096
-1.20974
-1.17464
-1.1736
-1.27399
-1.33022
-1.32775
-1.15732
-1.15356
-1.18893
-1.2259
-1.32124
-1.32476
-1.26767
-1.34166
-1.34029
-1.28625
-1.28427
-1.3384
-1.34004
-0.973196
-1.01459
-1.00736
-1.00615
-1.01211
-0.966108
0.21571
0.214077
0.213797
0.212982
0.321894
0.265286
0.265013
-0.122139
-0.124197
-0.223993
-0.161166
-0.169481
-0.166428
-0.160603
-0.223107
-0.425712
-0.442764
-0.501251
-0.368421
-0.186503
-0.266291
-0.226725
-0.331746
-0.307474
-0.238087
-0.324953
-0.381971
-0.390072
-0.375729
-0.376971
-0.316382
-0.36096
-0.396896
-0.399774
-0.398655
-0.403724
-0.356905
0.388135
0.456261
0.42611
0.372065
0.366821
0.388835
0.381438
0.429715
0.456399
0.411068
0.405561
0.302212
0.30093
0.403327
0.405731
0.351697
0.391554
0.394526
0.452358
0.371185
0.369144
0.366615
0.4663
0.403276
0.391913
-0.467771
-0.474541
-0.530123
-0.427211
-0.43212
-0.407706
-0.417695
-0.535127
-0.479226
-0.471017
0.301697
0.247034
0.252422
0.237923
0.241901
0.298975
-0.707105
-0.691387
-0.634942
-0.694645
-0.730339
-0.721892
-1.09643
-1.17716
-1.12905
-1.13511
-1.07938
-1.07211
-1.0927
-1.08676
-1.24984
-1.25071
-1.05453
-1.06119
-1.03836
-1.04678
-1.14895
-1.09295
-1.08583
-1.10417
-1.09775
-1.14915
-1.06511
-0.694108
-0.69619
-0.647036
-0.696884
-0.700918
-0.839136
-0.787234
-0.777392
-0.807003
-0.797814
-0.847444
-0.8301
-0.77476
-0.771076
-0.770122
-0.767834
-0.82913
-0.734354
-0.313987
-0.372286
-0.375656
-0.2486
-0.25996
0.416863
0.512492
0.512099
0.451647
0.457375
0.525973
0.517291
0.487338
0.49103
0.554581
0.552313
0.61521
0.487296
0.485304
0.391669
0.39065
0.451312
0.358683
0.426557
0.386305
0.392265
-0.969657
-1.02156
-1.01652
-1.02566
-1.02426
-0.968724
-0.93974
-0.930873
-0.877231
-0.825614
-0.839906
-0.814218
-0.81827
-0.871016
-0.899271
-0.851756
-0.859111
-0.892567
0.55655
0.555695
0.589955
0.539793
0.541283
0.528993
0.565811
0.560267
0.560792
0.55857
0.559659
0.584886
0.522616
0.525627
0.524973
0.522915
0.583436
0.613818
0.556396
0.556233
0.533049
0.552394
0.608715
0.503244
0.495301
0.594009
0.538077
0.535816
0.542251
0.54018
0.595575
0.587641
0.530315
0.527292
0.533363
0.531172
0.588896
-1.22006
-1.20136
0.592838
0.541235
0.543237
0.537052
0.538836
0.592826
0.551425
0.542086
0.534263
0.56809
0.584295
0.522241
0.525817
0.522059
0.519944
0.588005
0.589504
0.533364
0.535259
0.529179
0.531653
0.588082
0.560186
0.559809
0.562084
0.560515
0.552371
0.55109
0.556775
0.556741
-1.18401
-1.20911
-1.2908
-1.34375
-1.34282
-1.34165
-1.34295
-1.28999
0.440121
0.535062
0.541148
0.485955
0.456369
0.520092
0.526471
0.502472
0.499303
0.613674
0.554504
0.556444
0.609638
0.553593
0.536726
0.557477
0.557182
0.611705
0.50933
0.505687
0.516324
0.519986
0.470373
0.486739
0.49953
-0.935815
-0.990298
-0.992465
-0.979489
-0.985364
-0.928952
-0.880505
-0.889225
-0.851913
-0.819517
-0.815374
-0.853969
-0.940232
-0.992924
-0.998925
-0.991259
-0.99025
-0.933849
0.320496
0.375538
0.375008
0.37904
0.377212
0.323727
0.329441
0.391498
0.398945
0.377006
0.382865
0.318891
0.293606
0.35653
0.35331
0.365199
0.360971
0.331914
0.377191
0.379616
0.35335
0.363069
0.327433
-0.677074
-0.68012
-0.625171
-0.549189
-0.579508
0.21375
0.216108
0.309194
0.246399
0.237253
0.264313
0.260772
0.315063
0.216071
0.215691
-0.103758
-0.11489
3.2311
2.0957
2.31512
1.64284
0.279033
0.494257
-0.178138
-1.56983
-1.33751
-2.04105
-3.2038
-3.19287
5.08478
3.95328
4.16161
3.49924
2.13479
2.10131
1.6803
0.208329
0.28486
-0.0206118
-1.58475
-1.57718
-2.0587
-3.46777
-3.44425
-3.92909
-5.0744
-5.06311
5.08371
3.94874
3.9552
3.49683
2.03705
2.14606
1.82641
1.16207
1.12793
0.0182175
-0.741422
-0.748699
-1.96943
-2.55492
-2.54217
-3.96238
-5.09862
-5.08548
5.07049
3.92306
3.94376
3.48249
3.02703
3.03756
1.79473
1.57048
1.5843
-2.0681
-2.74399
-2.71582
-4.00289
-5.12309
-5.11082
5.05511
3.9012
3.91639
3.44913
2.98557
2.99417
1.70866
1.47229
1.48064
-2.1658
-2.81221
-2.78976
-4.03107
-5.14131
-5.13369
5.04881
3.89718
3.89857
3.43415
2.96918
2.97049
1.67882
1.44111
1.44178
-2.18891
-2.83134
-2.82946
-4.02904
-5.14259
-5.14448
5.0529
3.90854
3.89898
3.44122
2.98015
2.97541
1.7002
1.46698
1.46146
-2.14059
-2.798
-2.81379
-4.00008
-5.12542
-5.13599
5.06248
3.92516
3.91266
1.74607
1.51879
1.51235
-2.06645
-2.7395
-2.76237
-3.95905
-5.09736
-5.11212
5.07189
3.93772
3.92905
-1.99578
-2.57078
-2.58534
-3.91917
-5.06647
-5.08193
5.06694
4.15011
4.16026
3.4597
2.10101
2.11583
1.7668
1.09413
1.10113
0.0303237
-0.309527
-0.353408
-2.03467
-3.42411
-3.45162
-4.11783
-5.03419
-5.05092
5.05035
4.13955
4.14251
3.22932
2.09184
2.09857
1.63668
0.266823
0.28512
-0.191759
-1.56979
-1.56798
-2.03008
-3.18045
-3.41864
-4.10063
-5.02023
-5.02446
3.22532
2.31493
2.31706
1.39902
0.491196
0.262438
-0.424616
-1.34553
-1.57043
-2.25982
-3.17925
-3.17809
1.49013
1.5009
1.73477
-1.89391
-1.62348
-1.64754
-1.55459
-1.57507
-1.80757
1.44334
1.44584
1.68365
-1.97169
-1.70921
-1.71569
-1.65451
-1.67348
-1.93417
1.4564
1.45191
1.68739
-1.96195
-1.69922
-1.68798
-1.71677
-1.71852
-1.97852
1.50596
1.49964
1.72867
-1.89299
-1.62057
-1.66125
-1.68344
-1.66903
-1.94005
-1.81309
-1.58718
-1.57712
-1.65148
-1.64031
-1.86301
1.10546
1.12986
1.79458
0.159497
0.292471
0.285858
-0.0676759
-0.0951554
0.0994487
-1.56714
-1.55694
-1.7847
1.10858
1.17159
1.82699
0.420667
0.44975
0.473709
0.899934
0.93973
0.264319
0.262762
0.3549
-1.75903
-1.51922
-1.53479
-0.99137
-0.990663
-1.72998
3.00427
3.01548
3.47346
1.98812
2.5584
2.54426
2.58671
2.57312
1.99851
-1.01158
-0.874905
-0.904673
-0.759688
-0.78405
-0.905792
-2.78237
-2.75342
-2.08365
-3.54366
-3.09337
-3.10944
-3.06036
-3.07652
-3.53046
2.97365
2.9787
3.44324
1.92762
2.51302
2.50723
2.53167
2.52118
1.9322
1.4588
1.46504
1.70194
0.921566
1.04171
1.03866
1.06571
1.06081
0.941077
-1.10929
-1.10963
-1.16077
-2.82909
-2.81619
-2.17272
-3.58492
-3.14573
-3.15248
-3.12394
-3.13621
-3.57737
2.97184
2.96967
3.43407
1.91727
2.50379
2.50694
2.50381
2.5027
1.91574
1.44269
1.44142
1.67899
0.90227
1.02404
1.02542
1.02274
1.02219
0.900669
-2.81961
-2.82816
-2.18617
-3.59157
-3.15419
-3.14886
-3.15614
-3.15671
-3.59373
2.99189
2.98577
3.44552
1.94733
2.52545
2.53327
2.51182
2.51813
1.94217
1.47948
1.47306
1.70548
0.946512
1.29705
1.30723
1.04926
1.05251
0.934553
-1.1277
-1.0667
-1.06472
-2.77024
-2.79072
-2.13183
-3.56325
-3.11995
-3.1074
-3.14108
-3.13136
-3.57274
-1.0073
-0.868361
-0.859137
-1.01979
-1.01629
-1.07179
-2.60094
-2.61538
-2.05734
-3.51776
-3.06688
-3.05328
-3.09409
-3.08043
-3.52971
-0.910293
-0.795337
-0.789893
-0.832354
-0.826032
-0.939497
1.19702
1.09124
1.65211
0.189541
0.866401
0.859721
0.49898
0.49267
0.14619
-0.745498
-0.740472
-0.0405381
-1.57152
-0.978054
-1.09934
-1.02516
-0.986025
-1.70162
0.955549
1.07623
1.07074
1.35472
1.33279
0.975033
1.74525
1.51288
1.52628
0.871262
0.713972
0.729657
0.975995
0.866226
0.883863
0.770857
0.78333
0.902994
-1.1498
-1.09943
-1.10591
-1.01772
-1.02636
-1.07852
-1.64136
-1.66058
-1.87924
-1.16506
-1.27107
-1.25732
-1.33218
-1.32418
-1.21968
0.902681
1.02439
1.0234
1.03581
1.03291
0.911689
1.68686
1.44921
1.45355
0.823385
0.763047
0.766415
0.74699
0.747261
0.810633
0.768542
0.770072
0.829698
-1.69653
-1.70672
-1.96672
-1.26305
-1.31068
-1.30763
-1.21956
-1.34808
-1.3408
-1.30548
-1.30112
-1.25211
-1.94432
-1.67864
-1.69283
0.924328
1.04275
1.0459
1.02737
1.02954
0.909989
1.68418
1.44805
1.44497
0.81528
0.753614
0.750309
0.779726
0.777334
0.837831
0.809089
0.746625
0.746925
0.747779
0.74641
0.81098
-1.71156
-1.70294
-1.96766
-1.29041
-1.29317
-1.24299
-1.97788
-1.71785
-1.71404
0.853589
0.708639
0.700353
0.767579
0.763716
0.877679
0.843829
0.784482
0.782332
0.698061
0.690293
0.838823
-1.08099
-1.02476
-1.02255
-1.06655
-1.06864
-1.12279
-1.6428
-1.62635
-1.90297
-1.1732
-1.31022
-1.31578
-1.27318
-1.27927
-1.16859
-1.23028
-1.28199
-1.28608
-1.32138
-1.32777
-1.19226
-1.93139
-1.66384
-1.64828
0.920322
0.808248
0.804219
0.829727
0.826733
0.937498
0.889936
0.775918
0.771618
0.800312
0.796375
0.909079
-0.957864
-0.84507
-0.838693
-0.856033
-0.848873
-0.989153
-1.14991
-1.26092
-1.26711
-1.44838
-1.46523
-1.13182
-1.85277
-1.62934
-1.61865
0.970334
0.644571
0.633953
0.609929
0.640077
0.967045
0.945654
0.834874
0.832342
-0.879825
-0.525404
-0.496977
1.54075
1.55575
1.7818
1.04652
1.38647
1.36214
1.36504
1.34812
1.05972
-0.305753
-0.336128
-0.406108
1.98825
2.55674
2.56381
2.54127
2.54914
1.98346
1.53091
1.52496
1.75166
1.01432
1.29879
1.30529
1.28482
1.292
1.01065
-0.498281
-0.438449
-0.435886
-0.459552
-0.458647
-0.516547
-2.54399
-2.55719
-1.98797
0.591534
0.540853
0.564868
0.41653
0.428021
0.499527
-1.06441
-1.40931
-1.3749
-1.4602
-1.42225
-1.08398
-1.82598
-1.5973
-1.61967
0.982612
1.3262
1.27849
1.31131
1.32225
0.978158
1.72269
1.49287
1.48614
0.515719
0.460116
0.45728
0.4683
0.46601
0.52334
-0.527207
-0.470217
-0.46374
-1.60805
-1.59756
-1.82288
-1.08887
-1.42599
-1.44285
-1.35009
-1.42064
-1.08288
0.528615
0.472727
0.470688
0.477218
0.476147
0.532949
-1.04147
-1.32908
-1.34011
-1.30886
-1.31861
-1.03588
-1.77562
-1.54716
-1.53789
0.570785
0.607585
0.285553
1.02115
0.709638
0.676065
0.702333
0.717766
1.0209
-0.851577
-0.719301
-0.737926
-0.42379
-0.410884
-0.816655
0.154838
-0.270794
-0.295609
-0.827461
-0.864056
-0.992033
-0.514646
-0.657707
-0.6296
-0.646275
-0.629698
-0.57482
-0.928522
-0.810143
-0.833898
-0.880017
-0.870476
-1.01331
-1.05492
-0.999954
-0.997955
-0.474607
-0.415949
-0.412679
-0.434094
-0.431266
-0.49017
-0.568615
-0.712335
-0.718625
-0.699369
-0.705868
-0.564917
-0.93341
-0.819681
-0.813328
0.698838
0.709733
0.8623
0.839823
0.681464
0.694681
0.486939
0.553174
0.54695
0.605351
0.594502
0.528756
0.916301
0.798236
0.812808
-1.06805
-1.07291
-1.12558
-1.10874
-1.05689
-1.06267
0.748571
0.749211
0.814234
0.811907
0.748144
0.748396
0.776917
0.778581
0.841206
0.835567
0.774639
0.775796
-1.31232
-1.30964
-1.25072
-1.59966
-1.495
-1.49812
-1.48858
-1.4912
-1.59629
-1.61113
-1.50634
-1.50845
-1.50103
-1.50383
-1.60864
-1.2602
-1.31854
-1.31527
-1.28477
-1.28165
-1.22988
-1.56263
-1.45894
-1.46483
-1.44537
-1.45246
-1.55622
-1.58408
-1.47999
-1.4846
-1.47009
-1.47511
-1.57927
-1.23315
-1.28752
-1.28524
0.767717
0.766586
0.825555
0.829285
0.769906
0.768928
0.745361
0.745684
0.808897
0.808286
0.74516
0.745318
-1.30555
-1.30945
-1.2486
-1.60447
-1.49584
-1.49157
-1.50339
-1.49984
-1.60804
-1.58749
-1.48031
-1.47822
-1.48733
-1.48365
-1.59217
-1.23581
-1.29798
-1.30163
-1.61756
-1.51213
-1.51231
-1.51016
-1.51144
-1.6167
-1.61559
-1.50887
-1.50647
-1.51179
-1.5107
-1.61708
0.74863
0.711812
0.858642
0.512049
0.567754
0.569835
0.547876
0.549243
0.488838
0.872827
0.758516
0.753183
0.833606
0.686772
0.676811
-1.04632
-1.04371
-1.09841
-1.10518
-1.04945
-1.04781
-1.26202
-1.26292
-1.2083
-1.56669
-1.45933
-1.4537
-1.47219
-1.46556
-1.57201
-1.54509
-1.43698
-1.43112
-1.44833
-1.4428
-1.55071
-1.20501
-1.25888
-1.2603
0.493101
0.435413
0.435203
0.453599
0.448773
0.506446
0.784502
0.780342
0.89396
0.526813
0.584796
0.587056
0.57077
0.571861
0.51298
0.538589
0.68331
0.687703
0.674901
0.678827
0.535654
0.9053
0.79235
0.78842
0.473791
0.415223
0.417296
0.434066
0.431641
0.487233
-0.857622
-0.851648
-0.963988
-0.599082
-0.656598
-0.658915
-0.638047
-0.64154
-0.584168
-0.660321
-0.662422
-0.601256
-0.983158
-0.869836
-0.863687
0.527786
0.388315
0.38252
0.399769
0.391079
0.53219
0.537685
0.480484
0.478715
-0.426024
-0.281757
-0.265323
-0.409605
-0.406735
-0.464696
2.13164
2.58033
2.58082
2.57021
2.57585
2.01573
1.12063
1.34271
1.34687
1.33387
1.33833
1.11577
-0.265854
-0.26145
-0.0251384
-0.752504
-0.501673
-0.50117
-0.489439
-0.517469
-0.772048
1.04256
1.3236
1.32901
1.31163
1.31777
1.03929
1.76749
1.5423
1.5367
0.220851
0.228134
0.195418
0.513202
0.401301
0.383692
0.394644
0.398133
0.506496
-0.377194
-0.245317
-0.22505
-0.254951
-0.259337
-0.386985
0.11006
-0.020768
-0.0488224
0.422179
0.483607
0.334393
0.629099
0.535769
0.521248
0.505757
0.529984
0.627655
-0.342821
-0.261082
-0.280639
-0.121868
-0.0659311
-0.274735
0.2677
0.01974
0.0300883
1.04828
1.04481
0.924503
1.28408
1.16483
1.16848
1.15863
1.16179
1.28193
-1.16305
-1.10942
-1.11125
1.02238
1.02298
0.901253
1.26255
1.1431
1.14263
1.14532
1.1442
1.26437
1.26195
1.14236
1.14304
1.14214
1.14228
1.26275
0.900423
1.02201
1.02199
-1.07852
-1.07193
-1.13227
-0.806993
-0.801006
-0.915738
-0.571338
-0.686985
-0.693123
-0.674896
-0.680764
-0.56542
0.877667
0.657016
0.6071
0.647564
0.652287
0.874084
0.207469
0.426396
0.42143
0.829477
0.847679
0.960973
0.594169
0.735871
0.713279
0.779717
0.758987
0.611099
-1.08512
-1.09198
-1.14437
-1.29485
-1.28342
-1.17818
-1.49428
-1.3885
-1.39975
-1.36419
-1.37687
-1.48409
-1.53351
-1.42904
-1.43745
-1.41011
-1.42002
-1.52488
-1.21035
-1.31501
-1.3053
1.02687
1.02546
0.903685
1.26542
1.14583
1.14746
1.14361
1.14479
1.26528
1.27274
1.15328
1.15604
1.14898
1.15116
1.27161
0.908504
1.03048
1.02842
0.754883
0.758872
0.821336
0.632799
0.69586
0.689953
0.707475
0.702872
0.644535
0.619775
0.683784
0.683757
0.683863
0.683757
0.619464
0.810312
0.747355
0.747699
0.653492
0.711105
0.709999
0.711786
0.711523
0.653091
0.830318
0.77099
0.771991
-1.30929
-1.31094
-1.26178
-1.41299
-1.3644
-1.36389
-1.43319
-1.37987
-1.38175
-1.37628
-1.37828
-1.43263
1.26743
1.14879
1.14709
1.15307
1.151
1.27011
0.913059
1.03189
1.03427