/*--------------------------------*- C++ -*----------------------------------*\
| =========                 |                                                 |
| \\      /  F ield         | OpenFOAM: The Open Source CFD Toolbox           |
|  \\    /   O peration     | Version:  5.x                                   |
|   \\  /    A nd           | Web:      www.OpenFOAM.org                      |
|    \\/     M anipulation  |                                                 |
\*---------------------------------------------------------------------------*/
FoamFile
{
    version     2.0;
    format      ascii;
    class       volScalarField;
    location    "300";
    object      p_rgh;
}
// * * * * * * * * * * * * * * * * * * * * * * * * * * * * * * * * * * * * * //

dimensions      [0 2 -2 0 0 0 0];

internalField   nonuniform List<scalar> 
6584
(
0.00407168
0.00449991
0.00501333
0.00578011
0.00675922
0.00801821
0.00954114
0.0113424
0.0132362
0.0150976
0.0163985
0.016574
0.0152159
0.0124136
0.00873233
0.00485902
0.00133299
-0.00168603
-0.00410884
-0.00599804
-0.00741412
-0.00847512
-0.00916882
-0.00972605
0.00392103
0.00438956
0.00487238
0.005632
0.00658843
0.00784704
0.00938829
0.0112789
0.0133117
0.0154098
0.016953
0.017297
0.0158963
0.0128473
0.00887522
0.00469932
0.00103011
-0.00204282
-0.0044467
-0.00629466
-0.00765609
-0.00868616
-0.00932783
-0.00992596
0.00359754
0.00407417
0.00449885
0.00521717
0.00611484
0.00735603
0.00894202
0.0110804
0.0134227
0.0156173
0.0184472
0.0198463
0.0188778
0.015391
0.0104933
0.00411478
0.000103742
-0.00307794
-0.00540888
-0.00711749
-0.00832751
-0.00924484
-0.00977664
-0.0103543
0.00317318
0.00361489
0.00395427
0.00458401
0.00536996
0.00652605
0.00812952
0.0105182
0.0137184
0.0168222
0.0213
0.0244392
0.0237623
0.0185492
0.0114643
0.00499659
-0.00150861
-0.00479644
-0.0069329
-0.00836894
-0.00932769
-0.0100458
-0.010418
-0.0109033
0.00268139
0.0030457
0.00326839
0.00374407
0.00433683
0.00526654
0.00671898
0.00913746
0.0121168
0.0176545
0.0246959
0.0315026
0.0317193
0.0227187
0.0113987
0.00279353
-0.00269547
-0.00748292
-0.00914665
-0.0100393
-0.0106132
-0.0110271
-0.0111903
-0.011516
0.00215145
0.00239639
0.00246934
0.00271217
0.00300121
0.00343759
0.00443575
0.00595913
0.00985601
0.0159463
0.026071
0.0431198
0.0498653
0.0315292
0.00869146
-0.00235177
-0.00752407
-0.0110442
-0.0119326
-0.0120529
-0.0121129
-0.0121226
-0.0120336
-0.0121383
0.00162572
0.00171724
0.00161895
0.00156573
0.00146845
0.00123554
0.00147575
0.00232741
0.00413376
0.0088961
0.0219705
0.053542
0.0961517
0.033851
0.00106584
-0.0124778
-0.0146169
-0.0156452
-0.0151776
-0.0142784
-0.0137024
-0.0132295
-0.0128629
-0.0127002
0.00115203
0.00107341
0.000805006
0.000431617
-9.60677e-05
-0.00109038
-0.00198844
-0.0023126
-0.00402324
-0.00524873
-0.00133575
0.0187734
-0.00844459
-0.0274444
-0.0283335
-0.0239457
-0.0207336
-0.0185057
-0.0164582
-0.0151913
-0.0142126
-0.0135756
-0.0131264
0.000774768
0.000533898
0.00012637
-0.000530073
-0.00144483
-0.00311024
-0.00516435
-0.00704359
-0.0126548
-0.0223085
-0.036564
-0.0741175
-0.120705
-0.0671038
-0.0454808
-0.0331834
-0.0251993
-0.0212484
-0.0182073
-0.0163359
-0.01492
-0.0140652
-0.0133489
0.00052667
0.00015822
-0.000327057
-0.00116116
-0.00230496
-0.00431521
-0.00707609
-0.0101171
-0.0178807
-0.0320923
-0.0558782
-0.110658
-0.171879
-0.0908276
-0.0553533
-0.0387772
-0.0277111
-0.0226897
-0.0191312
-0.0169044
-0.015217
-0.014242
-0.0133185
0.000420929
-2.03628e-05
-0.000505516
-0.00137208
-0.00252144
-0.00443763
-0.00718638
-0.0104921
-0.0176207
-0.0300797
-0.0506825
-0.0921055
-0.150667
-0.086503
-0.0536156
-0.0386062
-0.0274798
-0.0224433
-0.0190125
-0.0167674
-0.0150304
-0.0140571
-0.0130161
0.000447615
-5.34334e-06
-0.000418477
-0.00117983
-0.00213056
-0.00358859
-0.00569119
-0.0083718
-0.0127856
-0.019344
-0.0291485
-0.0427964
-0.0883365
-0.0617491
-0.0426014
-0.0332791
-0.0247238
-0.020644
-0.0178961
-0.0159511
-0.0143741
-0.0135179
-0.0124585
0.000577159
0.000165668
-0.000128351
-0.0006942
-0.00132594
-0.00216043
-0.00331564
-0.00488959
-0.00615682
-0.00651022
-0.00562149
0.00301083
-0.0266638
-0.0321379
-0.0282406
-0.0253211
-0.0204526
-0.0178493
-0.0160515
-0.0146151
-0.0133486
-0.0126841
-0.0116942
0.000769573
0.000435311
0.000275404
-6.59975e-05
-0.000362302
-0.000603182
-0.000909835
-0.000262624
-0.000471373
0.00335257
0.00943376
0.0292178
0.0854935
0.0118891
-0.00977717
-0.0157704
-0.0173984
-0.0158463
-0.0147235
-0.0138514
-0.0129864
-0.012086
-0.0116481
-0.0107888
0.000984647
0.000743758
0.000705803
0.000568305
0.0005507
0.000738142
0.00106227
0.00215443
0.00324287
0.00777596
0.0144308
0.0275403
0.0361919
0.0167876
-0.00013496
-0.00762037
-0.0106166
-0.0116876
-0.011768
-0.0116254
-0.0112771
-0.0107233
-0.0105077
-0.00980985
0.00118905
0.00104166
0.00109812
0.00111902
0.00129431
0.00173614
0.00238517
0.00382541
0.00512199
0.00873949
0.0140484
0.0188734
0.0175807
0.0112946
0.00321903
-0.00320468
-0.00714601
-0.00856575
-0.00928814
-0.00959865
-0.00964372
-0.00938099
-0.00935097
-0.00882372
0.00135973
0.00129593
0.00141453
0.00154428
0.0018252
0.002392
0.00310874
0.0046327
0.00628344
0.00804638
0.0107836
0.0122883
0.0144295
0.00939423
0.00357683
-0.00102926
-0.00447819
-0.00624872
-0.00727939
-0.00786224
-0.00817055
-0.00812315
-0.00823473
-0.00786764
0.00148367
0.00148897
0.00163959
0.00183541
0.00214841
0.00274375
0.00337163
0.00467473
0.00589253
0.00806356
0.00831036
0.0108249
0.00689406
0.00652432
0.00242935
-0.000571682
-0.002682
-0.0046171
-0.00570084
-0.00643338
-0.00689152
-0.00699512
-0.00720082
-0.00697278
0.00155616
0.00161565
0.00177425
0.00200541
0.00230045
0.00287469
0.00334575
0.0044604
0.00494346
0.00704065
0.00467048
0.00971291
0.00828307
0.00141142
0.00271411
-0.000506635
-0.00186266
-0.00357769
-0.00452367
-0.00530039
-0.00581313
-0.0060145
-0.00627191
-0.00615923
0.00157845
0.00167922
0.00182917
0.00207782
0.00232736
0.00287121
0.00316892
0.00420237
0.00418104
0.00628599
0.00453186
0.00740532
0.00664028
0.00192175
0.00260195
-0.000494555
-0.00127343
-0.00286025
-0.00363417
-0.00440904
-0.00491547
-0.00517743
-0.00545425
-0.00543417
0.00155528
0.0016873
0.00181815
0.00207529
0.00226511
0.00278222
0.00291487
0.00389063
0.00357165
0.00537756
0.00393368
0.00514443
0.00463323
0.0017256
0.00217098
-0.000465562
-0.000860192
-0.00234841
-0.00294817
-0.00370553
-0.00417088
-0.00447044
-0.00474389
-0.00479683
0.00149317
0.00164911
0.00175488
0.00201656
0.00214121
0.00263515
0.00262444
0.00352886
0.00303388
0.00450393
0.00325167
0.003842
0.00344012
0.00129953
0.00170514
-0.000473778
-0.000618215
-0.00198705
-0.00242064
-0.00315057
-0.00355467
-0.00387719
-0.00413202
-0.00424196
0.00139946
0.00157423
0.00165241
0.00191749
0.00197848
0.0024526
0.00232884
0.00316045
0.00257998
0.00379088
0.00272645
0.00297306
0.00265844
0.000984109
0.00133044
-0.000491259
-0.000479073
-0.00172389
-0.00201362
-0.00271072
-0.00304449
-0.00338056
-0.00360739
-0.00376155
0.0012816
0.00147183
0.00152239
0.00179108
0.00179441
0.0022518
0.00204495
0.00280779
0.00219824
0.00320309
0.00229478
0.00230876
0.00206033
0.00072592
0.00102338
-0.000507335
-0.000396962
-0.00152338
-0.00169545
-0.0023577
-0.00262028
-0.00296398
-0.00315786
-0.00334624
0.00114665
0.0013501
0.00137462
0.00164743
0.00160123
0.00204395
0.00177948
0.00247815
0.00187208
0.00271031
0.00193449
0.00180138
0.0015977
0.000506673
0.00076833
-0.00052105
-0.000349228
-0.00136484
-0.00144273
-0.00206967
-0.00226476
-0.00261204
-0.00277123
-0.00298598
0.00100114
0.00121613
0.0012171
0.00149433
0.0014073
0.00183679
0.00153519
0.00217524
0.00159228
0.00229656
0.00162851
0.00140637
0.00123967
0.000331383
0.000561694
-0.000529908
-0.000321129
-0.0012348
-0.00123844
-0.00182992
-0.00196344
-0.00231129
-0.00243622
-0.00267105
0.000850888
0.00107595
0.00105622
0.00133773
0.00121828
0.00163529
0.0013126
0.00189996
0.00135162
0.00195251
0.00137108
0.00109972
0.000971717
0.000193228
0.000396754
-0.000532873
-0.000302965
-0.00112336
-0.00106915
-0.00162585
-0.0017045
-0.00205056
-0.00214274
-0.00239213
0.000701039
0.000934602
0.000897063
0.00118208
0.00103772
0.00144249
0.00111095
0.00165166
0.00114242
0.00166432
0.00115757
0.000860144
0.0007585
7.25458e-05
0.00026617
-0.000528004
-0.00028608
-0.00102196
-0.000923286
-0.00144594
-0.00147702
-0.0018189
-0.0018809
-0.00214016
0.000556128
0.000796153
0.000743486
0.0010305
0.000867836
0.00126001
0.000928679
0.00142887
0.000959121
0.00141873
0.000976257
0.000664272
0.000586229
-2.15897e-05
0.00016564
-0.000515932
-0.000267227
-0.000926662
-0.000793495
-0.00128267
-0.00127278
-0.00160811
-0.00164255
-0.00190743
0.000420138
0.000663985
0.000598573
0.000885283
0.000709687
0.00108823
0.000763234
0.0012278
0.000797965
0.00120798
0.000821195
0.000503184
0.00044681
-9.30799e-05
8.99389e-05
-0.000496061
-0.000243916
-0.000833853
-0.000674052
-0.00112978
-0.00108481
-0.0014108
-0.00142022
-0.00168642
0.000296673
0.000540647
0.000464541
0.000747547
0.000563723
0.000927468
0.000612076
0.00104325
0.000653366
0.00102379
0.000686499
0.000369667
0.00033361
-0.000145565
3.51479e-05
-0.00046747
-0.000214459
-0.000740193
-0.000560219
-0.000982049
-0.000907432
-0.00122063
-0.0012076
-0.0014702
0.000189177
0.000428133
0.000343396
0.00061761
0.000430212
0.000776365
0.000474365
0.000872637
0.000521843
0.000859029
0.000566853
0.000257689
0.00024042
-0.000181663
-2.05191e-06
-0.000429555
-0.000178219
-0.000643175
-0.000449171
-0.000835333
-0.000736483
-0.00103248
-0.000999614
-0.0012528
0.000100901
0.000327073
0.000236513
0.00049478
0.000308473
0.000629977
0.00034737
0.000709848
0.00039912
0.000705649
0.000456877
0.000163196
0.000163718
-0.000200362
-2.31611e-05
-0.00037984
-0.000135206
-0.000539497
-0.000338954
-0.000685014
-0.000568442
-0.000840409
-0.000790942
-0.00102668
3.5658e-05
0.00023913
0.000146782
0.000379742
0.000201284
0.000488811
0.000233109
0.000553067
0.000285269
0.000558699
0.000350771
8.01451e-05
9.65609e-05
-0.00020292
-3.15909e-05
-0.000318078
-8.80821e-05
-0.000428737
-0.000231786
-0.000531039
-0.000405478
-0.000644827
-0.000583551
-0.000792127
-4.16512e-06
0.000153331
7.02366e-05
0.000253107
0.000102838
0.000328416
0.000123039
0.000372779
0.000166919
0.000387409
0.000235585
1.90235e-05
4.66424e-05
-0.000170402
-2.45905e-05
-0.000228407
-3.82524e-05
-0.000293142
-0.000124613
-0.000352439
-0.000237294
-0.000420837
-0.000358533
-0.000517426
-1.20516e-05
0.000100436
3.35361e-05
0.000166938
5.17538e-05
0.000216466
6.44662e-05
0.000246031
9.65358e-05
0.000258975
0.000116134
-7.29548e-05
-4.11037e-05
-0.000141871
-1.77363e-05
-0.00014728
-2.1631e-06
-0.000180446
-4.93861e-05
-0.000211329
-0.000117478
-0.000248346
-0.000194331
-0.000305832
-0.0654043
-0.118714
-0.00381098
-0.109286
-0.184014
-0.131762
-0.0969282
-0.166707
-0.186397
-0.0492097
-0.101243
-0.159989
-0.00185947
-0.0319041
-0.0921757
0.0278824
0.0954545
0.090461
0.0150459
-0.0242918
0.0296426
0.09646
0.0112886
0.0447452
-0.0284309
-0.0577666
0.0146089
-0.0907472
0.0468183
-0.109173
-0.0652401
-0.0273644
-0.0534102
-0.0992515
-0.065705
-0.0947078
-0.136324
-0.108603
-0.229631
-0.190303
-0.169363
-0.100592
-0.0766311
-0.0540824
-0.0895665
-0.100525
-0.109688
-0.148198
-0.152394
-0.258069
-0.262354
-0.156842
-0.101762
-0.104188
-0.0352629
-0.0471906
-0.085241
-0.0750836
-0.0916196
-0.121318
-0.163994
-0.207729
-0.0965998
-0.0749765
-0.0969079
-0.0664806
-0.109105
-0.0336338
-0.03956
-0.0661828
0.0185806
-0.0162991
0.0302701
0.0313151
0.0873363
0.0307395
0.0243245
0.0171567
-0.103507
-0.0521751
-0.0330564
-0.0576523
-0.111063
0.0557961
-0.0475707
-0.186475
-0.102895
-0.0732851
-0.0980516
-0.182532
-0.151648
-0.139145
-0.0996204
-0.143728
-0.157698
-0.116068
-0.14296
-0.259856
-0.231573
-0.169172
-0.230527
-0.249155
-0.185644
-0.228681
-0.161823
-0.124863
-0.145863
-0.107535
-0.151584
-0.127749
-0.157422
-0.153463
-0.210113
-0.255912
-0.182128
-0.244706
-0.210824
-0.250604
-0.246657
-0.185212
-0.0893788
-0.0543961
-0.12548
-0.09463
-0.112257
-0.160297
-0.12754
-0.157498
-0.111811
-0.208094
-0.160608
-0.136218
-0.0171713
0.00900713
-0.050013
-0.0211694
-0.0216984
-0.0608604
-0.105974
-0.0661981
-0.0651556
0.0347916
0.0526003
0.0116332
0.0323826
0.0462944
0.0221132
-0.0205046
-0.0417154
0.0494984
-0.0405457
0.116665
-0.011024
-0.00368207
-0.0413306
-0.024154
-0.0215225
-0.0497041
0.00949509
-0.0121198
0.00995892
-0.0109993
-0.0312805
0.1074
-0.0192043
0.0381685
-0.0842077
-0.0559205
-0.0538839
-0.0867894
-0.0687318
-0.0778776
-0.057142
0.002268
0.0180092
-0.0544277
-0.0385861
-0.0155947
-0.0383121
-0.0565634
-0.0605953
-0.0231267
0.0188455
0.0265014
-0.0180584
0.0147589
-0.00356176
0.158848
0.104498
0.0699583
0.0631908
0.102091
0.159421
-0.0588969
-0.0351396
-0.0561767
0.105182
-0.0383176
-0.0150536
-0.217946
-0.214763
-0.264268
-0.264474
-0.18567
-0.188423
-0.0834924
-0.0682084
-0.0859369
0.0339432
0.0123166
-0.0128358
0.00805013
-0.000441141
-0.0942444
-0.085378
-0.118343
-0.0901424
-0.120408
-0.0926892
-0.084652
-0.0249087
-0.00696473
-0.0329816
-0.0888641
-0.153631
-0.148966
-0.15256
-0.152676
-0.129699
-0.130928
-0.252347
-0.252281
-0.240526
-0.207782
-0.197381
-0.217594
-0.21052
-0.241266
-0.208116
-0.173919
-0.154722
-0.193462
-0.179329
-0.21142
-0.142854
-0.140554
-0.158988
-0.158048
-0.239511
-0.241026
-0.22997
-0.206523
-0.215807
-0.189047
-0.202601
-0.228108
-0.253401
-0.221928
-0.219217
-0.218153
-0.221736
-0.253277
-0.0809082
-0.0743625
-0.0808468
-0.103343
-0.0571095
-0.0774497
-0.0691874
-0.114249
-0.106026
-0.109244
-0.133983
-0.13723
-0.186572
-0.169031
-0.183892
-0.14816
-0.163867
-0.182821
-0.0191997
0.00030729
-0.0372635
-0.0383371
-0.0542138
-0.020608
-0.036255
-0.0332907
-0.0364711
-0.0214954
-0.0382766
-0.0392642
-0.0160638
-0.064868
-0.0414826
-0.0441832
-0.0403404
0.0451613
0.0602581
0.0762403
0.0278926
0.0400407
0.0869336
0.0552661
0.036359
0.216142
0.00697824
0.0206042
0.000807404
0.0157849
0.0273289
0.0115159
0.058691
0.0436978
0.046964
0.157067
0.00768524
-0.01769
-0.0182574
0.0202573
0.0220317
0.0750562
0.0605292
0.0713866
0.0233683
0.0231068
0.0664528
0.0592398
0.0842454
0.239079
0.169525
0.122059
0.136195
0.177048
0.242918
-0.126491
-0.105603
-0.116354
-0.225204
-0.209823
-0.202444
-0.152405
-0.130757
-0.128895
-0.130554
-0.132178
-0.152953
-0.261739
-0.263023
-0.173948
-0.19912
0.0413099
0.0346741
0.00458896
0.0106428
0.0295046
0.0528678
0.0464958
0.0599441
0.00853017
-0.0128601
0.100408
-0.173518
-0.196462
-0.207901
-0.13758
-0.112507
-0.0795568
-0.147398
-0.121404
-0.148506
-0.147884
-0.126237
-0.13093
-0.117982
-0.125649
-0.146204
-0.148733
-0.162113
-0.154822
-0.170103
-0.168827
-0.15545
-0.153218
-0.149646
-0.137844
-0.257888
-0.240102
-0.236064
-0.219194
-0.217643
-0.237196
-0.232867
-0.246452
-0.126451
-0.121609
-0.138153
-0.148771
-0.157523
-0.161931
-0.159001
-0.171971
-0.170456
-0.16534
-0.170118
-0.15587
-0.22258
-0.25068
-0.239252
-0.229144
-0.233254
-0.199174
-0.206949
-0.219347
-0.252222
-0.240287
-0.237104
-0.235608
-0.238024
-0.250576
-0.12166
-0.124456
-0.115497
-0.169224
-0.15855
-0.150238
-0.136991
-0.126895
-0.142824
-0.105895
-0.121455
-0.130546
-0.00511392
-0.00204478
-0.0184461
0.015053
0.00326777
-0.00139053
0.048287
0.0571826
0.020577
0.0249137
0.017727
0.0340642
0.0447407
0.0519976
0.0443881
0.0212416
0.162546
0.0459537
0.0119788
-0.000252591
0.000684104
0.0137758
-0.00180038
-0.00336714
0.046475
0.0438646
0.148489
0.0168457
0.0275366
-0.0694106
-0.0623072
0.00735535
0.0182344
0.0104713
0.0151991
0.00493298
0.0224095
0.0175045
0.0124131
-0.0455152
-0.0416562
-0.024638
-0.0279928
0.0214774
0.0228345
0.0233476
0.0235816
0.0262559
-0.095718
-0.0754362
-0.036391
-0.116079
-0.0864749
-0.10614
-0.223726
-0.205884
-0.263036
-0.264545
-0.176896
-0.196309
-0.0812193
-0.0779302
-0.0876112
-0.0659194
-0.0750452
-0.0767534
-0.102256
-0.111594
-0.0907339
-0.0987572
0.0247252
0.0313384
0.0391587
0.0152621
0.0275088
0.0219095
0.0275037
0.0159934
-0.108322
-0.0914974
-0.103124
-0.0710296
-0.0870595
-0.104637
-0.119101
-0.126195
-0.106634
-0.116547
-0.062469
-0.0455959
-0.0656375
-0.0639599
-0.0715424
-0.171833
-0.193208
-0.170011
-0.182352
-0.148757
-0.125249
-0.178575
-0.155127
-0.130048
-0.149577
-0.167376
-0.165509
-0.162947
-0.149151
-0.163995
-0.16866
-0.158401
-0.163673
-0.172876
-0.173905
-0.169241
-0.17092
-0.155472
-0.167791
-0.166029
-0.140666
-0.146758
-0.128564
-0.137986
-0.154314
-0.156995
-0.148398
-0.153239
-0.136927
-0.14834
-0.14344
-0.25735
-0.248357
-0.226638
-0.220333
-0.237893
-0.245486
-0.232595
-0.227239
-0.152152
-0.158365
-0.146983
-0.161355
-0.155101
-0.173973
-0.162471
-0.146634
-0.134654
-0.153158
-0.148017
-0.172389
-0.172009
-0.158436
-0.176274
-0.177298
-0.174197
-0.176318
-0.175118
-0.172909
-0.176799
-0.175341
-0.157259
-0.170611
-0.172113
-0.230695
-0.247547
-0.220972
-0.226439
-0.236595
-0.221609
-0.210551
-0.21803
-0.241369
-0.239718
-0.253076
-0.251738
-0.239854
-0.240198
-0.089995
-0.0898244
-0.0844177
-0.0766027
-0.0975269
-0.08731
-0.0962657
-0.0621318
-0.0608481
-0.0555561
-0.0735298
-0.0636648
-0.0655039
-0.128739
-0.120919
-0.131708
-0.131445
-0.112467
-0.108863
-0.100888
-0.118072
-0.110128
-0.114732
-0.13701
-0.127875
-0.125039
-0.132487
-0.140661
-0.114651
-0.128845
-0.146086
-0.146898
-0.155569
-0.140956
-0.0105141
-0.0112998
-0.0186659
0.00186105
-0.00839461
-0.00733962
0.00382977
-0.0284926
-0.0213688
-0.025856
-0.0548688
-0.0547247
-0.062865
-0.0417622
-0.0519355
-0.0517195
-0.0535551
-0.0561294
0.0599345
0.0698542
0.028082
0.0316015
0.0694
0.0547458
0.0042207
-0.0157633
0.0064236
0.00215218
0.0198523
0.0353573
0.319465
0.243105
0.210496
0.235614
0.265621
0.327108
0.0380546
0.0828399
0.0527038
-0.0886102
-0.102824
-0.122637
-0.227859
-0.238408
-0.239995
-0.260472
-0.262589
-0.107259
-0.0979681
-0.109511
-0.216947
-0.21412
-0.205094
-0.112605
-0.102882
-0.0996992
-0.0854259
-0.0664407
-0.0844865
-0.122544
-0.114657
-0.10544
-0.118485
-0.142509
-0.124296
-0.121241
-0.13347
-0.124936
-0.258705
-0.242426
-0.244827
-0.233593
-0.248589
-0.247489
-0.248032
-0.213799
-0.209375
-0.22275
-0.135094
-0.118396
-0.111009
-0.134079
-0.142015
-0.133205
-0.212772
-0.22164
-0.218834
-0.253875
-0.242853
-0.243402
-0.245027
-0.251263
-0.250504
-0.249649
-0.246702
-0.248154
-0.248561
-0.122702
-0.12907
-0.132581
-0.199766
-0.191815
-0.196469
-0.0886156
-0.0849458
-0.100607
0.051656
0.0552066
0.0384577
0.0277921
0.0231178
0.042218
0.0470582
0.0347239
0.0492303
0.0344559
-0.0296925
-0.0241871
-0.0747214
-0.0564226
-0.0589174
-0.0599374
-0.0517973
-0.0517167
-0.0539515
-0.0387038
-0.0399381
-0.0390853
-0.0387389
-0.0360751
-0.03547
0.0264587
0.0235416
0.0224021
0.0948786
0.152177
0.122836
-0.072354
-0.0737205
-0.0629763
-0.047524
-0.130793
-0.122032
-0.0236108
0.015428
0.0231716
-0.223172
-0.231625
-0.220776
-0.211763
-0.213896
-0.216823
-0.265874
-0.264907
-0.185729
-0.182309
-0.18282
-0.190963
-0.198486
-0.191479
-0.0862918
-0.0889521
-0.0659716
-0.0691055
-0.0711765
-0.091562
-0.0946276
-0.0965402
-0.099318
-0.0898607
-0.0982412
-0.114208
-0.110335
-0.113685
-0.08252
-0.0880721
-0.0949252
-0.131783
-0.134402
-0.116351
-0.121413
-0.123752
-0.0157406
-0.039658
-0.0542594
-0.0442488
-0.0476588
-0.0448595
-0.0819825
-0.148448
-0.140358
-0.14175
-0.135945
-0.12274
-0.137196
-0.139125
-0.253293
-0.252005
-0.193244
-0.187168
-0.199062
-0.220551
-0.204494
-0.19906
-0.135593
-0.144133
-0.150094
-0.236941
-0.242676
-0.252745
-0.252759
-0.253557
-0.253684
-0.252564
-0.252555
-0.0838836
-0.084207
-0.0830695
-0.0798406
-0.101855
-0.0985882
-0.101204
-0.118555
-0.126385
-0.11907
-0.128144
-0.126598
-0.137338
-0.135263
-0.108466
-0.108165
-0.104981
-0.125638
-0.124638
-0.180332
-0.186238
-0.196652
-0.173042
-0.16826
-0.174292
-0.0424918
-0.0414728
-0.0378442
-0.0512785
-0.0462042
-0.0453245
-0.0290072
-0.0311423
-0.038676
-0.0192006
-0.0252196
-0.0255173
-0.0596308
-0.0601967
-0.0627603
-0.046626
-0.0429457
-0.0630702
0.06698
0.067041
0.073795
0.0271838
0.0351796
0.0315408
0.0278316
0.0433045
0.0338521
0.0357267
0.0830279
0.0669339
0.0423001
0.0503345
0.0473323
0.119034
0.209126
0.0745148
0.0213504
0.0217768
0.0681769
0.0889662
0.0997963
0.0230897
0.0245526
0.0248973
0.0242766
0.0243483
0.0227923
0.0983189
0.0871421
0.0725878
0.16505
0.238445
0.208924
-0.236972
-0.23743
-0.226464
-0.21427
-0.206319
-0.19982
-0.218703
-0.214588
-0.261684
-0.262495
-0.17793
-0.179849
-0.170322
-0.174535
-0.20207
-0.210696
-0.207486
0.0381532
0.0400551
0.0430615
0.0348338
0.0379453
0.0358214
-0.199835
-0.189134
-0.18571
-0.196579
-0.192813
-0.203713
-0.257907
-0.235212
-0.245434
-0.249115
-0.247105
-0.246536
-0.245502
-0.233977
-0.225538
-0.215589
-0.253357
-0.239854
-0.241738
-0.241462
-0.251652
-0.251023
-0.25162
-0.249822
-0.249367
-0.250217
-0.163546
-0.158742
-0.163215
-0.152907
-0.155609
-0.16019
0.0575427
0.0590693
0.0327518
0.0363087
0.0372823
0.0359605
0.0325573
0.054099
0.0514771
0.0499383
0.0519645
0.0535526
0.0456083
0.0481713
0.0473739
0.0127839
-0.00167689
-0.00298359
0.0257476
0.134168
0.114909
0.151254
0.0540551
0.0723685
0.0949835
0.00365493
0.0046386
0.00109828
0.0118642
0.0084798
0.00722804
-0.00720143
-0.00557968
-0.0112702
-0.00207374
-0.00455096
-0.00427955
0.0604307
0.0677106
0.0393135
-0.0164235
-0.0315112
0.0102006
0.00200855
-0.0725018
-0.0616612
-0.0612709
-0.0643753
0.0113846
0.0152088
0.0043505
0.00753549
0.0086622
-0.0483896
-0.0499636
-0.0490082
-0.0387715
-0.0372042
-0.0408773
-0.0390165
-0.0411521
-0.0464253
-0.0228435
-0.0210075
-0.0222215
-0.0209473
-0.0251681
-0.0147248
-0.0178334
-0.0319121
-0.0330367
-0.029222
0.0241379
0.0242576
0.0242867
0.0238681
0.0241486
0.0249452
-0.0895988
-0.0768909
-0.083161
-0.118639
-0.113873
-0.10066
-0.232464
-0.221982
-0.233482
-0.235795
-0.222612
-0.221425
-0.226297
-0.224192
-0.264755
-0.265533
-0.188141
-0.191884
-0.182482
-0.185317
-0.179802
-0.179126
-0.176135
-0.204556
-0.201335
-0.193607
-0.198922
-0.0773988
-0.0833444
-0.0738168
-0.0721573
-0.0749308
-0.105623
-0.109425
-0.105927
-0.114325
-0.112373
-0.108739
-0.0935336
-0.0925227
-0.0896411
-0.102031
-0.0954268
-0.0958037
-0.0995806
0.0185941
0.0173915
0.0141383
0.0233549
0.0194713
-0.10362
-0.103748
-0.107241
-0.111338
-0.101237
-0.0941896
-0.0993421
-0.128004
-0.129822
-0.131168
-0.128892
-0.123781
-0.122476
-0.125897
-0.0664058
-0.0586366
-0.0554187
-0.0439717
-0.0796435
-0.081481
-0.0738048
-0.176722
-0.172623
-0.167147
-0.182743
-0.178299
-0.184963
-0.194566
-0.186239
-0.141707
-0.150804
-0.159178
-0.131853
-0.142458
-0.134174
-0.173315
-0.16443
-0.170054
-0.164042
-0.165579
-0.167878
-0.159271
-0.165052
-0.163986
-0.169529
-0.16769
-0.173295
-0.17355
-0.169876
-0.170417
-0.143211
-0.146101
-0.143371
-0.149814
-0.148167
-0.14513
-0.131087
-0.13531
-0.133357
-0.14348
-0.137284
-0.133784
-0.140967
-0.145108
-0.155335
-0.159002
-0.157924
-0.16106
-0.160162
-0.156289
-0.149888
-0.152728
-0.151592
-0.156993
-0.155722
-0.151851
-0.254541
-0.249885
-0.159217
-0.160136
-0.160394
-0.157464
-0.159284
-0.157068
-0.172418
-0.161552
-0.163457
-0.164951
-0.144086
-0.149188
-0.149554
-0.146867
-0.148841
-0.139679
-0.151276
-0.153756
-0.155576
-0.150296
-0.151715
-0.149475
-0.176099
-0.176128
-0.174376
-0.176178
-0.173984
-0.173276
-0.176189
-0.175029
-0.233713
-0.244966
-0.253695
-0.252728
-0.252217
-0.251212
-0.252007
-0.252972
-0.0865965
-0.0861792
-0.0848633
-0.0867868
-0.0993541
-0.0945982
-0.0898666
-0.13196
-0.130038
-0.126151
-0.128589
-0.130775
-0.132805
-0.136659
-0.139923
-0.133307
-0.135473
-0.133403
-0.13399
-0.133627
-0.113438
-0.11126
-0.110667
-0.123666
-0.117663
-0.133961
-0.134621
-0.137488
-0.128288
-0.131549
-0.131061
-0.135572
-0.137608
-0.118084
-0.122734
-0.117569
-0.124816
-0.151855
-0.146459
-0.149829
-0.140011
-0.142957
-0.147785
-0.0143299
-0.0146559
-0.0113774
-0.0198239
-0.0174264
-0.0168439
-0.00163081
-0.000184136
0.00208012
-0.00760028
-0.00361232
-0.00551421
-0.000919234
-0.03236
-0.0311512
-0.0355704
-0.0337242
-0.0230008
-0.0237093
-0.0221763
-0.0295935
-0.0260052
-0.0249278
-0.0554734
-0.0581898
-0.0576115
-0.0504118
-0.0589749
0.060657
0.062602
0.0296851
0.026588
0.0241148
0.0300177
0.0283962
0.0304096
0.0289025
0.0307206
0.0604482
0.0558791
0.0262482
0.0359437
0.0283426
0.0397519
0.0451067
0.0328731
0.044359
0.0348391
0.0281518
0.0296835
0.0173864
0.0170126
0.0130944
0.0197519
0.0209225
0.0244766
0.0445247
0.0383785
0.0548065
0.0872491
0.0506523
0.0868896
0.0475814
0.0377039
0.035092
0.0104528
0.0153163
0.00492012
-0.00248824
0.00226684
0.0027236
0.00397128
0.017317
0.00659123
0.0238233
0.0444913
0.0532565
0.0864675
0.0748921
0.137974
0.097964
0.0791592
0.03325
0.0168642
0.0226558
-0.0183319
-0.0180946
-0.00897273
-0.0140786
-0.0244492
-0.00249768
-0.0102465
-0.0112097
0.000213055
0.00645756
0.00925397
0.0241485
-0.0526104
-0.0476891
-0.0210097
-0.0578756
-0.0418822
-0.0294868
-0.0285939
-0.0453288
-0.0310299
-0.043642
-0.0529205
-0.0444049
-0.0819694
-0.0917319
-0.0832741
-0.148222
-0.115099
-0.0925867
-0.0876649
-0.0622923
-0.0534071
-0.0325175
-0.0466444
-0.0474446
-0.0568268
-0.0676458
-0.0669594
-0.111275
-0.122579
-0.122074
-0.172387
-0.136238
-0.133183
-0.0902465
-0.0680457
-0.067329
-0.0254012
-0.0316327
-0.0439394
-0.0462887
-0.053132
-0.0588502
-0.0868708
-0.0938385
-0.0998546
-0.128995
-0.108637
-0.121973
-0.0690855
-0.0579422
-0.0646484
-0.0127945
-0.0113918
-0.0265804
-0.0364536
-0.0374892
-0.0445435
-0.0637665
-0.0597501
-0.0785738
-0.039257
-0.0392542
-0.0490746
-0.00108134
0.00432376
-0.00678229
-0.00751772
-0.0173579
-0.0278812
-0.0141775
-0.0208257
-0.029561
0.0061032
0.00953178
0.00658253
0.014389
0.0252665
0.0241367
0.0314345
0.0424418
0.0462422
0.0601297
0.0660827
0.063951
0.0175749
0.00269739
-0.00623496
-0.00356392
-0.00801772
-0.0136509
0.00859657
0.0118356
0.0112172
0.0149182
0.0191795
0.0237377
0.0208068
0.0222482
0.0379307
0.021674
0.0169106
0.0222538
0.0139238
0.0070155
0.00379237
0.00238966
-0.00194878
-0.00439907
0.0123343
0.0152413
0.0167679
0.0129114
0.0186746
0.0181546
0.0173001
0.0102554
0.0153262
0.0105515
0.00667341
0.00749392
-0.0736628
-0.0627253
-0.0555748
-0.103779
-0.116635
-0.1401
0.00386303
-0.0151951
-0.0205414
-0.120633
-0.118215
-0.1069
-0.180296
-0.20062
-0.206887
-0.146857
-0.165435
-0.143169
-0.105366
-0.110272
-0.101094
-0.172709
-0.192126
-0.181474
-0.207931
-0.209727
-0.18741
-0.0515624
-0.0584964
-0.0556935
-0.109714
-0.118572
-0.104142
-0.177208
-0.163704
-0.152586
-0.0398963
-0.0386893
-0.0302166
-0.0953897
-0.085293
-0.0829432
0.0441356
0.0323822
0.0188342
0.0956055
0.0875216
0.0823834
0.0854154
0.077698
0.0942422
-0.0219781
-0.0138015
-0.0169053
0.0616055
0.0877254
0.0503016
0.374353
0.327773
0.334775
0.0825261
0.100765
0.13781
0.372424
0.389086
0.0228457
0.0343358
0.0213808
0.0703687
0.0816832
0.0424344
-0.0343148
-0.0230238
-0.0194516
-0.028631
-0.0259114
-0.040246
0.00394073
-0.0107101
-0.0178748
-0.0740649
-0.0807014
-0.109583
0.0581119
0.0352797
0.027641
-0.0852735
-0.0567953
-0.0676305
-0.0527302
-0.0563237
-0.0721809
-0.0248547
-0.0401346
-0.0399744
-0.0642878
-0.0595774
-0.0492474
-0.0897064
-0.0712924
-0.0768006
-0.0528546
-0.0632835
-0.0851708
-0.105339
-0.0990495
-0.0887428
-0.1333
-0.126189
-0.129262
-0.101649
-0.106614
-0.112964
-0.197476
-0.201188
-0.194464
-0.132552
-0.119177
-0.155107
-0.0945987
-0.108863
-0.116019
-0.0866191
-0.0990066
-0.086624
-0.0633745
-0.0663831
-0.0561407
-0.0984812
-0.0784684
-0.0744584
-0.0797906
-0.0803141
-0.10036
-0.120495
-0.122037
-0.110867
-0.150053
-0.142643
-0.141133
-0.144686
-0.145208
-0.152912
-0.127033
-0.133595
-0.17008
-0.104692
-0.120369
-0.11641
-0.120302
-0.121753
-0.105634
-0.0393233
-0.0465086
-0.0410359
-0.0646233
-0.0529418
-0.0439937
-0.0686039
-0.0612939
-0.0703329
-0.0803706
-0.0872901
-0.0811188
-0.105063
-0.0938179
-0.0829109
-0.116502
-0.113084
-0.118061
-0.167628
-0.167824
-0.164434
-0.0852012
-0.102321
-0.121102
-0.083202
-0.0927307
-0.082441
-0.110167
-0.102131
-0.0906686
-0.0721365
-0.0746474
-0.0659733
-0.110257
-0.107231
-0.106052
-0.0397781
-0.0508346
-0.0560122
-0.0482109
-0.0501556
-0.0399043
-0.0716468
-0.0606825
-0.057171
0.0140894
0.0175075
0.0222419
-0.0148993
-0.00926341
-0.0109361
0.0341129
0.0404247
0.0315457
0.0521168
0.0437287
0.0398067
0.0693169
0.0655202
0.061347
0.0384584
0.0413521
0.0514216
0.0244075
0.0361159
0.0296379
0.0386132
0.0372319
0.0229882
-0.0979743
-0.0908207
-0.0964719
-0.0381298
-0.0606346
-0.0782962
-0.0448371
-0.0504396
-0.0367377
-0.0681874
-0.0821806
-0.0673238
0.0405223
0.0446003
0.0635961
-0.054444
-0.0417553
-0.0356793
-0.182446
-0.189677
-0.193818
-0.107819
-0.116445
-0.111477
-0.0788811
-0.0974588
-0.0895218
-0.112624
-0.105142
-0.0917653
-0.164661
-0.157275
-0.16749
-0.150614
-0.14298
-0.144012
-0.131978
-0.134587
-0.141892
-0.103774
-0.114896
-0.110585
-0.145885
-0.149399
-0.147667
-0.161733
-0.161194
-0.156568
-0.146244
-0.144704
-0.14084
-0.188031
-0.19819
-0.175331
-0.23271
-0.225598
-0.22227
-0.196164
-0.180615
-0.173206
-0.221141
-0.218381
-0.226603
-0.153165
-0.170533
-0.184417
-0.128401
-0.123316
-0.119991
-0.139221
-0.137222
-0.14336
-0.104722
-0.114511
-0.11793
-0.150964
-0.153484
-0.15514
-0.129816
-0.131747
-0.129281
-0.158464
-0.162493
-0.162026
-0.156946
-0.158338
-0.153992
-0.203491
-0.195605
-0.177909
-0.206078
-0.209171
-0.213786
-0.186995
-0.209135
-0.205767
-0.08405
-0.0862339
-0.0952709
-0.0558301
-0.0598333
-0.0588317
-0.123982
-0.126555
-0.127975
-0.0983148
-0.105705
-0.0995016
-0.115257
-0.116137
-0.113202
-0.161564
-0.159103
-0.156855
-0.139136
-0.1239
-0.118702
-0.149486
-0.144932
-0.150526
-0.110022
-0.115758
-0.117913
-0.205525
-0.20015
-0.20269
-0.156307
-0.162248
-0.169865
-0.1446
-0.15878
-0.144244
-0.0131023
-0.0125267
-0.0168663
0.0108891
0.00756139
0.00569226
-0.0455974
-0.0463054
-0.051191
-0.0209928
-0.0250556
-0.025177
-0.0271924
-0.0265494
-0.0206657
-0.0630609
-0.055965
-0.0553475
-0.100126
-0.0986066
-0.104329
-0.0645956
-0.0797174
-0.0832906
-0.0739542
-0.0755083
-0.0660292
0.0435597
0.0556934
0.042931
0.0653095
0.0579132
0.0452421
0.0148831
0.0166542
0.013793
0.0368201
0.0532443
0.0593949
-0.0218193
-0.00620794
-0.00711943
-0.00472335