/*--------------------------------*- C++ -*----------------------------------*\
| =========                 |                                                 |
| \\      /  F ield         | OpenFOAM: The Open Source CFD Toolbox           |
|  \\    /   O peration     | Version:  5.x                                   |
|   \\  /    A nd           | Web:      www.OpenFOAM.org                      |
|    \\/     M anipulation  |                                                 |
\*---------------------------------------------------------------------------*/
FoamFile
{
    version     2.0;
    format      ascii;
    class       surfaceScalarField;
    location    "300";
    object      phi;
}
// * * * * * * * * * * * * * * * * * * * * * * * * * * * * * * * * * * * * * //

dimensions      [0 3 -1 0 0 0 0];

internalField   nonuniform List<scalar> 
13181
(
8.54227e-06
0.00915675
8.14059e-06
0.0091674
6.90276e-06
0.00916774
5.55136e-06
0.00916785
3.4307e-06
0.00916912
-4.21649e-06
0.00917415
-9.05102e-06
0.00917148
-9.91188e-06
0.00916756
-8.77715e-06
0.00916552
-3.94848e-06
0.00916182
5.10512e-06
0.00915765
1.66656e-05
0.00915509
2.74177e-05
0.0091559
3.40757e-05
0.00916004
3.5503e-05
0.00916522
3.26045e-05
0.00916955
2.69819e-05
0.00917232
1.99938e-05
0.00917364
8.72875e-06
0.00917776
-9.75789e-07
0.0091767
-1.34961e-05
0.00917902
-1.85988e-05
0.0091716
-1.96108e-05
0.00916801
0.00914532
1.20858e-05
0.0091416
3.4761e-05
0.00914473
3.48964e-05
0.0091676
3.4128e-05
0.00916862
2.78185e-05
0.00917543
8.3035e-06
0.00919366
-1.71507e-05
0.00919694
-2.54487e-05
0.00917586
-2.46159e-05
0.00916468
-1.52033e-05
0.0045761
0.00457631
3.12452e-06
0.00456961
0.00456971
2.74528e-05
0.00456518
0.00456558
5.01322e-05
0.00456613
0.00456709
6.40126e-05
0.0045725
0.00457367
6.67083e-05
0.00458069
0.00458184
5.29862e-05
0.00918327
3.14926e-05
0.00919382
9.96397e-06
0.00919517
-1.27916e-05
0.00920052
-2.07238e-05
0.00918464
-2.12772e-05
0.00917957
-2.22879e-05
0.00917261
-2.9257e-07
0.00914602
0.00914107
-4.26083e-06
0.00914087
-1.3598e-06
0.00914183
1.82873e-05
0.00914796
1.60626e-05
0.00917084
1.67793e-05
0.00917471
1.76652e-05
0.00919278
-1.56543e-05
0.00923026
-3.78141e-05
0.00919802
-2.00007e-05
0.00917172
-2.48532e-05
0.00457293
-1.68286e-05
0.00456433
-7.46022e-06
1.27372e-05
3.94208e-07
0.00455699
7.7981e-06
-1.6814e-05
0.00455752
2.54227e-05
-3.28891e-05
0.0045668
3.85826e-05
-4.17033e-05
0.00458036
4.2029e-05
4.14854e-05
0.00460948
-3.22971e-05
-4.36761e-05
0.00460828
3.98386e-06
0.00923132
-8.33188e-06
0.00920748
-6.76187e-06
0.00919895
-8.06087e-06
0.00918594
-9.53434e-06
0.00918105
7.87103e-06
0.00915521
8.68101e-06
0.00914521
0.00914343
-1.02602e-05
0.0091443
-1.33872e-05
0.00914495
-1.40732e-05
0.00914864
-6.57149e-07
0.00915743
-5.61456e-06
0.00917967
-5.84032e-06
0.009193
-1.08218e-05
0.00923524
-3.17872e-05
0.00921898
-3.604e-05
0.00461623
-3.91887e-05
0.00459894
0.00456798
-3.2482e-05
-0.00457153
0.00455022
-2.00748e-05
-0.00455787
2.77198e-05
8.51173e-06
0.00453074
6.55115e-06
-0.00454581
-2.37127e-05
0.00452888
4.03336e-05
-0.0045455
-5.28796e-05
0.00456128
5.2209e-05
-0.00456061
-3.56886e-05
0.00460999
1.49751e-05
-0.00458928
-1.38703e-06
0.00461217
-1.30164e-06
3.19338e-05
0.00461168
-1.30769e-05
-1.70372e-06
0.00460249
2.58042e-05
0.00921361
1.77636e-05
0.00920699
7.15734e-06
0.00919654
1.86371e-05
0.00916957
1.78329e-05
0.00915601
1.24075e-05
0.00915063
0.0091474
-1.21842e-05
0.00914806
-1.70194e-05
0.00914979
-2.2701e-05
0.00915432
-2.49685e-05
0.0091597
-1.89338e-05
0.00917364
-2.29658e-05
0.00919703
9.56818e-06
0.00920271
1.88459e-05
0.00459146
6.65241e-06
0.00461159
0.00464385
-8.77287e-06
0.00457614
-3.56486e-05
-0.0045691
2.86166e-05
0.00454831
-4.37208e-05
-0.00454382
3.92293e-05
2.78549e-05
-1.16968e-06
-0.0045107
0.00224171
0.0022423
-3.19975e-05
6.48229e-05
-0.00450611
0.00223667
0.00223662
-7.61072e-05
4.10246e-05
-0.00457838
0.00230063
0.00231283
-5.22964e-05
0.00460908
5.42048e-05
-0.00461099
-4.63339e-05
0.00461913
4.68715e-05
-0.00461967
-4.51602e-05
0.00461255
4.42862e-05
5.19555e-05
0.00924095
-4.25732e-05
-3.67239e-05
3.23235e-05
0.00922662
3.43102e-05
0.00919456
2.88719e-05
0.00917501
2.05588e-05
0.00916433
1.45195e-05
0.00915667
0.00915195
-1.32916e-05
0.00915176
-1.83712e-05
0.00915487
-2.49751e-05
0.00916093
-3.42053e-05
0.00916893
-3.98346e-05
0.00917927
-4.3302e-05
0.0092005
-2.74464e-05
0.00922278
-3.59277e-05
0.00460074
-3.67251e-05
0.00460655
-1.40324e-07
-0.00463823
3.18217e-05
0.00458374
1.79395e-05
-0.0045859
-1.57819e-05
-0.00228358
8.90027e-07
0.00228894
-6.24857e-06
-0.00222904
1.61477e-05
0.00223097
-1.80776e-05
-0.00221318
-1.95812e-05
0.00219995
3.28115e-05
-0.00228956
-2.74814e-05
0.0022609
5.6139e-05
-4.14385e-05
0.000104885
-0.00461537
-4.54343e-05
0.00229444
0.00230292
-0.000101418
0.00463431
8.75152e-05
-0.00462041
-7.18978e-05
-0.00462268
0.00463597
5.86058e-05
6.66458e-05
0.00927687
-5.35606e-05
-4.90042e-05
5.33652e-05
0.0092399
4.20548e-05
0.00920587
2.99054e-05
0.00918716
2.15585e-05
0.00917267
1.51843e-05
0.00916305
0.00915644
-1.39062e-05
0.00915551
-1.91515e-05
0.00916011
-2.53904e-05
0.00916717
-3.39317e-05
0.00917747
-4.62697e-05
0.0091916
-5.8118e-05
0.00921235
-3.83258e-05
0.0092412
-3.82109e-05
-0.00460993
0.00461992
-4.83176e-05
-0.00460855
0.00462397
-7.63099e-05
6.08808e-05
-0.00459508
0.00462029
9.62143e-05
-5.73946e-05
-6.40372e-05
-0.00227727
5.90302e-05
0.00227851
-6.02723e-05
-0.00111176
2.13319e-05
0.00110783
-1.74021e-05
-1.10357e-05
-0.00105527
0.00104955
1.6761e-05
-4.69427e-05
-0.0022784
9.25242e-05
-3.33394e-05
0.00112008
0.00114608
-0.000105455
-0.00230849
0.00232054
9.34144e-05
-0.000140996
-0.00465788
0.00468668
0.000112189
-8.87747e-05
-0.00465134
0.00467034
6.97718e-05
7.68909e-05
0.00930804
-5.37326e-05
-5.43293e-05
5.74297e-05
0.00925936
3.92605e-05
0.00922403
2.71465e-05
0.00919927
1.8961e-05
0.00918086
1.31607e-05
0.00916885
0.00915921
-1.29675e-05
0.0091584
-1.77813e-05
0.00916493
-2.33004e-05
0.00917268
-3.17588e-05
0.00918593
-4.30313e-05
0.00920288
-5.93955e-05
0.00922871
-3.66442e-05
0.00925981
-4.13696e-05
-0.00463045
0.0046415
-4.76948e-05
-0.00464376
0.00466304
-8.15451e-05
6.22575e-05
-0.00465519
0.00469351
0.000108344
-7.19238e-05
-7.47406e-05
-0.00231507
0.000100611
0.00233577
-0.000121306
-0.00112752
0.000106614
0.00114138
-0.000120477
-0.000145201
-0.00115751
0.00117145
0.000131259
-0.000147977
-0.00236635
0.00238824
0.000126081
-0.000164793
-0.00472458
0.00476185
0.000127525
-9.97393e-05
-0.0046931
0.00471332
7.95254e-05
7.30936e-05
0.00935441
-5.66511e-05
-6.28049e-05
4.34693e-05
0.00928899
2.93488e-05
0.00923815
1.98986e-05
0.00920872
1.42092e-05
0.00918655
1.09129e-05
0.00917214
0.00916117
-1.15829e-05
0.00916066
-1.44527e-05
0.0091678
-1.8493e-05
0.00917673
-2.35405e-05
0.00919097
-3.05061e-05
0.00920984
-4.0274e-05
0.00923848
-3.10096e-05
0.00927559
-2.50406e-05
-0.00464446
0.00465329
-3.98446e-05
-0.00468561
0.00470044
-6.99089e-05
5.50874e-05
-0.00473069
0.00475753
8.90136e-05
-6.11412e-05
-5.4717e-05
-0.00239513
8.58207e-05
0.00241055
-0.000101234
-0.00123067
8.97429e-05
0.00123945
-9.85184e-05
-0.000123044
-0.00127349
0.00128445
0.000112087
-0.0001143
-0.00244966
0.00246763
9.6321e-05
-0.000115447
-0.00479685
0.00482334
8.89598e-05
-6.8592e-05
-0.00473138
0.00474504
5.49257e-05
5.34241e-05
0.00937478
-3.13469e-05
-4.24468e-05
2.80687e-05
0.00931434
1.41008e-05
0.00925212
9.73481e-06
0.00921309
7.16858e-06
0.00918911
5.63161e-06
0.00917368
0.0091604
-9.0302e-06
0.00916168
-1.11919e-05
0.00916996
-1.28545e-05
0.00917839
-1.5302e-05
0.00919342
-1.67828e-05
0.00921132
-1.84657e-05
0.00924016
-1.32857e-05
0.0092768
-6.38936e-06
-0.004661
0.00466868
-2.09634e-05
-0.00470954
0.0047126
-2.7002e-05
2.39441e-05
-0.00477283
0.00477522
2.94235e-05
-2.01188e-05
-1.16859e-05
-0.00243788
2.57805e-05
0.00243996
-2.78568e-05
-0.00127117
2.02112e-05
0.00127176
-2.08015e-05
-2.5763e-05
-0.00132639
0.00132754
2.46105e-05
-2.81762e-05
-0.00249958
0.00250275
2.50104e-05
-2.59271e-05
-0.00483876
0.00484165
2.30313e-05
-2.0612e-05
-0.00475392
0.00475706
1.74773e-05
1.82594e-05
0.0093729
-2.90565e-06
-1.34742e-05
1.94711e-05
0.00931313
2.31615e-06
0.00926928
-2.99921e-06
0.0092184
-8.41683e-07
0.00918696
2.87887e-07
0.00917255
0.00915774
-6.7055e-06
0.00916205
-7.19042e-06
0.00917044
-7.06717e-06
0.00917826
-5.56503e-06
0.00919192
-3.91972e-06
0.00920968
2.51675e-06
0.00923373
3.6673e-06
0.0092682
7.44812e-06
-0.00467095
0.00467119
3.42587e-06
-0.00470981
0.0047017
1.67261e-05
-8.61602e-06
-0.00476553
0.00474674
-2.966e-05
2.06961e-05
2.77505e-05
-0.00242687
-3.29857e-05
0.00241738
4.24773e-05
-0.00125034
-4.27133e-05
0.00124454
4.851e-05
6.53497e-05
-0.0013019
0.00129457
-5.80174e-05
5.7491e-05
-0.00248889
0.00247849
-4.70965e-05
6.07613e-05
-0.00483278
0.00481475
-4.27304e-05
2.81876e-05
-0.00475348
0.00474488
-1.95815e-05
-1.66683e-05
0.00935286
2.21032e-05
1.46028e-05
-2.90342e-06
0.00929937
4.6978e-06
0.00926168
-1.5446e-05
0.00923854
-1.02163e-05
0.00918173
-5.488e-06
0.00916782
0.00915334
-4.00853e-06
0.00916152
-2.63042e-06
0.00916906
-7.42907e-07
0.00917638
2.78763e-06
0.00918839
9.48664e-06
0.00920298
2.13746e-05
0.00922184
1.56518e-05
0.00925506
1.88614e-05
-0.00466527
0.00465886
2.20665e-05
-0.00469018
0.0046768
4.52292e-05
-3.18504e-05
-0.00472176
0.0046949
-6.43149e-05
4.46197e-05
4.65615e-05
-0.00238093
-6.44758e-05
0.0023678
7.76016e-05
-0.00119664
-6.8194e-05
0.00118981
7.502e-05
0.000103538
-0.00123464
0.00122614
-9.50398e-05
0.000104019
-0.00243503
0.00241904
-8.8024e-05
0.000114442
-0.00478801
0.00475637
-8.28e-05
6.15897e-05
-0.00473189
0.00471666
-4.6359e-05
-3.99594e-05
0.00931951
3.83522e-05
3.49519e-05
-1.96773e-05
0.00927909
-6.29714e-06
0.0092483
-2.1558e-07
0.00923246
-1.83674e-05
0.00919988
-1.15492e-05
0.009161
0.00914712
-1.75933e-06
0.00916044
4.91124e-07
0.00916681
3.38828e-06
0.00917348
8.70233e-06
0.00918307
1.63604e-05
0.00919532
2.95374e-05
0.00920866
2.34938e-05
0.00923686
2.42493e-05
-0.00465082
0.00464298
3.1337e-05
-0.00466277
0.00464969
5.3752e-05
-4.06739e-05
-0.0046685
0.0046456
-7.0948e-05
4.78297e-05
4.60175e-05
-0.00233114
-6.52237e-05
0.00232097
7.53918e-05
-0.00114782
-6.0307e-05
0.00114352
6.46042e-05
9.55829e-05
-0.00116798
0.0011605
-8.81109e-05
0.000103804
-0.00237254
0.00235912
-9.03837e-05
0.000119921
-0.0047219
0.00469356
-9.15822e-05
7.06878e-05
-0.00470103
0.004686
-5.56593e-05
-4.87617e-05
0.0092854
4.12159e-05
4.16574e-05
-2.68248e-05
0.00925715
-1.17404e-05
0.00923321
-9.53321e-06
0.00923026
-2.15106e-05
0.00921185
-1.68817e-05
0.00915637
0.00913963
3.71782e-07
0.00915864
2.47982e-06
0.00916471
6.15058e-06
0.00916981
1.10946e-05
0.00917813
1.8463e-05
0.00918795
2.90934e-05
0.00919803
4.29277e-05
0.00922302
3.69475e-05
0.00925364
2.78403e-05
-0.00463605
-0.00463945
-0.00463877
0.00463133
4.43853e-05
-0.00462764
0.00463425
3.9962e-05
-4.65704e-05
-0.0023065
-8.20781e-06
0.00233179
-1.70859e-05
-0.00114986
3.44908e-05
0.00113145
-1.60811e-05
-0.000296875
5.72177e-06
0.000307411
-1.62576e-05
3.44145e-05
-0.00112958
0.00227131
-7.13208e-05
2.94022e-05
-0.00113422
-0.00233052
7.16169e-05
0.00232639
-6.74778e-05
8.92039e-05
-0.00467199
0.00465575
-7.29681e-05
5.92328e-05
-0.00467491
0.0046714
-5.57256e-05
-4.5018e-05
0.00926006
3.28857e-05
3.74717e-05
-2.62325e-05
0.00923836
-1.27358e-05
0.00921972
-2.48133e-05
0.00924233
1.79346e-06
0.00918525
-1.86696e-05
0.00917684
0.00913396
8.46711e-07
0.00915742
2.88462e-06
0.00916267
5.7578e-06
0.00916694
9.54013e-06
0.00917435
1.55459e-05
0.00918195
2.14218e-05
0.00919216
1.61293e-05
0.00922832
-5.15675e-06
0.00930217
-2.72392e-05
-0.00464069
0.00465839
-2.28605e-05
-0.00464427
0.00462406
-7.16692e-07
2.09272e-05
-0.00229765
-1.79042e-05
0.00229371
2.18481e-05
-0.00226194
-1.33366e-05
0.00226851
6.77146e-06
-0.000852458
2.58816e-05
0.00180968
-5.27554e-05
-0.000930347
-0.00229965
6.12714e-05
0.00229407
-5.56939e-05
-0.00462621
6.77479e-05
0.00463738
-0.00012313
4.42096e-05
0.000114647
-0.00464712
0.00463573
-0.000103265
-0.000126218
0.00925524
6.30105e-05
9.46794e-05
-0.00468731
-0.0045994
-9.97098e-05
0.00923355
-7.97867e-05
0.00921844
-6.17657e-05
0.00920169
-7.51617e-06
0.00918808
1.90016e-06
0.00917583
9.20231e-06
0.00916954
0.00915917
1.23647e-06
0.0091565
2.40428e-06
0.0091615
4.13142e-06
0.00916521
6.85116e-06
0.00917163
9.53913e-06
0.00917926
8.42435e-06
0.00919327
-1.50678e-05
0.00925181
-2.74052e-05
0.00930386
1.06406e-05
-0.00465472
0.00462556
1.7586e-06
-0.00461111
0.00461027
1.80697e-05
-1.72254e-05
-0.00459399
0.0046019
7.10251e-06
-1.50107e-05
-0.00228368
9.87997e-07
0.00228714
-4.44712e-06
-0.00186564
1.79934e-05
0.00188684
-3.91874e-05
-0.00229336
3.76363e-05
0.0045983
-8.40448e-05
-0.00229473
3.62068e-05
-0.00462883
9.39621e-05
0.00462266
-8.7792e-05
-0.00462882
8.32894e-05
0.00462295
-7.74174e-05
-9.28006e-05
0.00921916
6.00403e-05
6.8846e-05
-6.44002e-05
0.00920515
-5.45079e-05
0.00920855
-4.9128e-05
0.00919631
-4.3353e-05
0.00918231
-3.65376e-05
0.00916902
-2.68773e-05
0.00915987
0.00915061
6.52422e-07
0.00915649
1.78799e-06
0.00916037
2.71866e-06
0.00916428
3.76568e-06
0.00917058
4.13726e-06
0.00917889
-6.22228e-06
0.00920363
-2.19832e-05
0.00926757
9.49799e-06
0.00927238
6.50763e-06
0.0092419
-0.00462402
-0.00461797
3.08807e-06
-0.00461241
0.0046133
5.6202e-06
-0.00460861
0.00461423
-3.09255e-06
-2.53292e-06
-0.00458712
1.10461e-05
0.00459057
-1.44944e-05
-0.004044
3.10562e-05
0.00406917
-5.62263e-05
-0.00460783
5.92314e-05
0.00461175
-6.31535e-05
-0.00461755
6.29982e-05
0.00461499
-6.04372e-05
-0.00461907
5.91397e-05
0.00461624
-5.63058e-05
-9.0812e-05
0.00920808
4.97021e-05
5.21904e-05
-7.52486e-05
0.00918959
-5.89757e-05
0.00919228
-4.21031e-05
0.00917944
-2.70538e-05
0.00916726
-2.08381e-05
0.0091628
-1.91161e-05
0.00915815
0.00915154
2.24203e-07
0.00915693
2.69031e-07
0.00916032
-1.05358e-07
0.00916465
-1.36605e-07
0.00917061
-3.80634e-06
0.00918256
-2.52204e-05
0.00922505
-2.39235e-05
0.00926627
-1.16421e-06
0.00924962
-6.21294e-06
0.00924695
-6.27065e-06
0.00923929
-0.00461484
-0.00461501
-9.3792e-06
-0.00461925
0.00462347
-1.04873e-05
-0.00458928
1.80893e-05
0.00457665
-5.4507e-06
-0.00409305
2.74774e-05
0.00412311
-5.75364e-05
-0.00461588
4.16721e-05
0.00461974
-4.55363e-05
-8.80923e-05
0.00922504
-0.0046144
-0.00461228
4.32735e-05
4.64647e-05
-8.54358e-05
0.00922393
-0.00461409
-0.00461249
-7.79548e-05
0.0092006
-7.14548e-05
0.00918309
-5.72319e-05
0.00917805
-4.49428e-05
0.00916715
-3.46655e-05
0.00915698
-2.6313e-05
0.00915445
-1.44759e-05
0.00914632
0.00915817
-4.36214e-07
0.00915784
-1.46153e-06
0.00916135
-2.05554e-06
0.00916525
-2.97862e-06
0.00917154
-5.80607e-06
0.00918538
-2.19888e-05
0.00924123
-1.33881e-05
0.00925767
-4.34938e-06
0.00924058
-1.16706e-05
0.00925427
-2.08906e-05
0.00924851
-2.73011e-05
0.00926114
-0.00463056
-0.00462417
-5.06288e-05
0.00881045
-0.00452447
-0.00426266
-7.51153e-05
0.00870212
-0.004187
-0.00449063
-7.47641e-05
0.00925325
-0.00462535
-0.00462825
-7.41757e-05
0.00922445
-7.29153e-05
0.00922267
-6.76072e-05
0.00919529
-6.25597e-05
0.00917804
-5.24198e-05
0.00916791
-4.38052e-05
0.00915854
-3.76411e-05
0.00915082
-2.7613e-05
0.00914442
-1.92493e-05
0.00913795
0.00916059
-1.24077e-06
0.00915915
-2.27101e-06
0.00916238
-3.97217e-06
0.00916695
-5.59278e-06
0.00917316
-8.75882e-06
0.00918855
-1.77398e-05
0.00925021
-1.28862e-05
0.00925282
-9.5607e-06
0.00923726
-1.50019e-05
0.00925971
-2.32631e-05
0.00925677
-2.89212e-05
0.0092668
-4.3016e-05
0.00882455
-5.72791e-05
0.00871638
-6.03763e-05
0.00925634
-6.3247e-05
0.00922732
-6.27085e-05
0.00922213
-5.92568e-05
0.00919184
-5.52037e-05
0.00917399
-4.79937e-05
0.0091607
-4.11196e-05
0.00915166
-3.48761e-05
0.00914457
-2.75186e-05
0.00913706
-2.06231e-05
0.00913106
0.00916181
-2.12723e-06
0.00916083
-4.08534e-06
0.00916433
-6.2699e-06
0.00916913
-8.41731e-06
0.0091753
-1.06563e-05
0.00919079
-1.36513e-05
0.0092532
-1.30879e-05
0.00925225
-1.30808e-05
0.00923725
-1.77162e-05
0.00926434
-2.50492e-05
0.00926411
-2.87454e-05
0.00927049
-3.85731e-05
0.00883437
-4.84633e-05
0.00872627
-5.07347e-05
0.00925862
-5.45049e-05
0.00923109
-5.42962e-05
0.00922192
-5.20923e-05
0.00918963
-4.93222e-05
0.00917122
-4.40885e-05
0.00915547
-3.85848e-05
0.00914616
-3.30428e-05
0.00913903
-2.6719e-05
0.00913074
-2.07218e-05
0.00912506
0.00916278
-3.05414e-06
0.00916279
-5.35319e-06
0.00916663
-7.40164e-06
0.00917118
-9.93052e-06
0.00917783
-1.25396e-05
0.0091934
-1.33561e-05
0.00925402
-1.49366e-05
0.00925383
-1.86838e-05
0.009241
-1.94796e-05
0.00926514
-2.57051e-05
0.00927033
-2.87336e-05
0.00927352
-3.5187e-05
0.00884083
-4.17741e-05
0.00873286
-4.4152e-05
0.00926099
-4.74627e-05
0.0092344
-4.74633e-05
0.00922192
-4.61877e-05
0.00918836
-4.43981e-05
0.00916943
-3.97801e-05
0.00915085
-3.63352e-05
0.00914272
-3.07827e-05
0.00913348
-2.58411e-05
0.0091258
-2.11384e-05
0.00912036
0.00916293
-4.4978e-06
0.00916549
-6.05256e-06
0.00916819
-8.8639e-06
0.00917399
-1.11535e-05
0.00918012
-1.39744e-05
0.00919622
-1.49729e-05
0.00925502
-1.67279e-05
0.00925559
-2.03294e-05
0.0092446
-2.05054e-05
0.00926532
-2.575e-05
0.00927558
-2.8252e-05
0.00927602
-3.24666e-05
0.00884504
-3.67447e-05
0.00873713
-3.89533e-05
0.0092632
-4.18237e-05
0.00923727
-4.18909e-05
0.00922199
-4.11336e-05
0.0091876
-3.93536e-05
0.00916765
-3.65649e-05
0.00914806
-3.34353e-05
0.00913959
-2.86733e-05
0.00912872
-2.44676e-05
0.00912159
-1.99557e-05
0.00911585
0.00916368
-4.94038e-06
0.00916784
-7.68265e-06
0.00917093
-1.01638e-05
0.00917647
-1.26237e-05
0.00918258
-1.55419e-05
0.00919914
-1.61154e-05
0.00925559
-1.79712e-05
0.00925745
-2.13373e-05
0.00924797
-2.35712e-05
0.00926755
-2.56093e-05
0.00927762
-2.75245e-05
0.00927794
-3.02337e-05
0.00884775
-3.29141e-05
0.00873981
-3.48493e-05
0.00926514
-3.72629e-05
0.00923969
-3.73627e-05
0.00922209
-3.68997e-05
0.00918714
-3.55799e-05
0.00916633
-3.29049e-05
0.00914539
-3.03827e-05
0.00913706
-2.72528e-05
0.00912559
-2.36403e-05
0.00911798
-2.02083e-05
0.00911241
0.00916344
-5.88047e-06
0.0091703
-8.24119e-06
0.00917329
-1.13224e-05
0.00917955
-1.38802e-05
0.00918514
-1.63144e-05
0.00920157
-1.68929e-05
0.00925617
-1.88685e-05
0.00925942
-2.19563e-05
0.00925105
-2.49238e-05
0.00927052
-2.52182e-05
0.00927791
-2.6722e-05
0.00927944
-2.81562e-05
0.00884919
-2.99507e-05
0.00874161
-3.12732e-05
0.00926646
-3.34867e-05
0.0092419
-3.35941e-05
0.0092222
-3.34178e-05
0.00918696
-3.24639e-05
0.00916538
-3.07318e-05
0.00914365
-2.86642e-05
0.009135
-2.50403e-05
0.00912196
-2.19026e-05
0.00911484
-1.89453e-05
0.00910946
0.00916362
-6.81481e-06
0.0091728
-9.24037e-06
0.00917572
-1.1858e-05
0.00918217
-1.44581e-05
0.00918774
-1.73615e-05
0.00920447
-1.7899e-05
0.00925671
-1.94318e-05
0.00926095
-2.22822e-05
0.0092539
-2.49541e-05
0.00927319
-3.05842e-05
0.00928354
-3.01482e-05
0.00927901
-3.01821e-05
0.00884922
-3.02184e-05
0.00874165
-3.12608e-05
0.0092675
-3.26799e-05
0.00924332
-3.27183e-05
0.00922224
-3.28279e-05
0.00918707
-3.23855e-05
0.00916493
-3.19727e-05
0.00914324
-2.77483e-05
0.00913077
-2.45217e-05
0.00911874
-2.1254e-05
0.00911157
-1.81814e-05
0.00910638
0.00916364
-7.74344e-06
0.00917531
-1.01874e-05
0.00917816
-1.22961e-05
0.00918428
-1.53996e-05
0.00919084
-1.77317e-05
0.00920681
-1.87019e-05
0.00925768
-1.98519e-05
0.0092621
-2.24695e-05
0.00925652
-2.73769e-05
0.0092781
-3.21547e-05
0.00928832
-3.29447e-05
0.0092798
-3.32345e-05
0.00884951
-3.36636e-05
0.00874207
-3.4894e-05
0.00926873
-3.61862e-05
0.00924461
-3.61489e-05
0.0092222
-3.60242e-05
0.00918694
-3.47829e-05
0.00916369
-3.3598e-05
0.00914206
-3.20757e-05
0.00912925
-2.96292e-05
0.00911629
-2.76218e-05
0.00910957
-2.48433e-05
0.0091036
0.00915596
-8.66404e-06
0.00917778
-1.10895e-05
0.00918059
-1.3657e-05
0.00918685
-1.57272e-05
0.00919291
-1.79713e-05
0.00920905
-1.88561e-05
0.00925856
-2.01929e-05
0.00926344
-2.50147e-05
0.00926134
-2.92383e-05
0.00928232
-3.18607e-05
0.00929094
-3.22881e-05
0.00928023
-3.21807e-05
0.0088494
-3.21139e-05
0.00874201
-3.29934e-05
0.00926961
-3.40589e-05
0.00924568
-3.40088e-05
0.00922215
-3.38717e-05
0.00918681
-3.31384e-05
0.00916296
-3.16114e-05
0.00914053
-3.02452e-05
0.00912788
-2.85111e-05
0.00911456
-2.62004e-05
0.00910726
-2.41336e-05
0.00910154
0.00914797
-9.57425e-06
0.00918018
-1.14482e-05
0.00918246
-1.39441e-05
0.00918934
-1.59664e-05
0.00919494
-1.86123e-05
0.0092117
-1.94096e-05
0.00925936
-2.28105e-05
0.00926684
-2.75002e-05
0.00926603
-2.93294e-05
0.00928415
-3.15382e-05
0.00929315
-3.18589e-05
0.00928055
-3.13488e-05
0.00884889
-3.08513e-05
0.00874151
-3.15734e-05
0.00927033
-3.24112e-05
0.00924651
-3.22911e-05
0.00922203
-3.21139e-05
0.00918663
-3.13561e-05
0.0091622
-3.0422e-05
0.0091396
-2.86556e-05
0.00912612
-2.65787e-05
0.00911248
-2.53855e-05
0.00910606
-2.29731e-05
0.00909913
0.00914009
-9.96497e-06
0.00918196
-1.277e-05
0.00918526
-1.467e-05
0.00919124
-1.71357e-05
0.0091974
-1.86743e-05
0.00921323
-2.24047e-05
0.00926309
-2.61269e-05
0.00927056
-2.77499e-05
0.00926766
-2.94348e-05
0.00928583
-3.14084e-05
0.00929512
-3.14674e-05
0.0092806
-3.07284e-05
0.00884815
-2.98388e-05
0.00874062
-3.03743e-05
0.00927087
-3.11235e-05
0.00924726
-3.08755e-05
0.00922178
-3.06959e-05
0.00918645
-2.98828e-05
0.00916139
-2.90072e-05
0.00913872
-2.72905e-05
0.0091244
-2.58119e-05
0.009111
-2.36925e-05
0.00910394
-2.18687e-05
0.0090973
0.00913226
-1.133e-05
0.0091841
-1.30399e-05
0.00918697
-1.48309e-05
0.00919304
-1.72341e-05
0.0091998
-2.21945e-05
0.0092182
-2.83662e-05
0.00926926
-2.64414e-05
0.00926864
-2.79491e-05
0.00926916
-2.94758e-05
0.00928736
-3.13319e-05
0.00929698
-3.13219e-05
0.00928059
-3.03117e-05
0.00884714
-2.91985e-05
0.00873951
-2.95666e-05
0.00927124
-3.00503e-05
0.00924775
-2.98181e-05
0.00922155
-2.95818e-05
0.00918621
-2.86876e-05
0.00916049
-2.73431e-05
0.00913738
-2.66307e-05
0.00912369
-2.47173e-05
0.00910909
-2.31136e-05
0.00910234
-2.13332e-05
0.00909552
0.00912392
-1.16425e-05
0.00918558
-1.3756e-05
0.00918909
-1.59228e-05
0.0091952
-1.72649e-05
0.00920115
-3.21876e-05
0.00923312
-2.82443e-05
0.00926532
-2.67787e-05
0.00926717
-2.82186e-05
0.0092706
-2.96685e-05
0.00928881
-3.13719e-05
0.00929868
-3.12863e-05
0.00928051
-3.00958e-05
0.00884595
-2.87225e-05
0.00873813
-2.89724e-05
0.00927149
-2.93655e-05
0.00924814
-2.89789e-05
0.00922116
-2.86871e-05
0.00918592
-2.77384e-05
0.00915955
-2.69067e-05
0.00913654
-2.5175e-05
0.00912196
-2.42929e-05
0.00910821
-2.21663e-05
0.00910021
-2.03923e-05
0.00909375
0.00911551
-1.28814e-05
0.00918735
-1.38964e-05
0.0091901
-1.59231e-05
0.00919723
-2.62893e-05
0.00921151
-3.30455e-05
0.00923987
-2.90947e-05
0.00926137
-2.70288e-05
0.00926511
-2.84622e-05
0.00927204
-2.98571e-05
0.00929021
-3.15472e-05
0.00930037
-3.13858e-05
0.00928035
-3.00906e-05
0.00884466
-2.86126e-05
0.00873666
-2.86235e-05
0.0092715
-2.88906e-05
0.00924841
-2.84252e-05
0.0092207
-2.80957e-05
0.00918559
-2.70083e-05
0.00915846
-2.62006e-05
0.00913574
-2.49037e-05
0.00912066
-2.3059e-05
0.00910636
-2.13625e-05
0.00909852
-1.90771e-05
0.00909146
0.00910748
-1.30026e-05
0.00918839
-1.49504e-05
0.00919205
-1.63167e-05
0.0091986
-2.92095e-05
0.00922441
-3.23048e-05
0.00924297
-2.89051e-05
0.00925797
-2.72799e-05
0.00926348
-2.87318e-05
0.00927349
-3.00806e-05
0.00929155
-3.18553e-05
0.00930215
-3.17901e-05
0.00928028
-3.03138e-05
0.00884318
-2.87458e-05
0.00873509
-2.85057e-05
0.00927126
-2.86613e-05
0.00924856
-2.80181e-05
0.00922005
-2.76884e-05
0.00918526
-2.64681e-05
0.00915724
-2.57159e-05
0.00913498
-2.43138e-05
0.00911926
-2.3015e-05
0.00910506
-2.07143e-05
0.00909622
-1.89058e-05
0.00908965
0.00909879
-1.34207e-05
0.00918915
-1.48818e-05
0.00919351
-1.60276e-05
0.00919974
-2.60327e-05
0.00923441
-3.09068e-05
0.00924784
-2.97181e-05
0.00925678
-2.73648e-05
0.00926113
-2.91001e-05
0.00927522
-3.03391e-05
0.00929279
-3.24002e-05
0.00930421
-3.25157e-05
0.0092804
-3.08304e-05
0.0088415
-2.92201e-05
0.00873348
-2.86213e-05
0.00927066
-2.87233e-05
0.00924866
-2.77358e-05
0.00921907
-2.75964e-05
0.00918512
-2.65746e-05
0.00915622
-2.54996e-05
0.00913391
-2.38912e-05
0.00911765
-2.22348e-05
0.00910341
-2.07428e-05
0.00909472
-1.8481e-05
0.00908739
0.00908986
-1.41832e-05
-1.56922e-05
-1.61235e-05
-2.126e-05
-2.38861e-05
-2.99846e-05
-2.74462e-05
-2.93864e-05
-3.04217e-05
-3.28805e-05
-3.33589e-05
-3.15953e-05
-3.01252e-05
-2.89161e-05
-2.88352e-05
-2.75809e-05
-2.75931e-05
-2.58151e-05
-2.54367e-05
-2.36135e-05
-2.26108e-05
-1.99419e-05
-1.87328e-05
9.71462e-05
-0.000106929
-0.00122089
0.00127998
0.000132351
-0.00126615
-7.19239e-05
-7.42509e-05
-0.0011474
-0.000160713
0.00116291
2.95126e-05
-3.096e-05
-0.00126972
0.00133686
3.88841e-05
-0.00133466
-1.92088e-05
-2.18752e-05
0.00129208
-6.65318e-05
-6.86122e-05
-3.64501e-05
4.17904e-05
-0.00125568
0.00130745
-5.65133e-05
-0.00131475
3.2895e-05
3.09237e-05
0.00133764
-1.19547e-05
-1.45898e-05
-6.71508e-05
7.40306e-05
-0.00120351
0.0012346
-0.000102165
-0.00124426
0.000111827
0.00129952
3.75219e-05
3.57531e-05
-6.24415e-05
6.76062e-05
-0.00115298
0.00116174
-9.86896e-05
-0.00117017
0.000107126
0.000113668
0.00122447
3.65055e-05
-5.12535e-05
-0.00113511
-5.98383e-06
0.000357533
-4.08786e-06
-0.000183238
-0.000164224
-2.15288e-05
-0.00012275
-0.000158581
0.00112169
-5.25423e-05
-0.00112067
5.15262e-05
0.000102462
0.00115486
0.000100483
-0.000111109
-0.00111689
-0.00104917
1.4249e-06
0.00103671
0.000134403
-0.0011342
-0.000147595
-0.00111053
-5.26084e-05
0.00111619
9.62743e-05
-0.000114878
-0.00237653
0.00122553
-0.00121682
8.84305e-05
-0.0011391
9.58278e-05
0.00114988
0.000308448
0.00012496
-0.000608876
0.000309697
-6.63618e-05
-6.78669e-05
0.000112493
-0.000535839
-0.000122101
0.000545446
0.000120042
-0.00126118
0.00246415
0.000130188
-0.00243971
-0.000154622
-0.00236028
-0.000174027
0.00238633
4.23159e-05
-4.78586e-05
-0.00243234
0.00126342
-0.001262
2.80881e-05
8.16715e-05
0.0012336
0.00125913
6.56368e-05
-7.10969e-05
-0.00125367
0.000644358
-2.2425e-05
-0.000642725
4.20802e-05
-2.12881e-05
-0.000630339
-6.57353e-05
6.31523e-05
0.000632922
0.000327859
9.93668e-06
-0.000336335
-1.4609e-06
-0.0003301
5.17051e-05
-5.67928e-05
0.000335188
3.65062e-05
-0.00132401
0.00252259
5.19648e-05
-0.0025152
-5.93561e-05
-0.000135879
0.00248573
-2.01183e-05
2.7556e-05
-0.00243431
0.00124608
-0.00125078
-3.17461e-05
1.93667e-05
0.00126427
0.00126772
-6.46949e-06
8.62871e-06
-0.00126988
0.000659463
8.74737e-06
-0.000660836
-1.03856e-05
3.01216e-06
-0.000658394
-7.32305e-06
1.23677e-05
0.000658174
-4.82536e-06
0.000304192
3.86233e-07
-0.000303828
-7.50279e-07
-0.00030628
5.3774e-07
0.000306633
-8.90661e-07
-4.97554e-05
-0.00130866
0.00250554
-3.81748e-05
-0.00251609
4.87247e-05
-3.07856e-05
0.0025252
-5.98729e-05
7.27997e-05
-0.00239386
0.00119747
-0.00120387
-6.07445e-05
-3.76152e-05
0.00124098
0.0012246
-5.73404e-05
6.43307e-05
-0.00123159
4.69588e-05
0.000616696
-0.00061949
-4.41639e-05
-0.000637969
1.80365e-05
-3.33332e-05
0.000634593
1.86724e-05
0.000330999
-4.16104e-05
-0.000339308
4.99194e-05
-0.000315721
-8.90193e-06
1.67307e-06
0.00032295
-9.27893e-05
-0.00124402
0.00243935
-9.53975e-05
-0.00245834
0.000114391
7.08464e-05
0.00249218
0.00057545
-7.36259e-05
-0.000577691
3.82487e-05
3.7618e-05
-0.000300711
-3.69434e-05
3.77091e-05
0.000299946
-9.09696e-05
-0.0011757
0.00236589
-0.000107397
-0.00238306
0.000124564
0.000122899
0.00242047
0.000534403
-5.43677e-05
-0.000536507
5.64716e-05
-0.000554045
-6.67656e-05
6.93619e-05
0.000551449
-2.03175e-05
1.28833e-05
-0.00225451
-1.33449e-05
0.000899607
-0.000881168
-5.09353e-06
-1.77555e-06
0.000365031
-3.57589e-05
-0.000830044
-6.71489e-05
0.00228954
-0.0022986
7.62027e-05
3.01916e-05
0.00112591
-6.70971e-05
-0.000628873
6.56306e-05
-9.0421e-05
-0.000599094
8.48622e-05
0.000604653
-0.00118486
0.000112466
0.00119769
-0.000125297
-0.000600233
0.000606622
-4.87779e-05
-4.8032e-05
0.000631349
-0.000632654
-3.31732e-05
-3.2619e-05
8.70276e-05
-0.000537876
0.000545149
-9.43008e-05
9.25272e-05
-9.82799e-05
-0.00059448
4.60054e-05
-0.000332192
-4.39137e-05
6.22662e-05
-6.40974e-05
0.000310279
-0.00121802
0.000152465
-0.000169486
0.00123504
-0.000614551
-6.15021e-05
0.00062232
0.000116
0.000331571
4.60616e-05
-0.000331628
-6.10297e-06
-0.000658758
1.54127e-05
-8.94554e-06
-2.26655e-05
4.07368e-05
0.000649883
-2.35961e-05
5.67172e-05
0.00126371
-6.12924e-05
-0.000320546
0.000323317
-2.54365e-05
0.000335522
-6.62395e-06
-0.000335001
0.000317658
0.000317903
-3.37101e-05
-3.62366e-05
-2.29054e-05
-0.000320066
-1.16953e-06
-0.000308102
2.99184e-06
1.62837e-05
-5.92568e-06
0.000317501
-0.00131935
7.73296e-05
0.00132588
-4.06715e-05
-4.31823e-05
-0.000331721
0.000325197
2.28078e-05
0.000336035
1.65113e-06
-0.000338856
0.00033534
4.79364e-05
1.75455e-05
-0.00033933
8.96833e-05
-0.00131173
-4.73961e-05
-4.99093e-05
1.81187e-05
-0.000641079
-3.10684e-05
1.60594e-05
7.91695e-06
-1.51281e-05
0.000653603
1.30705e-05
-1.45543e-05
0.00126433
1.79363e-05
-0.000341116
0.000337104
1.19288e-05
0.000321967
1.97944e-05
-0.000323643
0.000334406
-6.20702e-06
8.04806e-06
-0.000340416
-1.52982e-05
-0.000307015
6.59272e-06
-3.6269e-07
0.000304233
3.21744e-07
-0.00133145
-2.47609e-05
0.00132685
1.57888e-05
1.35712e-05
-0.00033416
0.000335724
-1.92678e-06
0.000321294
-2.06392e-05
-0.000315953
0.000334574
1.9989e-06
-1.41391e-06
-0.00033236
-1.27793e-05
-0.00133483
9.23204e-06
6.93032e-06
-0.000614426
-4.75996e-05
0.000612468
2.399e-05
2.55673e-05
0.000592909
-4.94755e-05
5.12814e-05
-0.000594715
0.000319376
2.0628e-05
-0.000616726
2.46958e-05
2.45626e-05
-3.83898e-05
-0.000302491
4.01701e-05
-4.53787e-05
5.75931e-05
0.000318785
-0.00127279
-9.11397e-05
0.00126327
5.06405e-05
5.0019e-05
-0.000327966
0.000320956
-3.83686e-05
0.000606483
3.79274e-05
-7.1428e-05
-0.000611372
0.000327657
-1.52647e-05
-3.66717e-05
-0.000332905
-8.61708e-05
-0.00128207
4.82935e-05
4.71578e-05
-0.000576587
-4.77104e-05
0.000574571
4.97264e-05
0.000562317
-4.24846e-05
4.39663e-05
-0.000563799
-4.95961e-05
0.000591886
5.06196e-05
-4.81119e-05
5.03392e-05
-0.000578814
-6.74323e-05
-0.000557027