/*--------------------------------*- C++ -*----------------------------------*\
| =========                 |                                                 |
| \\      /  F ield         | OpenFOAM: The Open Source CFD Toolbox           |
|  \\    /   O peration     | Version:  5.x                                   |
|   \\  /    A nd           | Web:      www.OpenFOAM.org                      |
|    \\/     M anipulation  |                                                 |
\*---------------------------------------------------------------------------*/
FoamFile
{
    version     2.0;
    format      ascii;
    class       volScalarField;
    location    "300";
    object      pSat;
}
// * * * * * * * * * * * * * * * * * * * * * * * * * * * * * * * * * * * * * //

dimensions      [0 2 -2 0 0 0 0];

internalField   nonuniform List<scalar> 
6584
(
697.948
697.948
697.948
697.948
697.948
697.948
697.948
697.948
697.948
697.948
697.948
697.948
697.948
697.948
697.948
697.948
697.948
697.948
697.948
697.948
697.948
697.948
697.948
697.948
697.948
697.948
697.948
697.948
697.948
697.948
697.948
697.948
697.948
697.948
697.948
697.948
697.948
697.948
697.948
697.948
697.948
697.948
697.948
697.948
697.948
697.948
697.948
697.948
697.948
697.948
697.948
697.948
697.948
697.948
697.948
697.948
697.948
697.948
697.948
697.948
697.948
697.948
697.948
697.948
697.948
697.948
697.948
697.948
697.948
697.948
697.948
697.948
697.948
697.948
697.948
697.948
697.948
697.948
697.948
697.948
697.948
697.948
697.948
697.948
697.948
697.948
697.948
697.948
697.948
697.948
697.948
697.948
697.948
697.948
697.948
697.948
697.948
697.948
697.948
697.948
697.948
697.948
697.948
697.948
697.948
697.948
697.948
697.948
697.948
697.948
697.948
697.948
697.948
697.948
697.948
697.948
697.948
697.948
697.948
697.948
697.948
697.948
697.948
697.948
697.948
697.948
697.948
697.948
697.948
697.948
697.948
697.948
697.948
697.948
697.948
697.948
697.948
697.948
697.948
697.948
697.948
697.948
697.948
697.948
697.948
697.948
697.948
697.948
697.948
697.948
697.948
697.948
697.948
697.948
697.948
697.948
697.948
697.948
697.948
697.948
697.948
697.948
697.948
697.948
697.948
697.948
697.948
697.948
697.948
697.948
697.948
697.948
697.948
697.948
697.948
697.948
697.948
697.948
697.948
697.948
697.948
697.948
697.948
697.948
697.948
697.948
697.948
697.948
697.948
697.948
697.948
697.948
697.948
697.948
697.948
697.948
697.948
697.948
697.948
697.948
697.948
697.948
697.948
697.948
697.948
697.948
697.948
697.948
697.948
697.948
697.948
697.948
697.948
697.948
697.948
697.948
697.948
697.948
697.948
697.948
697.948
697.948
697.948
697.948
697.948
697.948
697.948
697.948
697.948
697.948
697.948
697.948
697.948
697.948
697.948
697.948
697.948
697.948
697.948
697.948
697.948
697.948
697.948
697.948
697.948
697.948
697.948
697.948
697.948
697.948
697.948
697.948
697.948
697.948
697.948
697.948
697.948
697.948
697.948
697.948
697.948
697.948
697.948
697.948
697.948
697.948
697.948
697.948
697.948
697.948
697.948
697.948
697.948
697.948
697.948
697.948
697.948
697.948
697.948
697.948
697.948
697.948
697.948
697.948
697.948
697.948
697.948
697.948
697.948
697.948
697.948
697.948
697.948
697.948
697.948
697.948
697.948
697.948
697.948
697.948
697.948
697.948
697.948
697.948
697.948
697.948
697.948
697.948
697.948
697.948
697.948
697.948
697.948
697.948
697.948
697.948
697.948
697.948
589.523
697.948
697.948
697.948
697.948
697.948
697.948
697.948
697.948
697.948
697.948
697.948
697.948
697.948
697.948
697.948
697.948
697.948
697.948
697.948
697.948
697.948
697.948
697.948
666.032
697.948
697.948
697.948
697.948
697.948
697.948
697.948
697.948
697.948
697.948
697.948
697.948
697.948
697.948
697.948
697.948
697.948
697.948
697.948
697.948
697.948
697.948
697.948
668.559
697.948
697.948
697.948
697.948
697.948
697.948
697.948
697.948
697.948
697.948
697.948
697.948
697.948
697.948
697.948
697.948
697.948
697.948
697.948
697.948
697.948
697.948
697.72
683.975
697.948
697.948
697.948
697.948
697.948
697.948
697.948
697.948
697.948
697.948
697.948
697.948
697.948
697.948
697.948
697.948
697.948
697.948
697.948
697.948
697.948
697.948
697.603
684.354
697.948
697.948
697.948
697.948
697.948
697.948
697.948
697.948
697.948
697.948
697.948
697.948
697.948
697.948
697.948
697.948
697.948
697.948
697.948
697.948
697.948
697.907
685.366
691.544
697.948
697.948
697.948
697.948
697.948
697.948
697.948
697.948
697.948
697.948
697.948
697.948
697.948
697.948
697.948
697.948
697.948
697.948
697.948
697.948
697.948
697.866
685.417
691.588
697.947
697.948
697.948
697.948
697.948
697.948
697.948
697.948
697.948
697.948
697.948
697.948
697.948
697.948
697.948
697.948
697.948
697.948
697.948
697.948
697.948
697.826
685.466
691.625
697.946
697.948
697.948
697.948
697.948
697.948
697.948
697.948
697.948
697.948
697.948
697.948
697.948
697.948
697.948
697.948
697.948
697.948
697.948
697.948
697.947
697.786
685.512
691.657
697.945
697.948
697.948
697.948
697.948
697.948
697.948
697.948
697.948
697.948
697.948
697.948
697.948
697.948
697.948
697.948
697.948
697.948
697.948
697.948
697.947
697.747
685.557
691.686
697.944
697.948
697.948
697.948
697.948
697.948
697.948
697.948
697.948
697.948
697.948
697.948
697.948
697.948
697.948
697.948
697.948
697.948
697.948
697.948
697.946
697.709
685.6
691.712
697.944
697.948
697.948
697.948
697.948
697.948
697.948
697.948
697.948
697.948
697.948
697.948
697.948
697.948
697.948
697.948
697.948
697.948
697.948
697.948
697.945
697.673
685.641
691.735
697.943
697.948
697.948
697.948
697.948
697.948
697.948
697.948
697.948
697.948
697.948
697.948
697.948
697.948
697.948
697.948
697.948
697.948
697.948
697.948
697.944
697.632
685.684
691.759
697.942
697.948
697.948
697.948
697.948
697.948
697.948
697.948
697.948
697.948
697.948
697.948
697.948
697.948
697.948
697.948
697.948
697.948
697.948
697.948
697.943
697.588
685.729
691.785
697.941
697.948
697.948
697.948
697.948
697.948
697.948
697.948
697.948
697.948
697.948
697.948
697.948
697.948
697.948
697.948
697.948
697.948
697.948
697.948
697.942
697.546
685.774
691.811
697.941
697.948
697.948
697.948
697.948
697.948
697.948
697.948
697.948
697.948
697.948
697.948
697.948
697.948
697.948
697.948
697.948
697.948
697.948
697.948
697.94
697.504
685.818
691.835
697.94
697.948
697.948
697.948
697.948
697.948
697.948
697.948
697.948
697.948
697.948
697.948
697.948
697.948
697.948
697.948
697.948
697.948
697.948
697.948
697.938
697.463
685.861
691.858
697.939
697.948
697.948
697.948
697.948
697.948
697.948
697.948
697.948
697.948
697.948
697.948
697.948
697.948
697.948
697.948
697.948
697.948
697.948
697.948
697.936
697.422
685.904
691.881
697.938
697.948
697.948
697.948
697.948
697.948
697.948
697.948
697.948
697.948
697.948
697.948
697.948
697.948
697.948
697.948
697.948
697.948
697.948
697.948
697.935
697.382
685.947
691.904
697.938
697.948
697.948
697.948
697.948
697.948
697.948
697.948
697.948
697.948
697.948
697.948
697.948
697.948
697.948
697.948
697.948
697.948
697.948
697.948
697.932
697.342
685.991
691.926
697.937
697.948
697.948
697.948
697.948
697.948
697.948
697.948
697.948
697.948
697.948
697.948
697.948
697.948
697.948
697.948
697.948
697.948
697.948
697.948
697.93
697.302
686.034
691.949
697.936
697.948
697.948
697.948
697.948
697.948
697.948
697.948
697.948
697.948
697.948
697.948
697.948
697.948
697.948
697.948
697.948
697.948
697.948
697.948
697.928
697.262
686.078
691.972
697.936
697.948
697.948
697.948
697.948
697.948
697.948
697.948
697.948
697.948
697.948
697.948
697.948
697.948
697.948
697.948
697.948
697.948
697.948
697.948
697.925
697.22
686.122
691.996
697.935
697.948
697.948
697.948
697.948
697.948
697.948
697.948
697.948
697.948
697.948
697.948
697.948
697.948
697.948
697.948
697.948
697.948
697.948
697.948
697.948
697.948
697.948
697.948
697.948
697.948
697.948
593.461
585.906
697.948
697.948
697.948
697.948
697.948
697.948
697.948
697.948
697.948
697.948
697.948
697.948
697.948
697.948
697.948
697.948
697.948
697.948
697.814
697.922
697.469
697.884
697.948
697.948
697.948
697.948
697.948
697.948
697.948
697.42
697.476
692.006
695.067
697.948
697.948
697.948
697.948
697.948
697.948
697.948
697.635
697.526
696.178
693.44
697.948
697.948
697.948
697.589
697.506
697.948
697.948
697.948
697.851
697.784
697.948
619.605
593.79
642.034
697.948
697.948
697.931
697.948
697.948
697.947
697.874
697.948
697.948
697.897
697.948
697.948
697.948
697.93
697.504
697.781
697.948
697.379
696.143
697.84
697.441
695.281
697.449
697.948
697.695
697.164
697.924
697.707
697.948
697.51
697.427
697.948
695.927
696.587
696.092
695.895
693.338
691.85
697.948
696.915
697.117
697.154
696.928
697.948
696.497
697.006
696.635
696.407
697.47
696.339
697.948
697.556
697.805
697.13
697.53
697.948
697.402
697.58
697.061
697.368
697.77
697.621
697.816
697.872
697.948
697.716
697.578
697.601
697.705
697.881
697.858
697.948
697.948
697.948
697.935
697.948
697.948
697.948
697.948
697.948
697.815
697.753
689.943
685.995
697.948
697.948
697.948
697.948
697.938
697.948
697.948
697.948
697.742
697.65
697.948
603.859
617.965
665.601
674.067
618.692
635.186
685.247
678.397
697.948
697.877
697.906
675.069
680.241
697.909
697.924
697.948
697.948
697.948
697.948
697.948
697.948
697.948
697.928
697.948
697.939
697.948
697.942
697.948
697.621
697.726
693.892
694.027
695.221
694.904
697.476
678.373
697.679
693.096
690.398
690.75
693.204
697.819
696.049
697.939
692.329
697.302
691.231
697.931
697.442
697.938
697.948
697.908
696.57
697.937
697.94
696.668
696.591
697.734
697.705
696.191
696.304
697.205
697.942
697.945
697.94
697.942
697.201
697.846
697.947
697.948
697.945
697.947
697.81
696.242
696.281
695.852
695.834
689.701
690.024
696.771
697.939
697.939
697.94
697.94
696.767
697.086
697.939
697.939
697.939
697.939
697.076
604.399
696.744
618.176
595.805
639.341
619.709
696.815
696.011
596.064
696.11
697.118
697.04
697.316
697.942
697.941
697.943
697.942
697.358
652.884
663.791
697.21
655.607
640.755
668.353
657.277
697.253
636.863
651.231
697.718
686.14
690.286
679.187
685.324
697.698
676.745
680.13
682.031
609.071
680.845
679.38
612.481
693.214
693.353
697.946
697.948
697.948
697.948
697.948
697.903
697.896
634.893
697.603
697.789
697.947
697.86
697.822
697.948
604.745
607.861
580.532
679.921
679.93
611.088
616.781
692.253
693.165
539.569
697.948
697.948
697.948
697.948
697.948
697.948
697.876
697.947
697.946
697.485
697.302
697.816
697.417
697.94
697.941
697.941
697.94
697.424
692.95
694.676
695.771
693.691
666.312
661.007
697.828
693.47
695.242
697.149
697.176
617.253
697.948
697.945
697.948
697.915
697.577
697.374
697.947
697.948
697.948
697.948
697.948
697.945
697.61
697.943
697.942
697.946
697.944
697.649
697.064
682.625
691.533
676.638
678.054
696.318
692.408
693.313
697.571
695.648
696.705
697.413
697.902
697.906
697.868
697.874
697.18
697.941
697.941
697.457
696.08
673.196
667.962
695.963
674.548
676.24
667.003
667.964
695.829
691.874
690.759
696.825
697.865
697.861
697.852
697.882
696.982
697.13
697.861
697.866
697.86
697.859
697.005
697.341
690.162
691.75
687.96
687.116
696.682
697.755
697.944
697.943
697.945
697.944
697.769
697.489
677.135
669.62
684.744
682.497
697.514
636.079
639.676
697.653
687.19
685.427
631.517
634.977
672.956
667.728
697.946
697.947
697.948
660.296
688.467
662.718
665.765
664.436
687.958
697.948
697.942
697.948
697.926
697.947
606.492
610.715
605.812
604.984
669.695
616.662
613.539
623.404
617.56
670.788
622.789
625.994
682.674
681.516
677.623
632.36
626.454
617.402
620.601
697.907
697.945
697.948
697.933
697.944
697.892
697.494
697.803
693.098
694.538
695.672
693.859
679.869
692.542
691.401
693.756
692.904
679.586
688.82
687.762
691.047
689.421
692.136
674.189
677.638
668.081
672.514
691.737
658.198
659.355
694.778
697.778
697.618
697.919
697.824
695.414
696.538
696.175
697.488
696.696
697.853
697.945
697.929
697.79
697.668
697.826
697.618
697.921
697.674
697.879
697.926
697.715
697.858
697.946
697.906
697.84
679.897
681.331
696.944
667.052
660.686
683.98
668.355
651.585
645.779
658.742
654.127
696.384
678.556
679.547
691.249
689.577
695.982
692.694
687.684
685.892
689.294
688.141
697.608
693.516
694.079
695.772
696.643
697.887
697.898
697.297
697.187
697.876
697.884
674.826
674.128
696.126
638.158
638.494
614.381
635.157
636.95
644.971
638.048
636.89
672.032
673.984
695.928
636.51
630.535
644.416
638.337
619.27
613.337
628.211
622.068
695.831
668.944
671.249
690.867
690.484
697.871
697.866
696.806
696.897
697.88
697.873
697.858
697.86
697.121
697.018
697.858
697.858
603.919
607.581
679.937
683.028
675.457
678.784
601.581
631.744
686.824
682.312
683.844
686.135
627.775
658.123
661.077
649.474
657.063
597.773
670.53
674.435
662.452
668.565
596.801
688.783
689.773
697.293
684.794
686.66
687.268
684.717
686.621
696.768
686.545
687.953
657.255
599.115
599.882
611.327
600.481
658.837
605.815
641.952
600.441
644.352
682.373
694.738
694.021
695.613
694.981
682.9
674.11
675.072
641.234
644.982
622.979
630.099
676.728
674.193
697.948
697.948
697.948
697.948
697.934
697.935
697.948
697.948
697.948
697.948
697.948
697.948
697.948
697.948
697.948
697.948
697.948
697.891
697.475
696.731
696.634
692.253
694.933
697.942
697.943
697.572
690.035
689.507
693.513
692.104
692.926
697.592
697.945
697.948
697.948
697.174
697.404
697.898
697.939
697.918
697.946
697.824
695.948
697.068
695.403
696.532
696.4
697.383
697.575
697.578
697.17
697.914
697.919
697.728
697.468
697.941
697.942
677.944
675.618
696.444
693.148
690.718
690.538
691.693
696.901
697.556
697.555
697.146
697.569
697.572
697.554
697.554
696.949
695.819
681.486
679.071
697.168
697.86
697.856
697.844
697.946
697.945
606.292
606.7
689.091
687.718
697.668
605.621
605.932
695.417
695.825
697.874
697.938
697.93
603.583
603.407
604.976
616.885
619.458
599.852
601.657
612.458
610.204
632.881
673.237
672.244
679.44
637.347
633.436
678.327
697.948
697.948
697.948
697.906
697.926
697.94
697.944
697.869
697.884
697.948
697.948
697.948
697.212
697.164
697.548
697.771
697.59
697.496
693.51
694.162
691.312
691.703
695.43
694.511
689.645
690.522
681.068
681.24
685.461
684.874
678.369
681.641
682.082
697.616
693.255
694.161
695.581
693.528
696.391
696.058
697.7
697.57
696.997
687.31
685.908
695.195
692.723
689.209
697.948
697.947
697.895
697.876
697.74
697.808
696.977
697.768
697.831
694.265
695.291
697.807
684.085
682.413
696.078
696.414
697.936
697.939
697.886
697.737
697.924
697.93
696.402
675.302
674.839
689.68
690.186
697.557
697.558
697.097
697.052
697.555
697.556
604.86
616.319
641.179
643.273
619.384
621.623
595.794
683.426
681.99
695.914
590.165
588.259
601.407
601.909
596.659
615.957
617.677
587.443
589.279
697.869
697.864
697.19
697.437
697.878
697.873
648.436
685.153
686.034
683.279
684.219
645.92
688.034
695.238
695.787
695.692
695.477
688.675
680.498
687.028
686.223
674.956
673.599
676.857
613.613
615.247
616.2
604.795
682.481
645.1
639.302
650.378
646.566
678.578
658.732
659.157
678.581
681.548
693.993
697.946
697.946
697.941
604.814
605.641
641.019
640.936
577.32
614.245
608.095
608.208
605.949
607.187
615.893
541.166
675.592
676.688
697.948
697.948
697.948
696.917
696.825
697.48
697.121
697.442
697.658
697.348
697.403
692.638
694.803
687.629
688.197
688.232
687.603
693.588
689.117
688.875
665.098
657.142
657.064
658.189
658.012
663.584
697.528
697.761
697.771
697.728
697.752
697.472
695.524
697.196
696.278
695.97
697.175
697.581
697.585
690.682
690.803
692.746
691.151
697.559
697.557
696.859
697.565
697.566
697.138
696.981
697.553
697.553
688.045
689.988
689.152
690.69
690.426
687.883
607.196
608.026
605.483
605.434
632.721
616.452
615.369
659.44
659.323
671.348
661.523
663.657
657.683
659.32
669.496
697.942
697.94
697.944
697.937
697.946
697.948
697.948
697.944
697.946
697.943
662.14
675.763
674.878
678.233
676.949
663.226
667.668
671.654
669.907
674.169
673.26
666.337
697.945
697.947
697.946
697.888
697.841
697.937
697.929
603.917
614.797
606.065
606.032
605.577
605.284
630.538
632.238
614.87
598.425
598.363
620.66
600.846
599.756
600.833
629.664
605.746
601.079
674.328
675.967
683.692
670.229
670.632
669.13
669.414
680.398
671.876
672.612
618.048
603.327
604.613
602.571
602.412
619.001
697.931
697.935
697.917
697.85
697.894
697.925
696.785
697.512
697.096
697.007
697.187
697.26
697.016
697.107
693.251
694.304
688.829
689.026
688.407
688.628
695.567
691.91
692.054
688.832
689.117
694.134
689.023
682.654
681.471
678.939
684.383
683.752
688.381
682.59
682.446
684.367
683.349
688.071
690.627
685.393
686.013
683.117
684.305
690.068
682.206
669.543
680.289
679.375
657.2
657.869
694.479
696.667
696.53
694.155
695.958
697.211
696.885
689.59
688.387
693.902
694.162
696.305
692.119
690.877
697.367
697.542
697.836
697.653
697.144
696.411
697.099
697.793
697.873
697.89
697.79
697.825
697.647
697.429
697.625
697.893
697.83
697.795
697.898
697.845
697.908
697.748
697.761
697.673
697.784
665.416
662.906
679.54
659.79
661.999
655.19
669.524
649.36
647.429
657.065
655.657
690.385
682.293
684.174
678.584
680.365
689.906
695.609
692.58
693.466
685.265
690.471
694.7
680.865
677.871
687.22
667.315
669.035
664.439
665.851
686.7
689.007
675.665
677.02
670.998
673.213
688.592
695.963
696.555
639.108
616.18
619.324
609.815
612.834
638.927
619.776
620.905
620.733
627.935
638.22
594.023
596.74
599.854
594.589
640.884
637.623
604.621
607.087
599.865
602.42
637.224
635.001
633.225
642.982
640.489
616.8
614.599
626.233
624.585
690.13
690.328
697.107
697.56
697.562
697.554
697.554
697.031
604.917
634.205
638.292
613.233
597.228
624.908
629.382
594.744
592.322
659.041
621.992
621.516
653.187
615.668
608.086
620.836
619.228
655.584
600.452
597.447
609.833
613.711
597.367
594.477
602.443
689.224
693.116
692.793
693.591
693.361
689.499
685.42
686.293
686.346
684.734
684.714
685.344
686.479
691.313
690.948
692.342
691.81
687.057
598.998
614.1
615.643
611.865
612.953
599.354
607.436
624.947
628.179
618.001
621.287
603.575
605.182
595.987
596.469
598.26
596.943
600.779
608.116
610.463
599.301
603.768
600.227
688.245
687.721
681.695
673.971
676.186
609.743
612.484
625.722
608.334
604.65
614.04
611.969
628.22
605.596
605.629
658.838
658.757
697.948
697.948
697.948
697.948
697.948
697.948
697.948
697.948
697.948
697.948
697.948
697.948
697.948
697.948
697.948
697.948
697.948
697.948
697.948
697.948
697.948
697.948
697.948
697.948
697.948
697.948
697.948
697.948
697.948
697.948
697.948
697.948
697.948
697.948
697.948
697.948
697.948
697.948
697.948
697.948
697.948
697.948
697.948
697.948
697.948
697.948
697.948
697.948
697.948
697.948
697.948
697.948
697.948
697.948
697.948
697.948
697.948
697.948
697.948
697.948
697.948
697.948
697.948
697.948
697.948
697.948
697.948
697.948
697.948
697.948
697.948
697.948
697.948
697.948
697.948
697.948
697.948
697.948
697.948
697.948
697.948
697.948
697.948
697.948
697.948
697.947
697.947
697.948
697.948
697.948
697.948
697.948
697.948
697.948
697.948
697.948
697.948
697.948
697.948
697.948
697.948
697.947
697.948
697.948
697.948
697.948
697.948
697.948
697.948
697.948
697.948
697.948
697.948
697.948
697.948
697.948
697.948
697.948
697.948
697.948
697.948
697.948
697.948
697.948
697.948
697.948
697.948
697.948
697.948
697.948
697.948
697.948
697.948
697.948
697.948
697.948
697.882
697.88
600.659
690.299
690.834
697.948
697.948
697.948
697.948
697.948
697.948
697.948
697.948
697.948
697.948
697.948
697.948
697.948
647.473
646.466
667.965
697.948
697.948
697.948
697.948
697.948
697.948
697.948
697.948
697.948
697.948
697.948
697.809
671.789
647.776
683.78
697.937
697.948
697.948
697.948
697.948
697.948
697.948
697.948
697.948
697.948
697.948
697.948
697.948
697.948
697.948
697.948
697.948
697.948
697.946
697.946
697.948
697.948
697.948
697.947
697.947
697.948
697.948
697.946
697.946
697.946
697.945
697.948
697.948
697.948
697.948
697.948
697.947
697.948
697.946
697.946
697.948
697.948
697.948
697.948
697.948
697.948
697.948
697.88
697.905
697.948
577.356
634.162
634.814
654.733
654.825
542.074
697.948
697.948
697.948
697.948
697.948
697.948
697.948
697.948
697.947
697.948
697.948
697.948
697.948
697.948
697.948
697.948
697.948
697.948
697.948
697.948
697.948
697.948
697.948
697.948
697.948
697.948
697.948
697.948
697.948
697.948
697.947
697.942
697.948
697.948
697.948
697.948
697.948
697.948
697.948
697.948
697.948
697.948
697.948
697.948
697.948
697.948
697.948
697.948
697.948
697.948
697.948
697.948
697.948
697.948
697.948
697.948
697.838
697.918
697.912
697.943
697.94
697.914
697.811
697.734
697.86
697.948
697.948
697.948
697.948
697.948
697.948
697.948
697.948
697.948
697.948
697.948
697.948
697.948
697.948
697.948
697.948
697.948
697.948
697.947
697.947
697.948
697.416
697.818
697.819
697.831
697.825
697.452
697.948
697.948
697.948
697.948
697.948
697.948
697.948
697.948
697.948
697.948
697.948
697.948
697.948
697.948
697.948
697.948
697.948
697.948
697.948
697.948
697.948
697.587
697.943
697.944
697.843
697.847
697.541
696.019
692.704
693.143
697.948
697.948
697.948
697.948
697.948
697.948
697.948
697.948
697.948
697.555
695.275
695.787
696.644
696.737
697.537
697.948
697.948
697.948
697.948
697.948
697.948
697.948
697.948
697.948
697.844
697.563
697.59
697.325
697.376
697.797
697.911
697.882
697.948
617.768
697.179
697.179
680.178
680.701
595.26
697.641
697.612
636.788
697.948
697.919
697.933
697.936
697.919
697.948
697.937
697.946
697.945
697.948
697.948
697.946
697.948
697.948
697.948
697.946
697.911
697.941
697.948
697.948
697.948
697.945
697.947
697.948
697.904
697.854
697.841
697.947
697.946
697.947
697.948
697.948
697.948
697.948
697.948
697.948
697.945
697.946
697.938
697.536
697.846
697.838
697.904
697.895
697.737
697.948
697.948
697.948
697.296
696.359
696.609
693.612
693.714
696.197
696.768
696.879
697.491
697.947
697.947
697.948
697.666
697.807
697.822
697.895
697.942
697.943
697.831
697.837
697.715
697.948
697.948
697.948
697.495
697.836
697.84
697.821
697.823
697.436
697.948
697.947
697.947
695.98
693.116
692.986
694.508
694.383
696.537
696.046
693.426
693.517
692.891
692.828
695.859
697.946
697.946
697.948
697.669
697.658
697.094
697.948
697.945
697.945
696.584
690.015
688.7
694.268
694.039
696.946
696.682
694.756
694.634
688.257
686.694
696.312
697.431
696.418
696.538
693.613
694.005
696.48
697.947
697.947
697.948
697.621
697.894
697.89
697.912
697.909
697.793
697.141
697.685
697.677
697.886
697.882
697.457
697.948
697.946
697.947
697.433
695.949
695.825
696.534
696.453
697.56
697.114
694.686
694.482
695.692
695.55
697.332
697.755
697.207
697.269
695.938
696.332
697.649
697.826
697.917
697.914
697.946
697.946
697.852
697.948
697.948
697.948
697.74
690.445
689.483
688.868
690.042
697.731
697.619
696.677
696.608
697.877
695.892
695.986
697.948
697.948
697.948
697.948
697.948
697.948
697.948
697.948
697.948
697.948
697.948
697.948
697.948
697.948
697.948
697.948
697.948
697.948
697.948
697.948
697.948
697.791
697.941
697.941
697.94
697.941
697.782
689.457
684.326
685.114
679.191
680.388
686.728
697.948
697.948
697.948
697.948
697.948
697.948
697.917
697.934
697.944
697.948
697.948
697.948
697.948
697.948
697.948
697.948
697.948
697.948
697.706
697.945
697.94
697.944
697.944
697.693
697.948
697.948
697.948
667.143
650.478
648.819
659.059
657.44
672.97
684.506
677.031
678.027
697.948
697.948
697.948
697.892
697.947
697.947
697.946
697.947
697.896
676.02
662.186
660.666
668.869
667.831
679.621
697.917
697.946
697.946
697.946
697.946
697.919
697.948
697.948
697.948
697.948
697.948
697.948
697.948
697.948
697.948
697.948
697.948
697.948
697.948
697.948
697.948
697.948
697.948
697.948
697.948
697.948
697.948
697.948
697.947
697.948
697.948
697.948
697.948
697.946
697.947
697.944
697.948
697.948
697.948
694.394
695.069
697.517
697.66
697.123
697.184
692.814
689.3
689.75
685.844
686.483
690.812
691.965
696.061
695.887
696.359
696.218
692.299
697.809
697.422
697.463
697.821
697.894
697.944
697.917
697.49
697.774
697.56
697.82
697.766
697.946
697.942
697.927
697.948
697.948
697.948
697.922
697.914
697.934
697.942
697.933
697.928
694.592
694.757
696.749
696.52
694.314
694.447
697.413
697.486
697.761
697.675
697.27
697.341
697.611
697.621
697.216
697.943
697.931
697.928
697.936
697.933
697.944
697.94
697.923
697.922
697.927
697.925
697.941
697.198
697.599
697.604
697.903
697.911
697.866
697.948
697.946
697.945
697.947
697.946
697.948
697.946
697.94
697.938
697.943
697.942
697.947
697.775
697.877
697.891
693.751
693.675
696.205
696.32
693.905
693.827
692.977
693.041
695.873
695.829
692.871
692.919
697.569
697.565
696.78
697.939
697.92
697.92
697.919
697.919
697.939
697.94
697.923
697.924
697.921
697.922
697.94
696.78
697.581
697.574
697.939
697.919
697.918
697.92
697.919
697.939
697.939
697.918
697.918
697.918
697.918
697.939
693.226
690.44
696.668
637.598
659.025
660.928
645.044
646.894
621.514
696.882
693.779
693.507
696.212
686.027
683.977
695.561
695.736
697.185
696.951
695.106
695.346
697.744
697.731
697.269
697.941
697.927
697.928
697.925
697.926
697.941
697.943
697.93
697.931
697.929
697.929
697.942
697.39
697.764
697.755
654.359
634.339
632.864
646.83
644.485
662.204
695.066
694.882
697.163
653.577
672.203
673.551
662.467
664.035
642.176
663.61
688.256
688.909
686.82
687.552
661.91
697.294
695.397
695.237
638.341
614.702
613.689
631.113
628.721
649.254
697.062
697.138
697.738
686.791
691.118
690.688
693.584
693.279
689.801
690.197
689.669
684.402
697.675
696.884
696.977
680.839
655.157
651.56
659.48
656.457
681.511
681.422
670.947
669.916
692.974
682.356
684.173
690.173
690.578
693.587
697.948
697.948
697.948
697.948
697.948
697.948
697.901
697.944
697.944
697.943
697.943
697.899
685.774
685.364
632.706
697.604
695.723
695.77
695.595
695.729
697.631
697.846
697.943
697.943
697.942
697.942
697.84
697.948
697.948
697.948
610.023
605.925
577.448
679.684
660.693
655.389
661.645
661.088
679.721
692.97
680.497
679.071
683.893
686.652
693.214
539.939
614.029
630.469
697.948
697.948
697.948
697.948
697.948
697.948
697.948
697.948
697.948
697.948
697.948
697.948
697.948
697.948
697.948
697.948
697.948
697.948
697.929
697.924
697.858
697.947
697.942
697.944
697.939
697.941
697.947
697.834
697.68
697.651
697.818
697.818
697.414
697.94
697.916
697.916
697.916
697.916
697.94
697.941
697.918
697.919
697.916
697.917
697.941
697.435
697.821
697.818
692.198
692.392
695.883
697.5
697.533
697.837
694.839
696.599
696.486
696.792
696.701
695.049
697.161
691.859
689.032
691.974
691.928
697.17
616.746
672.02
671.892
697.948
697.948
697.948
697.948
697.948
697.948
697.948
697.948
697.948
697.87
697.861
697.91
697.948
697.948
697.947
697.948
697.948
697.948
697.948
697.948
697.948
697.948
697.948
697.947
697.948
697.948
697.948
697.942
697.947
697.948
697.864
697.855
697.572
697.943
697.925
697.928
697.921
697.923
697.942
697.945
697.935
697.937
697.93
697.932
697.945
697.692
697.884
697.874
695.566
695.983
697.187
685.308
692.875
691.611
694.938
694.184
689.418
677.068
688.284
688.107
688.684
688.478
677.544
696.256
693.824
693.942
692.828
695.538
695.318
695.831
695.696
693.095
697.533
696.968
697.047
697.726
697.779
697.59
697.905
697.892
697.874
697.87
697.785
697.782
697.793
697.789
697.872
697.941
697.917
697.917
697.918
697.917
697.941
697.446
697.825
697.827
693.392
693.258
696.029
671.593
686.956
687.397
686.015
686.457
669.642
693.252
693.336
696.002
675.164
687.569
687.376
687.939
687.765
675.791
666.68
685.563
685.717
685.635
685.513
667.116
695.849
692.797
692.78
697.864
697.771
697.773
697.769
697.77
697.862
697.804
697.81
697.884
697.052
697.643
697.627
697.863
697.773
697.771
697.779
697.776
697.864
697.86
697.767
697.767
697.765
697.766
697.859
696.151
696.286
697.388
690.693
694.137
693.847
694.695
694.429
691.263
696.592
694.278
694.478
697.9
697.897
697.741
697.944
697.934
697.935
697.932
697.933
697.943
697.945
697.937
697.938
697.936
697.936
697.944
697.781
697.906
697.903
696.174
696.065
697.462
674.044
690.577
691.056
689.509
690.062
672.97
684.027
692.244
692.581
691.486
691.881
683.286
697.538
696.367
696.274
637.189
620.596
619.569
623.063
621.701
638.356
696.802
696.742
697.637
686.638
693.444
693.688
692.894
693.179
686.054
618.546
617.504
633.861
697.948
697.947
697.946
682.866
683.561
688.961
687.392
681.418
682.196
697.947
697.948
697.948
697.948
697.948
697.948
697.946
697.942
697.945
653.253
651.912
668.466
615.827
633.592
634.818
620.691
639.321
641.478
636.072
637.524
618.787
671.923
655.951
654.561
664.709
663.528
676.866
631.032
647.574
648.977
643.752
645.849
629.132
697.946
697.943
697.941
697.947
697.945
697.947
697.937
697.92
697.913
697.938
697.928
697.941
697.635
697.621
697.79
692.148
687.747
688.496
686.487
687.04
691.759
693.489
690.041
690.461
689.141
689.629
693.213
688.262
688.809
692.496
675.628
683.704
682.89
685.028
684.4
676.714
682.008
681.133
670.905
691.29
687.083
687.682
697.735
697.381
697.462
697.153
697.297
697.687
697.901
697.809
697.859
697.569
697.699
697.868
696.417
694.352
694.548
697.218
695.915
696.802
694.815
695.255
696.923
697.917
697.874
697.694
697.942
697.928
697.939
697.888
697.91
697.937
697.928
697.898
697.882
697.941
697.937
697.944
697.879
697.92
697.93
697.9
697.909
697.856
680.281
689.94
689.682
690.77
690.273
680.726
696.841
694.956
695.216
694.065
694.189
696.45
678.914
689.084
688.893
689.464
689.269
679.223
697.123
697.197
697.642
693.713
696.083
695.958
696.327
696.206
693.903
697.891
697.828
697.819
697.855
697.839
697.894
697.241
697.64
697.674
697.59
697.595
697.195
697.879
697.802
697.798
697.813
697.807
697.882
674.778
688.077
688.205
687.717
687.926
674.57
696.166
693.596
693.506
672.841
686.839
686.63
687.196
687.024
673.459
695.899
693.107
693.176
692.797
692.829
695.822
669.84
686.049
685.84
686.425
686.235
670.534
697.869
697.779
697.781
697.775
697.777
697.868
696.792
697.563
697.56
697.609
697.593
696.822
697.877
697.793
697.799
697.784
697.788
697.875
697.859
697.767
697.766
697.769
697.768
697.859
697.858
697.765
697.765
697.765
697.765
697.858
681.001
663.04
660.727
666.473
664.925
682.085
676.499
653.444
651.651
658.137
655.61
677.612
654.211
656.567
635.146
687.451