/*--------------------------------*- C++ -*----------------------------------*\
| =========                 |                                                 |
| \\      /  F ield         | OpenFOAM: The Open Source CFD Toolbox           |
|  \\    /   O peration     | Version:  5.x                                   |
|   \\  /    A nd           | Web:      www.OpenFOAM.org                      |
|    \\/     M anipulation  |                                                 |
\*---------------------------------------------------------------------------*/
FoamFile
{
    version     2.0;
    format      ascii;
    class       volVectorField;
    location    "300";
    object      U;
}
// * * * * * * * * * * * * * * * * * * * * * * * * * * * * * * * * * * * * * //

dimensions      [0 1 -1 0 0 0 0];

internalField   nonuniform List<vector> 
6584
(
(1.00007 -0.000200546 4.74732e-27)
(1.00005 -0.000440802 2.30555e-25)
(1.00007 -0.000599234 2.09034e-30)
(1.00007 -0.000816941 -4.14498e-25)
(1.00008 -0.00104681 0)
(1.00008 -0.0013009 0)
(1.00008 -0.00155365 0)
(1.00003 -0.00172601 4.33883e-25)
(0.999962 -0.00175321 4.4473e-25)
(0.999843 -0.00147605 0)
(0.999722 -0.000689874 2.10249e-25)
(0.999639 0.000549394 -1.39898e-25)
(0.99966 0.00193618 -1.07685e-26)
(0.999784 0.00301949 2.74355e-26)
(0.999929 0.00352174 9.05072e-27)
(1.00008 0.00345312 8.63749e-25)
(1.00015 0.00305735 7.73467e-25)
(1.00018 0.00254357 6.24929e-26)
(1.00017 0.00201673 5.42621e-25)
(1.00015 0.00154606 3.92024e-25)
(1.00012 0.00115903 0)
(1.0001 0.000821527 0)
(1.00008 0.000585732 5.93948e-25)
(1.0001 0.000260983 3.64866e-25)
(1.00031 -0.000421234 -2.25042e-25)
(1.00027 -0.00088753 -8.77565e-25)
(1.00032 -0.00118242 -1.17857e-24)
(1.00035 -0.00162183 0)
(1.0004 -0.00208498 -1.59982e-25)
(1.00041 -0.00261102 -1.326e-24)
(1.00037 -0.00315933 -8.11537e-25)
(1.00016 -0.00356016 1.37584e-24)
(0.999865 -0.0036829 -4.90627e-26)
(0.999084 -0.00317605 -3.3485e-25)
(0.998145 -0.00157412 -1.1955e-28)
(0.997546 0.00103888 0)
(0.997692 0.00400229 4.63441e-25)
(0.99855 0.00628222 3.11043e-25)
(0.999677 0.007315 -1.91442e-24)
(1.00044 0.00711553 -5.0801e-25)
(1.00076 0.00621011 -1.19153e-24)
(1.00086 0.00510541 -1.55327e-24)
(1.00081 0.00400519 -4.02175e-24)
(1.0007 0.00304724 -3.31801e-24)
(1.00057 0.0022788 -2.28246e-25)
(1.00049 0.0016055 -9.66452e-26)
(1.00038 0.00116841 0)
(1.00041 0.000542995 3.18136e-25)
(1.00069 -0.000646512 -5.68297e-25)
(1.00065 -0.0013128 0)
(1.00078 -0.00172056 -2.31706e-25)
(1.00087 -0.00238133 -1.53501e-24)
(1.00101 -0.00308894 -2.33548e-24)
(1.00106 -0.00393409 0)
(1.00099 -0.00490043 0)
(1.00053 -0.00565707 -3.73658e-25)
(0.999649 -0.00646054 -1.0642e-25)
(0.99829 -0.00457563 1.00726e-25)
(0.996734 -0.00261471 -1.79075e-25)
(0.995535 0.000810689 -2.55275e-25)
(0.995676 0.00498152 0)
(0.997221 0.00828182 0)
(0.999202 0.00983432 3.60975e-26)
(1.00114 0.0114889 -2.17007e-24)
(1.002 0.00957604 0)
(1.00222 0.00768179 -6.87443e-25)
(1.00204 0.00589516 0)
(1.00173 0.00441504 -5.21174e-25)
(1.0014 0.00327693 -1.42963e-24)
(1.00116 0.0022865 -8.59193e-25)
(1.00093 0.00169201 0)
(1.0009 0.000816485 2.4764e-25)
(1.00114 -0.000856071 -3.4816e-25)
(1.00117 -0.00168226 0)
(1.0014 -0.00217895 -3.11058e-25)
(1.00161 -0.00304732 0)
(1.00189 -0.00400164 0)
(1.0021 -0.0052259 0)
(1.00209 -0.00676392 -6.42194e-25)
(1.00147 -0.00827211 4.30672e-24)
(0.999801 -0.0101464 -2.68386e-25)
(0.997183 -0.00823384 3.16862e-25)
(0.993809 -0.00595191 -1.87993e-25)
(0.990439 -0.000454508 5.0083e-26)
(0.990154 0.0075044 4.83148e-26)
(0.993816 0.0137447 0)
(0.998419 0.0157006 -3.21762e-24)
(1.00171 0.0144401 0)
(1.0044 0.0131614 0)
(1.0044 0.0102306 5.10874e-24)
(1.00389 0.00757646 3.36293e-24)
(1.00318 0.0055432 -1.13094e-24)
(1.00254 0.00406624 -7.9262e-25)
(1.00205 0.0028031 0)
(1.00163 0.00209841 3.57636e-25)
(1.00148 0.00104732 2.94204e-25)
(1.00166 -0.00102966 -1.3481e-25)
(1.00178 -0.00196082 -8.74082e-27)
(1.00214 -0.00251156 -4.15165e-26)
(1.00254 -0.00355434 -6.34493e-26)
(1.00307 -0.00471988 1.21028e-25)
(1.00364 -0.00634712 3.36207e-24)
(1.00392 -0.00857806 -5.56723e-24)
(1.00372 -0.0110604 5.05285e-24)
(1.00036 -0.0120367 2.6837e-25)
(0.996943 -0.0134673 1.48009e-24)
(0.99034 -0.0121044 -2.04957e-25)
(0.981266 -0.00397911 2.73765e-25)
(0.979438 0.0113829 -1.86588e-26)
(0.988723 0.0228182 4.55799e-24)
(0.998731 0.0243253 0)
(1.00442 0.0206075 3.17232e-24)
(1.00629 0.0155861 -7.19275e-25)
(1.00749 0.0119459 -4.19513e-24)
(1.00638 0.0087923 -2.38916e-24)
(1.00502 0.0062408 9.2617e-25)
(1.00393 0.00453875 -5.83936e-26)
(1.00309 0.00308119 -3.41555e-26)
(1.00244 0.00233215 4.08466e-25)
(1.0021 0.00120376 -1.56307e-25)
(1.00218 -0.00114741 6.68091e-26)
(1.00244 -0.0021131 -1.77449e-25)
(1.00297 -0.00266506 -9.35599e-27)
(1.00363 -0.00381117 0)
(1.0045 -0.00507053 -7.2202e-25)
(1.00564 -0.00703164 -3.41519e-25)
(1.00652 -0.00944657 -2.19764e-24)
(1.00543 -0.0120953 -5.18789e-25)
(1.00348 -0.0160584 2.10689e-24)
(0.999719 -0.0212344 8.36311e-24)
(0.987228 -0.0215822 1.78449e-24)
(0.969873 -0.0135417 2.71938e-28)
(0.961845 0.0144888 -7.16906e-26)
(0.981962 0.0358625 7.12787e-25)
(1.00278 0.0373526 -7.16845e-24)
(1.01045 0.0277539 0)
(1.01147 0.0196123 4.12034e-28)
(1.01153 0.0128695 8.55408e-25)
(1.00938 0.00929132 2.2747e-25)
(1.00714 0.00634531 1.02395e-24)
(1.00548 0.004583 -3.88662e-25)
(1.0042 0.003052 0)
(1.00328 0.002344 -2.11446e-25)
(1.0027 0.00125662 -3.00365e-25)
(1.00269 -0.00119323 6.79378e-28)
(1.00311 -0.00211302 -8.38889e-26)
(1.0038 -0.00259937 1.05045e-25)
(1.00477 -0.00374746 1.36733e-26)
(1.00606 -0.00492857 1.98925e-26)
(1.00791 -0.00705187 -1.13352e-24)
(1.00971 -0.00942425 -1.57324e-24)
(1.00931 -0.0131578 -6.46595e-26)
(1.00977 -0.0193429 -3.17688e-25)
(1.00811 -0.0292426 1.26714e-24)
(0.993329 -0.0395692 0)
(0.954911 -0.0421693 1.17195e-24)
(0.910026 0.0207221 4.37225e-26)
(0.978945 0.0737826 3.19352e-24)
(1.01204 0.0522108 -2.89712e-26)
(1.02168 0.0334731 0)
(1.0191 0.0214434 2.16132e-24)
(1.01633 0.0121628 3.94308e-25)
(1.01267 0.00868688 3.2619e-25)
(1.00935 0.00567872 -8.75725e-26)
(1.00702 0.00410302 -8.36488e-25)
(1.00525 0.00266632 0)
(1.00406 0.00210017 -1.94756e-25)
(1.00319 0.00118369 -1.8745e-25)
(1.00311 -0.00115906 -8.13072e-26)
(1.0037 -0.0019532 7.21721e-26)
(1.00455 -0.00230347 3.7529e-26)
(1.00582 -0.00333119 2.57665e-26)
(1.00752 -0.00422776 -4.51883e-26)
(1.01008 -0.00618088 5.43677e-25)
(1.01302 -0.00796841 1.41594e-28)
(1.01416 -0.0121946 -2.25743e-25)
(1.01828 -0.0190467 2.12704e-28)
(1.0232 -0.0313648 -3.0917e-24)
(1.01892 -0.0541505 -1.02513e-25)
(0.995076 -0.108476 3.82e-26)
(1.02106 0.130627 5.65122e-25)
(1.04119 0.0635136 -5.53081e-25)
(1.03799 0.0330583 1.17096e-24)
(1.02852 0.0193694 -2.2819e-25)
(1.02108 0.00927657 7.42725e-25)
(1.0157 0.00672581 7.53114e-25)
(1.01131 0.00415066 5.39772e-25)
(1.00834 0.00306192 -2.64374e-25)
(1.0061 0.0019163 0)
(1.00466 0.00159523 0)
(1.00352 0.000976088 -2.21687e-30)
(1.00343 -0.00104858 -1.48272e-26)
(1.00416 -0.00165197 -2.39429e-27)
(1.00512 -0.00180924 -1.09449e-26)
(1.00662 -0.00260016 6.1803e-26)
(1.00863 -0.00302982 7.64849e-26)
(1.01169 -0.00445209 3.90928e-25)
(1.01555 -0.00513306 1.08757e-24)
(1.01861 -0.00878397 0)
(1.0263 -0.0136097 0)
(1.03871 -0.0220902 0)
(1.05328 -0.0423068 -1.07436e-25)
(1.08525 -0.0880186 1.4165e-26)
(1.12462 0.109675 0)
(1.07878 0.0472381 0)
(1.05349 0.0221835 0)
(1.03696 0.0122978 2.36569e-25)
(1.02453 0.00436332 0)
(1.0178 0.00349703 -8.19834e-25)
(1.01265 0.00187445 -5.27391e-25)
(1.0092 0.0015328 -4.87785e-26)
(1.0066 0.000858574 0)
(1.005 0.000862997 1.05234e-26)
(1.00363 0.000642768 1.51984e-26)
(1.00361 -0.000878034 2.79653e-27)
(1.00444 -0.00125452 -4.37572e-27)
(1.00544 -0.00119489 4.98249e-27)
(1.00705 -0.00167819 2.64946e-26)
(1.00917 -0.0015616 -6.75555e-26)
(1.01236 -0.00223172 -5.19479e-27)
(1.01656 -0.00164031 -1.11016e-25)
(1.02103 -0.00371532 -6.77855e-27)
(1.03019 -0.00462189 0)
(1.04544 -0.00533172 -2.77665e-25)
(1.06952 -0.0105942 1.17011e-30)
(1.11813 -0.0184494 -3.5755e-26)
(1.16882 0.0226728 -9.02575e-26)
(1.09835 0.00924068 -3.28143e-25)
(1.06033 0.00365941 -2.50655e-24)
(1.04108 0.00169458 0)
(1.02565 -0.00152982 -1.63767e-24)
(1.0184 -0.000463544 0)
(1.01307 -0.000809052 -1.24284e-26)
(1.00942 -0.000288457 0)
(1.00667 -0.000382594 -6.92551e-27)
(1.005 -2.23685e-05 -1.26494e-28)
(1.00347 0.000212185 -2.63423e-26)
(1.00366 -0.000673247 0)
(1.00453 -0.000823152 -2.41184e-26)
(1.00549 -0.000565085 -2.58669e-26)
(1.00707 -0.000738548 1.68106e-27)
(1.00909 -0.000133898 1.10932e-26)
(1.01201 -6.32713e-05 9.16212e-26)
(1.01588 0.00154577 3.77082e-25)
(1.0207 0.00137154 1.71534e-25)
(1.02868 0.00421854 0)
(1.04098 0.0103958 1.36677e-24)
(1.06189 0.0199127 4.15583e-25)
(1.09769 0.0444989 -1.75849e-26)
(1.14523 -0.058733 -4.30548e-26)
(1.09094 -0.0286523 5.43592e-25)
(1.05603 -0.0148929 1.05507e-25)
(1.0395 -0.00906453 1.44086e-24)
(1.02417 -0.00700385 7.16597e-24)
(1.01739 -0.00436485 3.98316e-24)
(1.01246 -0.00343509 -2.68307e-24)
(1.00895 -0.0021395 -1.88883e-24)
(1.00625 -0.00164421 1.06491e-25)
(1.00465 -0.000961235 4.57832e-26)
(1.00305 -0.000273464 -1.08893e-25)
(1.00359 -0.000463122 3.37905e-27)
(1.00444 -0.000420664 1.17801e-26)
(1.00531 -1.88524e-05 1.51057e-26)
(1.00674 5.75196e-05 8.14738e-27)
(1.0085 0.000985109 -4.56316e-34)
(1.01089 0.00158806 1.80579e-25)
(1.01397 0.00370374 5.88273e-25)
(1.01812 0.00501156 1.96297e-25)
(1.0233 0.00991311 0)
(1.0296 0.0190881 -3.82915e-25)
(1.04021 0.0353029 -9.12315e-26)
(1.04987 0.0693842 -2.34235e-26)
(1.08701 -0.0977789 -1.86101e-26)
(1.06578 -0.0504353 0)
(1.04414 -0.0272086 -2.24793e-24)
(1.03344 -0.0169665 1.81967e-24)
(1.02071 -0.0110087 1.02572e-23)
(1.01512 -0.007508 6.72404e-24)
(1.011 -0.00560386 0)
(1.00789 -0.00377236 -1.67315e-24)
(1.00542 -0.00277557 -9.46874e-25)
(1.00398 -0.00185291 7.24929e-26)
(1.0024 -0.000767842 -9.1561e-26)
(1.00343 -0.000272671 0)
(1.00423 -9.39482e-05 5.26157e-27)
(1.00497 0.000379483 -6.40824e-27)
(1.00619 0.000612098 -1.78194e-26)
(1.00763 0.00166255 0)
(1.00941 0.00250607 -5.89075e-26)
(1.01161 0.00462376 9.00641e-26)
(1.01454 0.00660137 -3.21865e-26)
(1.01687 0.0115927 -5.1463e-26)
(1.01763 0.0197779 2.01687e-25)
(1.01813 0.0343124 3.88268e-26)
(1.00727 0.0608589 0)
(1.03065 -0.0941705 -1.449e-26)
(1.03768 -0.0535106 1.51085e-25)
(1.03041 -0.0313329 1.05918e-24)
(1.02551 -0.0207486 1.2643e-25)
(1.01634 -0.013175 4.50453e-24)
(1.0122 -0.00952921 4.7314e-24)
(1.009 -0.00709516 0)
(1.00643 -0.00502236 -2.34333e-26)
(1.00429 -0.00367026 3.74268e-25)
(1.00305 -0.00262132 2.09661e-25)
(1.00158 -0.00122993 7.3886e-27)
(1.00324 -0.000118729 0)
(1.00395 0.000133368 0)
(1.00457 0.000609411 0)
(1.00557 0.000904236 0)
(1.00671 0.00190542 -1.59877e-26)
(1.00798 0.00275164 -1.62891e-26)
(1.00945 0.00445072 -1.76438e-25)
(1.0105 0.00689983 2.90625e-24)
(1.0117 0.0102273 0)
(1.00931 0.0152962 0)
(1.00466 0.0231806 6.18138e-25)
(0.983711 0.0313724 2.04782e-24)
(0.520662 -0.0244988 -7.41291e-26)
(0.997049 -0.0576483 -3.79697e-24)
(1.01759 -0.0439554 -7.09283e-25)
(1.01929 -0.0291895 -5.07088e-27)
(1.01803 -0.0209542 -2.83221e-26)
(1.01203 -0.0137412 -1.26885e-24)
(1.00921 -0.0104363 1.85564e-25)
(1.00682 -0.00789008 3.11071e-27)
(1.00477 -0.00583319 -1.71523e-24)
(1.003 -0.00428855 0)
(1.00197 -0.00322247 7.74442e-26)
(1.00065 -0.00163078 -1.87264e-25)
(1.00304 -8.81083e-06 0)
(1.00366 0.000259433 -3.42022e-26)
(1.00417 0.000686395 2.62152e-27)
(1.00499 0.000970153 0)
(1.00589 0.00181783 0)
(1.00683 0.00250406 -1.11736e-24)
(1.00782 0.00377967 1.66412e-25)
(1.00848 0.00524991 3.67886e-24)
(1.00854 0.00753524 4.1525e-24)
(1.00595 0.00968683 2.20129e-24)
(1.00103 0.0118255 0)
(0.987934 0.00771435 -2.12796e-25)
(0.781757 -0.0211972 2.44021e-25)
(0.995353 -0.0326735 -3.84362e-25)
(1.00789 -0.0291724 3.62987e-25)
(1.01239 -0.0241468 -3.73358e-25)
(1.01035 -0.016981 6.74292e-25)
(1.00842 -0.0131605 -1.34792e-25)
(1.00651 -0.0104362 -5.00925e-28)
(1.00471 -0.00810049 -3.66604e-27)
(1.00313 -0.00624402 0)
(1.00166 -0.00464164 -7.42556e-25)
(1.00084 -0.00364508 -8.80788e-25)
(0.999681 -0.00195697 -2.49158e-25)
(1.00286 5.70352e-05 1.1011e-27)
(1.00339 0.000297129 -3.69856e-26)
(1.00382 0.000644697 5.16955e-26)
(1.00451 0.000871349 7.15995e-30)
(1.00527 0.00152132 -1.97358e-25)
(1.00602 0.00198669 -8.3285e-25)
(1.00682 0.00279862 -1.9599e-24)
(1.00727 0.00363017 -2.41565e-24)
(1.00715 0.00476959 -9.70934e-25)
(1.00555 0.00501633 -1.32638e-25)
(1.00269 0.00356389 0)
(0.996114 0.000130416 -9.37815e-26)
(0.817406 -0.0179997 -9.62246e-25)
(1.0008 -0.0190335 -1.39783e-25)
(1.00588 -0.0212299 -1.14045e-25)
(1.00878 -0.0192219 -1.90712e-25)
(1.00734 -0.0147439 -3.05272e-24)
(1.00574 -0.0121339 0)
(1.00429 -0.00993384 -4.7961e-25)
(1.00285 -0.00792242 -1.58332e-25)
(1.00159 -0.00633352 -2.66318e-26)
(1.00038 -0.00477118 1.29413e-25)
(0.999718 -0.00389724 0)
(0.998724 -0.00220142 0)
(1.00273 8.34788e-05 -9.54267e-28)
(1.00318 0.000266298 8.14403e-28)
(1.00356 0.00052272 3.42473e-26)
(1.00417 0.000671973 0)
(1.00486 0.00111718 -1.07739e-25)
(1.00553 0.00137909 0)
(1.00635 0.00174712 -1.93196e-24)
(1.00686 0.00214827 8.29405e-25)
(1.00736 0.0018433 -3.92047e-26)
(1.00627 0.00191572 -6.62064e-26)
(1.0057 -0.000236115 2.91429e-25)
(1.00055 -0.0062258 -1.6292e-25)
(0.883753 -0.0155357 -1.01738e-24)
(1.00328 -0.0152828 6.30632e-26)
(1.00579 -0.0160519 2.93067e-25)
(1.007 -0.0152862 9.71579e-26)
(1.00515 -0.0126596 -1.45889e-24)
(1.0038 -0.0107998 1.6503e-24)
(1.00252 -0.00916117 0)
(1.00129 -0.00749432 5.89476e-25)
(1.00023 -0.00620124 -6.01388e-26)
(0.999201 -0.00473599 1.51139e-25)
(0.998656 -0.00401132 0)
(0.997811 -0.00237197 0)
(1.00264 7.73466e-05 1.25188e-26)
(1.00303 0.000187917 2.3247e-27)
(1.0034 0.000354739 -2.06524e-26)
(1.00395 0.000426634 2.79685e-26)
(1.00464 0.000684761 0)
(1.00531 0.000798271 0)
(1.00625 0.000839534 -8.66122e-25)
(1.00697 0.000967028 -4.54152e-26)
(1.00804 0.00025716 1.26666e-25)
(1.00732 -0.000268143 -4.43579e-25)
(1.00777 -0.0020681 0)
(0.998998 -0.00529334 -5.06241e-25)
(0.895817 -0.0155095 -3.04129e-24)
(1.00611 -0.0108885 4.82906e-25)
(1.00585 -0.0115244 1.00725e-24)
(1.00581 -0.0111167 2.35221e-24)
(1.00387 -0.0107429 1.35096e-24)
(1.00249 -0.00936942 1.36407e-24)
(1.00117 -0.00829497 -2.14526e-25)
(1.00003 -0.00692606 -1.40862e-25)
(0.99907 -0.00592754 -2.98231e-25)
(0.998162 -0.00458617 -1.06935e-24)
(0.997689 -0.00401613 6.78464e-27)
(0.99697 -0.00247668 -5.3055e-26)
(1.0026 4.56853e-05 1.28916e-26)
(1.00295 8.03373e-05 3.25279e-27)
(1.00331 0.000166476 -2.32401e-26)
(1.00384 0.000173224 -7.50319e-28)
(1.00456 0.000271188 0)
(1.00527 0.000300953 0)
(1.00637 9.35938e-05 8.12967e-25)
(1.00722 0.00021336 2.57503e-25)
(1.0089 -0.000950509 -2.59883e-25)
(1.00822 -0.000164578 -6.54282e-25)
(1.01004 -0.00522101 0)
(0.959251 0.0019689 -6.24027e-25)
(0.947668 -0.0135103 -3.99998e-26)
(1.00934 -0.00595603 2.35188e-25)
(1.00581 -0.0106079 1.13131e-25)
(1.0058 -0.00897979 -5.48162e-25)
(1.0032 -0.00928794 -4.07139e-25)
(1.00163 -0.00811247 2.21205e-25)
(1.00016 -0.0074742 -5.64031e-26)
(0.999034 -0.00631296 -1.02274e-24)
(0.998098 -0.00558278 -3.34719e-25)
(0.997269 -0.00436663 -1.38307e-24)
(0.996829 -0.0039418 0)
(0.996214 -0.00252717 -1.95292e-25)
(1.00262 -5.41804e-06 -1.56261e-27)
(1.00293 -4.25627e-05 7.88495e-28)
(1.00331 -2.58741e-05 0)
(1.00382 -6.70789e-05 8.76736e-27)
(1.00459 -0.000106701 0)
(1.00533 -0.000101374 -2.04729e-25)
(1.0066 -0.00053404 -1.57365e-25)
(1.00752 -0.000268874 2.45448e-26)
(1.0096 -0.00192666 -1.7228e-25)
(1.00906 -0.000351736 -2.08883e-25)
(1.01028 -0.00595403 -9.16355e-26)
(0.96141 0.000664789 -2.40406e-24)
(0.949619 -0.0108798 9.72444e-25)
(1.00921 -0.00421295 -2.23889e-25)
(1.00612 -0.00946333 -7.40711e-26)
(1.00579 -0.00717508 -4.60876e-27)
(1.00272 -0.00816649 -2.17008e-25)
(1.00103 -0.0070004 -2.79849e-25)
(0.999389 -0.00673664 -5.81523e-25)
(0.998254 -0.00570551 -1.5218e-25)
(0.997294 -0.00521373 -9.12324e-26)
(0.996513 -0.00410997 -4.55902e-25)
(0.996079 -0.00381506 -1.94278e-25)
(0.995546 -0.00253431 -8.65052e-26)
(1.00267 -7.12208e-05 0)
(1.00296 -0.000171139 -3.82876e-27)
(1.00336 -0.000213158 -2.31319e-26)
(1.00387 -0.000283423 1.88233e-26)
(1.0047 -0.000443977 1.67969e-25)
(1.00547 -0.00041429 -4.12877e-25)
(1.00689 -0.00105807 0)
(1.00787 -0.000586349 -1.701e-25)
(1.01018 -0.00262436 0)
(1.00996 -0.000545732 0)
(1.01079 -0.00605944 1.67703e-27)
(0.963049 6.22634e-05 8.85718e-27)
(0.95126 -0.00928099 4.25514e-25)
(1.00954 -0.00319837 -1.31472e-25)
(1.0066 -0.00842596 -1.64881e-26)
(1.0058 -0.00576757 -4.48381e-27)
(1.00242 -0.00727357 4.11629e-26)
(1.00061 -0.0060192 -1.23881e-25)
(0.998802 -0.00609046 -1.53367e-25)
(0.997642 -0.00512727 2.45836e-25)
(0.99663 -0.00484728 -9.09657e-26)
(0.995878 -0.00383779 0)
(0.995432 -0.00365615 4.25703e-30)
(0.994963 -0.00250737 0)
(1.00276 -0.000148249 0)
(1.00303 -0.000299117 -1.43281e-26)
(1.00345 -0.00039066 -1.04957e-26)
(1.00396 -0.000471365 1.99934e-26)
(1.00486 -0.000739739 0)
(1.00565 -0.000649827 5.75443e-26)
(1.0072 -0.00148199 -4.88222e-25)
(1.00826 -0.000790306 -3.91993e-25)
(1.01069 -0.00308354 -6.46893e-26)
(1.01077 -0.000674012 -1.68716e-27)
(1.01126 -0.00596632 2.99787e-25)
(0.963965 -0.000282715 -2.80432e-25)
(0.952205 -0.00812212 5.24815e-25)
(1.00993 -0.00251874 -9.29515e-26)
(1.00705 -0.00758619 1.04603e-25)
(1.00583 -0.00469214 3.47246e-27)
(1.00225 -0.00655542 -8.96691e-26)
(1.00032 -0.00517414 8.73226e-26)
(0.998354 -0.00553655 1.97543e-25)
(0.997162 -0.0045921 -3.65722e-30)
(0.996083 -0.00449976 -4.32702e-26)
(0.995348 -0.00356416 -2.77079e-25)
(0.994878 -0.0034798 1.4466e-25)
(0.994459 -0.00245395 1.31605e-25)
(1.00288 -0.000234093 -1.33985e-26)
(1.00313 -0.000422894 -2.2449e-26)
(1.00359 -0.000556665 -9.17917e-34)
(1.00409 -0.000631069 5.70633e-26)
(1.00505 -0.000996187 1.76053e-25)
(1.00586 -0.000823769 4.18579e-26)
(1.00751 -0.00181887 -5.02468e-25)
(1.00864 -0.000921006 -3.62787e-25)
(1.01113 -0.00338215 2.09647e-25)
(1.01143 -0.000770086 0)
(1.01161 -0.00580144 5.96393e-26)
(0.964549 -0.000497044 -1.06513e-25)
(0.952799 -0.00724049 1.55709e-25)
(1.01024 -0.00202538 -7.19134e-26)
(1.00742 -0.00688767 -6.20581e-31)
(1.00587 -0.00385719 -1.62499e-25)
(1.00216 -0.00597007 -7.30799e-26)
(1.00011 -0.00445636 -1.46364e-26)
(0.998012 -0.00506666 1.0466e-25)
(0.996783 -0.00410665 -1.39527e-25)
(0.995633 -0.00417971 -2.37362e-25)
(0.994907 -0.00329796 -1.16137e-25)
(0.994406 -0.00329663 -1.24072e-25)
(0.994025 -0.00238009 1.13927e-25)
(1.00302 -0.000327116 -3.39499e-34)
(1.00326 -0.00054088 -1.41844e-26)
(1.00374 -0.000711194 1.75706e-26)
(1.00425 -0.000765449 3.41438e-26)
(1.00526 -0.00121746 3.58636e-29)
(1.00608 -0.000951342 0)
(1.0078 -0.00208449 -3.29809e-26)
(1.009 -0.0010064 -3.52099e-25)
(1.0115 -0.00357017 1.77478e-25)
(1.01199 -0.000843498 0)
(1.01189 -0.00560167 -1.38816e-30)
(0.964947 -0.000626239 8.01685e-26)
(0.953195 -0.0065618 -1.62052e-25)
(1.0105 -0.00166487 0)
(1.00773 -0.00630396 1.05097e-27)
(1.0059 -0.0032041 3.81285e-26)
(1.00212 -0.00548732 0)
(0.999946 -0.00385051 3.85924e-26)
(0.997746 -0.00466939 3.38943e-26)
(0.99648 -0.00367206 -3.80287e-25)
(0.99526 -0.00389025 -9.90841e-26)
(0.994538 -0.00304429 9.77998e-26)
(0.994002 -0.00311353 -1.29357e-25)
(0.993651 -0.00229052 0)
(1.00318 -0.000426229 1.77521e-26)
(1.0034 -0.000652714 -1.6177e-26)
(1.00391 -0.000855231 0)
(1.00441 -0.000878552 2.70214e-26)
(1.00547 -0.0014083 9.42083e-26)
(1.00631 -0.0010453 2.14939e-26)
(1.00808 -0.00229282 0)
(1.00934 -0.00106368 5.5086e-27)
(1.01182 -0.00368172 1.65591e-25)
(1.01246 -0.000901833 0)
(1.0121 -0.00539566 4.1444e-26)
(0.965205 -0.00070228 2.96591e-26)
(0.953441 -0.0060268 -1.0894e-25)
(1.01071 -0.00139865 1.23623e-26)
(1.00799 -0.00581762 -4.3517e-26)
(1.00593 -0.0026923 -1.449e-27)
(1.00211 -0.00508619 2.50323e-26)
(0.99982 -0.0033417 -9.12375e-27)
(0.997537 -0.00433374 7.41164e-28)
(0.996233 -0.00328678 -1.3393e-25)
(0.994949 -0.00363162 5.11514e-26)
(0.994227 -0.00280586 5.28302e-26)
(0.993656 -0.00293511 -2.23342e-26)
(0.993327 -0.00218898 -1.27877e-26)
(1.00334 -0.00053061 -3.20395e-27)
(1.00355 -0.000758771 -2.69904e-26)
(1.00409 -0.000990014 -8.28021e-27)
(1.00458 -0.000974533 0)
(1.00568 -0.00157341 3.87369e-25)
(1.00654 -0.00111584 0)
(1.00833 -0.00245598 -2.35341e-25)
(1.00965 -0.0011044 0)
(1.0121 -0.00374157 1.37596e-25)
(1.01285 -0.000952157 9.82668e-26)
(1.01226 -0.0051971 0)
(0.965353 -0.000752164 2.30534e-26)
(0.953581 -0.00560029 0)
(1.01089 -0.00120248 9.81678e-27)
(1.0082 -0.00540957 -1.16652e-26)
(1.00596 -0.00229076 0)
(1.00211 -0.00475066 0)
(0.999716 -0.00291685 -7.64402e-27)
(0.997369 -0.00405012 1.18534e-26)
(0.996028 -0.00294823 0)
(0.994686 -0.00340225 0)
(0.993961 -0.00258389 4.99162e-26)
(0.993357 -0.00276407 1.07486e-26)
(0.993044 -0.00207846 -3.78423e-26)
(1.00351 -0.000639531 3.35302e-27)
(1.00371 -0.000859685 3.05805e-27)
(1.00426 -0.0011168 0)
(1.00476 -0.00105729 -9.66465e-27)
(1.00589 -0.00171706 2.04475e-25)
(1.00676 -0.00117071 1.1515e-26)
(1.00856 -0.00258426 -1.97954e-25)
(1.00994 -0.00113671 2.33278e-27)
(1.01235 -0.0037682 0)
(1.01319 -0.000996185 8.88309e-26)
(1.01235 -0.0050145 0)
(0.965415 -0.000796399 0)
(0.953663 -0.00525551 0)
(1.01103 -0.00105543 4.14139e-26)
(1.00837 -0.00506396 8.99593e-26)
(1.00597 -0.00197663 0)
(1.00211 -0.00446859 -1.11275e-27)
(0.999626 -0.00256463 0)
(0.997231 -0.00381034 0)
(0.995852 -0.00265312 0)
(0.99446 -0.00319989 0)
(0.99373 -0.00237932 -5.23746e-26)
(0.993094 -0.00260207 -4.0773e-26)
(0.992792 -0.00196186 8.02013e-31)
(1.00367 -0.000752186 0)
(1.00387 -0.000956035 8.84258e-27)
(1.00444 -0.00123655 -2.46012e-26)
(1.00493 -0.00112989 1.9391e-26)
(1.00608 -0.00184289 1.92492e-25)
(1.00697 -0.00121562 3.7853e-25)
(1.00878 -0.00268614 0)
(1.0102 -0.00116624 0)
(1.01257 -0.00377544 1.22756e-26)
(1.01348 -0.00103874 1.36081e-26)
(1.01241 -0.00485444 -2.4454e-33)
(0.965418 -0.00083811 -7.58615e-27)
(0.953681 -0.00496984 1.41414e-25)
(1.01115 -0.00094527 3.18076e-26)
(1.00852 -0.0047775 3.6186e-27)
(1.00598 -0.00173098 0)
(1.00211 -0.00423214 -5.96205e-26)
(0.999544 -0.00227329 -8.8117e-26)
(0.997111 -0.00360786 0)
(0.995696 -0.00239696 -8.78526e-26)
(0.994261 -0.00302238 -7.10462e-41)
(0.993523 -0.00219147 1.24785e-25)
(0.992859 -0.0024502 7.67298e-26)
(0.992564 -0.00184109 6.18296e-26)
(1.00383 -0.000867581 -2.13343e-26)
(1.00402 -0.00104809 5.76221e-27)
(1.0046 -0.00134978 -9.42541e-27)
(1.0051 -0.0011947 3.74557e-26)
(1.00627 -0.00195374 1.65655e-25)
(1.00717 -0.00125461 7.14323e-25)
(1.00898 -0.00276807 0)
(1.01044 -0.0011957 0)
(1.01277 -0.00377201 1.07657e-26)
(1.01373 -0.00108305 0)
(1.01244 -0.00471724 0)
(0.965379 -0.000881744 0)
(0.953647 -0.00473456 0)
(1.01125 -0.000867189 -2.34725e-26)
(1.00863 -0.00454093 -5.80726e-26)
(1.00598 -0.00154072 -5.05456e-26)
(1.00211 -0.00403499 -9.7278e-26)
(0.999466 -0.00203427 -7.44218e-26)
(0.997006 -0.0034376 0)
(0.995553 -0.00217633 -2.01181e-26)
(0.994082 -0.00286775 0)
(0.993334 -0.00202021 0)
(0.992643 -0.00230923 3.57611e-26)
(0.99235 -0.00171818 3.16269e-26)
(1.00397 -0.000984411 -1.45879e-26)
(1.00417 -0.00113574 -1.20535e-26)
(1.00476 -0.00145647 -6.57717e-27)
(1.00527 -0.00125321 6.62319e-27)
(1.00644 -0.0020517 -4.521e-34)
(1.00736 -0.00129052 3.31702e-25)
(1.00916 -0.00283507 0)
(1.01067 -0.00122667 -2.82509e-26)
(1.01295 -0.00376376 2.14501e-27)
(1.01395 -0.00113102 -9.99952e-27)
(1.01245 -0.00460273 5.76507e-26)
(0.965307 -0.000930646 -1.20153e-26)
(0.953571 -0.00454346 4.7062e-26)
(1.01132 -0.000817573 0)
(1.00872 -0.00434714 0)
(1.00598 -0.0013964 7.66043e-28)
(1.00211 -0.00387223 4.00081e-26)
(0.999389 -0.00184058 2.75963e-31)
(0.996908 -0.00329585 -3.52549e-26)
(0.995419 -0.00198838 0)
(0.993916 -0.00273441 0)
(0.993155 -0.00186566 1.23602e-26)
(0.99244 -0.00217995 0)
(0.992145 -0.00159518 0)
(1.00411 -0.00110091 0)
(1.00431 -0.00121814 -1.48967e-26)
(1.00491 -0.00155599 -1.42021e-26)
(1.00542 -0.00130593 -1.98359e-26)
(1.0066 -0.00213803 0)
(1.00754 -0.00132477 0)
(1.00933 -0.00289054 0)
(1.01087 -0.0012605 -2.225e-26)
(1.01311 -0.00375539 0)
(1.01415 -0.00118437 -2.72032e-27)
(1.01245 -0.00451119 2.29633e-26)
(0.965208 -0.000987736 -8.25037e-27)
(0.953462 -0.00439206 3.70506e-26)
(1.01137 -0.000794131 1.86011e-26)
(1.00879 -0.00419124 3.70619e-26)
(1.00596 -0.00129119 0)
(1.00209 -0.00374003 -3.23129e-26)
(0.99931 -0.00168666 -4.10849e-26)
(0.996814 -0.0031798 0)
(0.995287 -0.00183079 0)
(0.993759 -0.00262144 0)
(0.99298 -0.00172823 1.20708e-26)
(0.992245 -0.00206339 0)
(0.991942 -0.00147443 0)
(1.00422 -0.00121461 1.77654e-27)
(1.00443 -0.00129385 -7.75409e-27)
(1.00504 -0.00164687 5.62824e-27)
(1.00557 -0.00135265 0)
(1.00675 -0.00221292 3.75815e-26)
(1.00772 -0.00135649 1.08773e-26)
(1.00949 -0.00293636 0)
(1.01107 -0.001297 -1.04415e-26)
(1.01327 -0.00374936 1.37653e-27)
(1.01433 -0.00124403 -1.01488e-26)
(1.01244 -0.00444345 -1.76077e-27)
(0.965088 -0.00105545 -1.1107e-26)
(0.953327 -0.00427767 5.53509e-26)
(1.01141 -0.000795823 4.29872e-28)
(1.00885 -0.0040697 -4.5589e-28)
(1.00594 -0.00122006 2.07948e-26)
(1.00208 -0.00363555 6.27056e-28)
(0.999227 -0.00156805 -3.18199e-27)
(0.996723 -0.00308721 0)
(0.995155 -0.00170177 -2.95751e-26)
(0.993607 -0.00252825 -2.35929e-26)
(0.992804 -0.00160877 0)
(0.992052 -0.00196108 3.30255e-26)
(0.991734 -0.00135872 1.6141e-26)
(1.00432 -0.00132184 0)
(1.00455 -0.0013605 -7.98238e-27)
(1.00516 -0.00172706 -7.46874e-27)
(1.00572 -0.00139304 -2.14653e-27)
(1.00689 -0.00227617 0)
(1.00789 -0.00138546 1.44627e-25)
(1.00964 -0.00297394 -3.97573e-26)
(1.01127 -0.00133523 -2.11072e-26)
(1.01342 -0.00374727 -2.54496e-28)
(1.01451 -0.00131037 1.19744e-26)
(1.01242 -0.00440216 8.37775e-27)
(0.96495 -0.0011371 -2.96103e-26)
(0.953173 -0.00419999 1.83059e-26)
(1.01143 -0.000822558 1.67783e-28)
(1.00889 -0.00397984 -2.07873e-26)
(1.0059 -0.00117875 -1.32266e-26)
(1.00205 -0.00355628 1.42557e-27)
(0.999136 -0.00148117 -3.39955e-27)
(0.996634 -0.00301663 0)
(0.995018 -0.00160038 -2.01467e-26)
(0.993459 -0.00245508 -1.86082e-26)
(0.992625 -0.00150896 0)
(0.991859 -0.00187527 9.97018e-27)
(0.991517 -0.00125185 -1.47158e-26)
(1.00439 -0.0014179 -3.31876e-27)
(1.00466 -0.00141537 5.48333e-27)
(1.00527 -0.00179401 -1.46604e-26)
(1.00586 -0.00142526 -1.62657e-27)
(1.00702 -0.00232684 2.58135e-26)
(1.00807 -0.00141069 1.59385e-25)
(1.00978 -0.00300365 -1.40683e-26)
(1.01147 -0.00137337 -5.27574e-27)
(1.01356 -0.00374931 9.24557e-28)
(1.01469 -0.00138113 2.39723e-26)
(1.01241 -0.00438941 -2.61962e-27)
(0.964793 -0.00123536 1.92012e-26)
(0.953001 -0.00416115 -8.34936e-27)
(1.01142 -0.000875878 0)
(1.00892 -0.00391959 -1.34394e-26)
(1.00584 -0.0011633 -6.67512e-27)
(1.00203 -0.00349981 7.664e-28)
(0.99903 -0.00142265 0)
(0.996546 -0.00296639 1.70308e-27)
(0.994868 -0.00152562 2.64735e-27)
(0.993311 -0.00240165 -1.36409e-26)
(0.99243 -0.00143059 -2.13543e-26)
(0.991658 -0.00180818 6.90926e-27)
(0.991276 -0.00115842 0)
(1.00444 -0.0014919 -3.37143e-28)
(1.00475 -0.00145267 4.92967e-27)
(1.00535 -0.00184136 -3.57239e-27)
(1.006 -0.00144659 0)
(1.00713 -0.00236147 0)
(1.00824 -0.00143026 -3.42106e-26)
(1.00989 -0.00302357 1.58443e-26)
(1.01165 -0.00140744 1.0365e-26)
(1.01369 -0.0037551 4.01504e-27)
(1.01487 -0.00145438 -2.33377e-27)
(1.0124 -0.00442629 -1.02142e-26)
(0.964638 -0.0013629 0)
(0.95284 -0.00416738 0)
(1.0114 -0.000955017 0)
(1.00894 -0.00388547 0)
(1.00578 -0.00116779 -1.34407e-27)
(1.002 -0.00346457 0)
(0.998923 -0.00139133 0)
(0.996474 -0.00293631 1.44923e-27)
(0.994725 -0.00147994 0)
(0.993185 -0.00236984 0)
(0.992247 -0.00137952 0)
(0.991479 -0.00176533 6.22024e-27)
(0.991047 -0.00108905 0)
(1.00445 -0.0015443 0)
(1.0049 -0.00147615 -1.3549e-27)
(1.00542 -0.00187266 -3.9335e-27)
(1.00623 -0.00146038 -5.46007e-28)
(1.00723 -0.00238433 5.86757e-27)
(1.00854 -0.00144585 -6.69143e-26)
(1.01002 -0.00303616 3.53733e-27)
(1.012 -0.00143573 3.60427e-30)
(1.01386 -0.00375973 1.63719e-33)
(1.01522 -0.00150607 -4.68814e-31)
(1.01244 -0.00447815 -1.44169e-26)
(0.964373 -0.00150284 0)
(0.952611 -0.00423164 -1.81773e-26)
(1.01125 -0.00107785 -2.80753e-26)
(1.00894 -0.00387548 -5.41885e-28)
(1.00561 -0.00118604 -1.13992e-27)
(1.00201 -0.00344376 0)
(0.998705 -0.00137854 0)
(0.996407 -0.00291944 0)
(0.99446 -0.00145562 0)
(0.993025 -0.00235282 0)
(0.991928 -0.00134984 0)
(0.991218 -0.00174117 4.41865e-27)
(0.990649 -0.00104268 0)
(1.07698 -0.0951855 1.92541e-26)
(1.11997 0.129369 7.14613e-26)
(1.01202 0.14603 3.12693e-25)
(1.11712 -0.0276533 -3.51826e-26)
(1.17683 0.0361355 -1.1585e-26)
(1.13151 0.119706 -5.87498e-26)
(1.10253 0.0383183 -1.57345e-26)
(1.15712 -0.0614832 -1.54841e-25)
(1.17848 0.0228242 -4.55968e-26)
(1.05593 0.0683993 -7.54935e-26)
(1.096 -0.104293 2.14377e-25)
(1.15067 -0.0699713 0)
(1.01177 0.0632819 6.94224e-30)
(1.03331 -0.103575 -1.53255e-25)
(1.0876 -0.106524 1.53885e-25)
(0.985114 0.0355774 0)
(0.615625 0.0199888 -9.79117e-26)
(0.497904 -0.0288912 1.58736e-25)
(0.993618 -0.068672 7.94428e-25)
(1.02649 -0.100817 -2.28046e-25)
(0.983627 -0.102362 1.881e-25)
(0.909567 0.000424378 4.37251e-26)
(0.997201 0.138142 4.49091e-25)
(0.959809 0.0655662 1.01869e-24)
(1.04566 -0.0479622 -1.28613e-25)
(1.0724 -0.0852589 5.51742e-27)
(1.00361 -0.0974955 -2.46261e-25)
(1.07477 0.241542 0)
(0.946174 0.225223 -2.50808e-25)
(1.11422 0.118032 0)
(1.07612 0.0661139 1.1852e-26)
(1.03993 0.0752252 -1.38127e-24)
(1.06783 -0.0192307 1.30979e-25)
(1.10979 -0.0254343 -3.33921e-26)
(1.07994 -0.0789179 6.45141e-27)
(1.10432 -0.0636397 -6.11235e-27)
(1.13541 -0.078389 5.64025e-27)
(1.11022 -0.120318 -7.65992e-27)
(1.19265 0.103651 7.67465e-26)
(1.16247 0.173384 2.97622e-26)
(1.16701 0.0344388 5.106e-27)
(1.10672 0.0248072 -3.94489e-25)
(1.08655 0.0580443 1.48843e-25)
(1.06566 0.0133593 2.74417e-25)
(1.09777 0.034049 1.37708e-26)
(1.11086 -0.0169375 -2.36613e-28)
(1.11597 0.00815506 2.22768e-30)
(1.14441 0.0200966 -3.42876e-26)
(1.14906 -0.0235335 -6.09734e-28)
(1.19715 -0.0255018 2.09937e-27)
(1.20993 0.0450506 -4.18017e-26)
(1.15123 -0.0505178 -1.76413e-25)