/*--------------------------------*- C++ -*----------------------------------*\
| =========                 |                                                 |
| \\      /  F ield         | OpenFOAM: The Open Source CFD Toolbox           |
|  \\    /   O peration     | Version:  5.x                                   |
|   \\  /    A nd           | Web:      www.OpenFOAM.org                      |
|    \\/     M anipulation  |                                                 |
\*---------------------------------------------------------------------------*/
FoamFile
{
    version     2.0;
    format      ascii;
    class       volScalarField;
    location    "300";
    object      Y;
}
// * * * * * * * * * * * * * * * * * * * * * * * * * * * * * * * * * * * * * //

dimensions      [0 0 0 0 0 0 0];

internalField   nonuniform List<scalar> 
6584
(
0.00632781
0.00632781
0.00632781
0.00632781
0.00632781
0.00632781
0.00632781
0.00632782
0.00632782
0.00632782
0.00632782
0.00632782
0.00632782
0.00632782
0.00632782
0.00632782
0.00632782
0.00632781
0.00632781
0.00632781
0.00632781
0.00632781
0.00632781
0.00632781
0.00632561
0.00632561
0.00632561
0.00632562
0.00632562
0.00632562
0.00632562
0.00632563
0.00632563
0.00632563
0.00632563
0.00632563
0.00632564
0.00632563
0.00632563
0.00632563
0.00632563
0.00632563
0.00632562
0.00632562
0.00632562
0.00632561
0.00632561
0.00632561
0.00632341
0.00632342
0.00632342
0.00632342
0.00632342
0.00632342
0.00632343
0.00632344
0.00632345
0.00632454
0.00632454
0.00632454
0.00632454
0.00632454
0.00632454
0.00632345
0.00632344
0.00632344
0.00632343
0.00632342
0.00632342
0.00632342
0.00632342
0.00632341
0.00632122
0.00632122
0.00632122
0.00632123
0.00632123
0.00632123
0.00632124
0.00632125
0.00632126
0.00632235
0.00632235
0.00632234
0.00632234
0.00632235
0.00632235
0.00632235
0.00632125
0.00632124
0.00632124
0.00632123
0.00632123
0.00632123
0.00632122
0.00632122
0.00631902
0.00631903
0.00631903
0.00631903
0.00631904
0.00631904
0.00631904
0.00631904
0.00632015
0.00632016
0.00632014
0.00632013
0.00632013
0.00632014
0.00632015
0.00632016
0.00632015
0.00631906
0.00631905
0.00631904
0.00631904
0.00631903
0.00631903
0.00631903
0.00631683
0.00631683
0.00631684
0.00631684
0.00631684
0.00631685
0.00631686
0.00631795
0.00631794
0.00631793
0.00631848
0.00631845
0.00631844
0.00631847
0.00631795
0.00631797
0.00631797
0.00631689
0.00631687
0.00631686
0.00631685
0.00631684
0.00631684
0.00631683
0.00631464
0.00631464
0.00631464
0.00631465
0.00631466
0.00631466
0.00631468
0.00631576
0.00631575
0.00631574
0.00631622
0.00631645
0.00631641
0.0063162
0.0063163
0.0063158
0.0063158
0.00631472
0.00631469
0.00631468
0.00631466
0.00631465
0.00631465
0.00631464
0.00631245
0.00631245
0.00631245
0.00631246
0.00631247
0.00631248
0.00631251
0.00631358
0.00631358
0.00631358
0.00631402
0.00631411
0.0063142
0.00631413
0.00631365
0.00631365
0.00631257
0.00631252
0.0063125
0.00631248
0.00631247
0.00631246
0.00631245
0.00631026
0.00631026
0.00631027
0.00631028
0.00631029
0.00631031
0.00631034
0.00631142
0.00631142
0.00631145
0.00631189
0.00631198
0.0063121
0.00631204
0.00631155
0.00631152
0.00631042
0.00631036
0.00631032
0.0063103
0.00631028
0.00631027
0.00631026
0.00630807
0.00630807
0.00630808
0.00630809
0.00630811
0.00630813
0.00630817
0.00630926
0.00630928
0.00630934
0.00630981
0.00630999
0.00631018
0.00631002
0.00630947
0.0063094
0.00630827
0.00630819
0.00630815
0.00630812
0.0063081
0.00630808
0.00630807
0.00630587
0.00630588
0.00630589
0.00630591
0.00630593
0.00630596
0.00630601
0.0063071
0.00630714
0.00630723
0.00630775
0.006308
0.00630828
0.00630801
0.00630738
0.00630728
0.00630613
0.00630603
0.00630598
0.00630594
0.00630591
0.00630589
0.00630588
0.00630368
0.00630369
0.00630371
0.00630372
0.00630375
0.00630378
0.00630384
0.00630494
0.006305
0.00630511
0.00630565
0.00630595
0.00630631
0.00630596
0.00630529
0.00630516
0.00630398
0.00630387
0.0063038
0.00630376
0.00630372
0.00630371
0.00630369
0.00630149
0.0063015
0.00630152
0.00630154
0.00630157
0.00630161
0.00630167
0.00630277
0.00630285
0.00630296
0.00630352
0.00630381
0.00630421
0.00630386
0.00630317
0.00630302
0.00630182
0.0063017
0.00630163
0.00630157
0.00630153
0.00630151
0.00630149
0.0062993
0.00629932
0.00629933
0.00629936
0.00629939
0.00629943
0.0062995
0.00629954
0.00630067
0.00630077
0.0063013
0.00630152
0.00504468
0.00630171
0.0063017
0.00630102
0.00630087
0.00629965
0.00629953
0.00629945
0.00629939
0.00629935
0.00629932
0.0062993
0.00629711
0.00629713
0.00629714
0.00629717
0.0062972
0.00629725
0.00629731
0.00629733
0.00629845
0.00629856
0.00629909
0.00629901
0.00594411
0.00629951
0.00629892
0.00629884
0.00629755
0.00629746
0.00629733
0.00629726
0.0062972
0.00629716
0.00629713
0.0062971
0.00629492
0.00629494
0.00629495
0.00629498
0.00629502
0.00629506
0.00629511
0.00629514
0.00629626
0.00629637
0.00629637
0.0062968
0.00596994
0.00629676
0.00629674
0.00629666
0.00629537
0.00629527
0.00629514
0.00629506
0.006295
0.00629495
0.00629492
0.0062949
0.00629273
0.00629275
0.00629277
0.00629279
0.00629283
0.00629287
0.00629292
0.00629296
0.00629303
0.00629419
0.00629418
0.00629112
0.00613978
0.00629457
0.00629455
0.00629447
0.00629318
0.00629308
0.00629295
0.00629286
0.0062928
0.00629275
0.00629272
0.00629269
0.00629054
0.00629056
0.00629057
0.0062906
0.00629064
0.00629067
0.00629073
0.00629078
0.00629085
0.0062909
0.006292
0.00628748
0.00614159
0.00629238
0.00629127
0.00629112
0.00629099
0.00629088
0.00629075
0.00629066
0.00629059
0.00629054
0.00629051
0.00629048
0.00628835
0.00628836
0.00628838
0.00628842
0.00628845
0.00628848
0.00628854
0.0062886
0.00628867
0.00628872
0.00628819
0.00613089
0.00621815
0.00628911
0.00628908
0.00628893
0.00628879
0.00628869
0.00628855
0.00628846
0.00628839
0.00628833
0.0062883
0.00628827
0.00628615
0.00628617
0.00628619
0.00628623
0.00628626
0.0062863
0.00628636
0.00628642
0.00628649
0.00628654
0.0062855
0.00612921
0.00621636
0.00628692
0.00628689
0.00628674
0.0062866
0.00628649
0.00628635
0.00628625
0.00628618
0.00628613
0.00628609
0.00628605
0.00628396
0.00628398
0.006284
0.00628404
0.00628408
0.00628411
0.00628418
0.00628424
0.00628432
0.00628436
0.00628283
0.00612748
0.00621449
0.00628473
0.0062847
0.00628455
0.0062844
0.00628429
0.00628414
0.00628405
0.00628397
0.00628392
0.00628388
0.00628384
0.00628177
0.00628179
0.00628181
0.00628185
0.00628189
0.00628193
0.006282
0.00628206
0.00628214
0.00628218
0.00628016
0.00612572
0.00621257
0.00628255
0.00628252
0.00628236
0.00628221
0.00628209
0.00628194
0.00628184
0.00628177
0.00628171
0.00628167
0.00628163
0.00627958
0.0062796
0.00627962
0.00627966
0.0062797
0.00627974
0.00627982
0.00627988
0.00627997
0.00628
0.0062775
0.00612394
0.00621062
0.00628036
0.00628033
0.00628017
0.00628001
0.00627989
0.00627974
0.00627963
0.00627956
0.0062795
0.00627946
0.00627942
0.00627739
0.00627741
0.00627743
0.00627747
0.00627752
0.00627756
0.00627764
0.00627771
0.0062778
0.00627782
0.00627486
0.00612213
0.00620863
0.00627818
0.00627815
0.00627799
0.00627782
0.00627769
0.00627753
0.00627743
0.00627735
0.00627728
0.00627725
0.0062772
0.0062752
0.00627522
0.00627524
0.00627528
0.00627533
0.00627538
0.00627546
0.00627553
0.00627563
0.00627564
0.00627223
0.00612031
0.00620662
0.00627599
0.00627597
0.0062758
0.00627562
0.00627549
0.00627533
0.00627522
0.00627514
0.00627507
0.00627503
0.00627499
0.00627301
0.00627303
0.00627306
0.00627309
0.00627314
0.00627319
0.00627328
0.00627336
0.00627346
0.00627345
0.00626956
0.0061185
0.00620461
0.00627381
0.00627379
0.00627362
0.00627343
0.00627329
0.00627313
0.00627302
0.00627293
0.00627286
0.00627282
0.00627277
0.00627082
0.00627084
0.00627087
0.00627091
0.00627096
0.00627101
0.00627111
0.00627118
0.00627129
0.00627127
0.00626684
0.00611673
0.00620263
0.00627163
0.00627161
0.00627144
0.00627124
0.0062711
0.00627093
0.00627081
0.00627072
0.00627065
0.00627061
0.00627056
0.00626863
0.00626865
0.00626868
0.00626872
0.00626878
0.00626883
0.00626893
0.00626901
0.00626912
0.00626909
0.00626414
0.00611494
0.00620064
0.00626945
0.00626944
0.00626926
0.00626905
0.0062689
0.00626873
0.00626861
0.00626852
0.00626845
0.0062684
0.00626835
0.00626644
0.00626646
0.00626649
0.00626653
0.00626659
0.00626665
0.00626675
0.00626684
0.00626696
0.00626691
0.00626145
0.00611315
0.00619864
0.00626728
0.00626726
0.00626707
0.00626686
0.00626671
0.00626653
0.00626641
0.00626631
0.00626624
0.00626619
0.00626614
0.00626425
0.00626427
0.0062643
0.00626435
0.00626441
0.00626447
0.00626458
0.00626467
0.00626479
0.00626472
0.00625877
0.00611135
0.00619663
0.0062651
0.00626509
0.00626489
0.00626467
0.00626451
0.00626432
0.0062642
0.0062641
0.00626403
0.00626398
0.00626393
0.00626206
0.00626208
0.00626212
0.00626216
0.00626222
0.00626229
0.00626241
0.0062625
0.00626263
0.00626254
0.0062561
0.00610954
0.00619461
0.00626292
0.00626291
0.00626271
0.00626248
0.00626232
0.00626212
0.006262
0.00626189
0.00626182
0.00626177
0.00626172
0.00625987
0.00625989
0.00625993
0.00625998
0.00626004
0.00626011
0.00626023
0.00626033
0.00626046
0.00626035
0.00625343
0.00610773
0.00619259
0.00626075
0.00626074
0.00626053
0.00626029
0.00626012
0.00625992
0.00625979
0.00625969
0.00625961
0.00625956
0.00625951
0.00625768
0.00625771
0.00625774
0.00625779
0.00625786
0.00625793
0.00625806
0.00625816
0.0062583
0.00625816
0.00625076
0.00610592
0.00619056
0.00625857
0.00625856
0.00625835
0.00625811
0.00625793
0.00625772
0.00625759
0.00625748
0.0062574
0.00625735
0.0062573
0.00625549
0.00625552
0.00625556
0.0062556
0.00625568
0.00625576
0.00625589
0.00625599
0.00625613
0.00625597
0.00624809
0.00610411
0.00618854
0.00625639
0.00625639
0.00625617
0.00625592
0.00625573
0.00625552
0.00625538
0.00625527
0.00625519
0.00625513
0.00625509
0.0062533
0.00625333
0.00625337
0.00625342
0.0062535
0.00625358
0.00625372
0.00625382
0.00625397
0.00625378
0.00624542
0.0061023
0.00618652
0.00625421
0.00625421
0.00625399
0.00625373
0.00625353
0.00625332
0.00625318
0.00625306
0.00625298
0.00625292
0.00625287
0.00625112
0.00625114
0.00625119
0.00625124
0.00625132
0.0062514
0.00625155
0.00625166
0.0062518
0.00625159
0.00624273
0.0061005
0.00618451
0.00625204
0.00625204
0.00625181
0.00625154
0.00625134
0.00625112
0.00625097
0.00625085
0.00625077
0.00625071
0.00625066
0.00631224
0.00631233
0.00631415
0.00631023
0.00631042
0.00631208
0.00630825
0.00630853
0.00631018
0.00630621
0.00630657
0.00630829
0.00630408
0.00630449
0.00630632
0.0063018
0.00502323
0.00499985
0.00630231
0.00630423
0.0063144
0.00631641
0.00631443
0.00631646
0.00631241
0.00631227
0.00631417
0.00631306
0.00631408
0.00631235
0.00631252
0.00631409
0.00631033
0.00631025
0.00631201
0.00631123
0.00630961
0.00631165
0.00630597
0.00631124
0.00631042
0.00631051
0.00631201
0.00630826
0.00630825
0.00631
0.00630925
0.00630327
0.00630478
0.00624657
0.00627965
0.00630852
0.00630852
0.00631001
0.00630618
0.00630621
0.006308
0.00630724
0.00630358
0.00630328
0.006289
0.00626102
0.00630656
0.0063065
0.00630802
0.0063017
0.00630178
0.00630448
0.00630442
0.00630598
0.00630226
0.00630254
0.00629957
0.00533051
0.00502736
0.00567034
0.00630005
0.00630201
0.00631187
0.00631297
0.00631302
0.00631292
0.00631123
0.00631408
0.00631306
0.00631144
0.00631299
0.00631308
0.00631297
0.00631186
0.00630522
0.00630913
0.00631098
0.00630478
0.00629017
0.00631074
0.00630553
0.00628197
0.00630571
0.00631113
0.00630832
0.00630188
0.00631172
0.00630851
0.00631136
0.00630323
0.00630322
0.006309
0.00628628
0.00629241
0.00628952
0.00628601
0.00625998
0.00624488
0.00630924
0.00629837
0.00629972
0.00630172
0.00629856
0.00630948
0.00628984
0.00629479
0.00629287
0.00628894
0.00630148
0.00629062
0.00630732
0.00630331
0.00630498
0.0062998
0.0063031
0.00630756
0.00629827
0.00629945
0.00629531
0.00629801
0.00630252
0.0063019
0.00630496
0.00630466
0.00630555
0.0062998
0.00629674
0.00629955
0.00629982
0.00630135
0.00630218
0.00631329
0.00631311
0.00631413
0.00631322
0.00631397
0.00630406
0.00630407
0.00630595
0.00630516
0.00630352
0.00630374
0.0062184
0.00617663
0.00630229
0.00630228
0.00630389
0.00631401
0.0063133
0.00631413
0.0063131
0.00631334
0.00630375
0.00630362
0.00630699
0.00511948
0.00529685
0.00588645
0.00599147
0.00530619
0.00551321
0.00616865
0.00609477
0.00630529
0.00630458
0.00630396
0.00600387
0.00606733
0.00630385
0.00630303
0.00630341
0.00631531
0.00631519
0.00631424
0.00631423
0.0063152
0.00631531
0.0063131
0.00631348
0.00631321
0.00631402
0.00631331
0.00631362
0.00630797
0.00630915
0.00626684
0.00626831
0.00627936
0.00627609
0.0063009
0.00609506
0.00630314
0.00625128
0.00622317
0.0062278
0.00625337
0.00630248
0.0062926
0.00631245
0.00625245
0.00630594
0.00624063
0.00631223
0.00630748
0.00631325
0.00631349
0.0063129
0.00629821
0.00631233
0.00631242
0.00629655
0.00629563
0.00630922
0.00630884
0.00629197
0.00629321
0.00630275
0.00631067
0.00631105
0.00631018
0.00631055
0.00630264
0.00631044
0.00631168
0.00631206
0.00631118
0.00631156
0.00631001
0.0062892
0.00628955
0.00628626
0.00628597
0.00622178
0.00622525
0.00629651
0.0063088
0.00630914
0.00630835
0.00630869
0.00629642
0.00630064
0.00630971
0.00631006
0.00630925
0.0063096
0.00630047
0.00512769
0.00629227
0.00530191
0.0050488
0.00555923
0.00531798
0.00629296
0.006285
0.00505899
0.00628599
0.00629826
0.00629751
0.00630135
0.0063079
0.00630824
0.00630744
0.00630778
0.00630172
0.00573081
0.00586379
0.00629667
0.0057627
0.00557621
0.00592178
0.0057835
0.00629705
0.00553398
0.00571068
0.00630239
0.00617888
0.00622291
0.00610389
0.00617014
0.0063023
0.00607677
0.00606385
0.00608677
0.00520866
0.00607473
0.0060547
0.0053288
0.00625149
0.00625392
0.00631381
0.00630188
0.00630182
0.0063038
0.00630299
0.00630237
0.00630311
0.00558866
0.00629714
0.00630007
0.00631383
0.00630295
0.00630347
0.00630489
0.00518082
0.00521714
0.00487162
0.00605892
0.00605656
0.00525443
0.00531925
0.00623976
0.00625066
0.00440274
0.0063146
0.00631464
0.0063141
0.00631407
0.00631464
0.0063146
0.00631065
0.00631151
0.00631112
0.00630631
0.00630505
0.00631033
0.00630362
0.00630947
0.0063091
0.00630996
0.00630959
0.00630383
0.00625669
0.00627537
0.00628491
0.00626353
0.00595551
0.00589743
0.00630244
0.00625612
0.00627444
0.00629051
0.00628989
0.00530205
0.00631363
0.00631341
0.00631406
0.00631182
0.0063082
0.00630586
0.00631256
0.0063127
0.0063131
0.00631219
0.00631257
0.00631241
0.00630676
0.00631047
0.00631009
0.00631099
0.0063106
0.00630732
0.00630115
0.00614362
0.00624129
0.00607494
0.00609129
0.00629233
0.00625092
0.00626106
0.00630714
0.00628601
0.00629766
0.00630516
0.00631042
0.00631058
0.00630936
0.0063096
0.00630221
0.00630898
0.00630862
0.00630315
0.00628773
0.00603187
0.0059739
0.00628784
0.00605079
0.00607029
0.00596341
0.00597506
0.00628555
0.00624464
0.00623319
0.00629728
0.0063082
0.00630834
0.00630738
0.00630787
0.00629847
0.00630131
0.00630907
0.00630929
0.00630838
0.00630853
0.00629952
0.00630033
0.00622394
0.00624071
0.00620141
0.00619207
0.00629403
0.00630494
0.00630696
0.00630732
0.00630647
0.00630684
0.00630497
0.00629891
0.00603102
0.00593749
0.00612965
0.00610146
0.00629908
0.0055324
0.00557118
0.00629976
0.00616011
0.0061382
0.0054835
0.00552064
0.00602793
0.00597089
0.00631356
0.00631382
0.00631367
0.00589137
0.00620287
0.00591947
0.0059527
0.00593889
0.0061975
0.00631373
0.00631357
0.00631389
0.00631335
0.00631363
0.00515341
0.00520604
0.00519324
0.00518362
0.00593736
0.00531924
0.00528336
0.0053965
0.00532945
0.00595085
0.00535858
0.00539872
0.00614104
0.00612854
0.00603534
0.00549875
0.00543161
0.00532588
0.00536102
0.00631269
0.00631317
0.00631343
0.00631274
0.00631308
0.00631247
0.00630646
0.00631013
0.0062583
0.00627386
0.00628393
0.00626525
0.00611153
0.00624829
0.00623627
0.006261
0.0062521
0.00610842
0.00620891
0.00619776
0.00623255
0.00621529
0.00624133
0.00604475
0.00608193
0.0059782
0.0060265
0.00623718
0.00586629
0.00588049
0.00627881
0.00631081
0.0063089
0.00631259
0.00631136
0.00628565
0.00629705
0.00629298
0.00630745
0.0062988
0.00631206
0.00631316
0.00631277
0.00631144
0.00631008
0.00631106
0.00630868
0.00631195
0.00630946
0.00631192
0.0063126
0.00630994
0.00631163
0.00631269
0.00631216
0.00631127
0.00611277
0.0061292
0.00629978
0.00597107
0.00589907
0.00615893
0.00598584
0.00579477
0.00572763
0.00587693
0.0058239
0.00629313
0.00609707
0.00610869
0.00623967
0.00622127
0.00629084
0.00625534
0.0062
0.00617998
0.00621806
0.00620513
0.00630759
0.00626337
0.00626975
0.00628737
0.00629696
0.00631003
0.00631032
0.00630388
0.00630234
0.00630968
0.00630994
0.00604878
0.00604202
0.00628816
0.00563418
0.00563649
0.00535543
0.00559975
0.0056147
0.0057045
0.00563071
0.00561501
0.00602181
0.00604429
0.00628737
0.00561922
0.00554874
0.00571166
0.0056407
0.0054146
0.00534309
0.00552124
0.005448
0.00628565
0.00598629
0.00601283
0.00623402
0.00623024
0.00630804
0.00630816
0.00629702
0.00629763
0.0063079
0.006308
0.00630881
0.006309
0.00630116
0.00629971
0.00630858
0.00630875
0.00513029
0.00517815
0.00608669
0.00612265
0.00603631
0.0060735
0.00510639
0.0054649
0.00616767
0.00611133
0.00613221
0.00615942
0.00541498
0.0058498
0.00587938
0.00575542
0.00583903
0.00509905
0.00598265
0.00602523
0.00589378
0.00596087
0.00509258
0.0062095
0.00621985
0.00629989
0.0061662
0.00618661
0.00619253
0.00616527
0.00618628
0.00629486
0.00618584
0.00620068
0.00578389
0.00511386
0.00512249
0.00525762
0.00513012
0.00580318
0.00519325
0.00559673
0.00512881
0.00562627
0.00613841
0.00627121
0.00626377
0.00628023
0.00627373
0.00614408
0.00604805
0.00605867
0.0055884
0.00562917
0.0053879
0.005468
0.00606811
0.00604129
0.00631448
0.00631462
0.00631627
0.00630314
0.00630285
0.00630199
0.00631427
0.00631431
0.00631397
0.0063139
0.00631429
0.00631427
0.00631529
0.00631524
0.00631429
0.00631203
0.00631164
0.00631094
0.00630609
0.00629821
0.00629713
0.00624922
0.00627818
0.00630801
0.00630765
0.00630339
0.00622487
0.00621921
0.00626174
0.00624442
0.00625298
0.00630249
0.0063124
0.00631256
0.00631216
0.00630366
0.00630632
0.00631162
0.00631277
0.00631234
0.00631277
0.00631044
0.00629026
0.00630247
0.00628331
0.00629599
0.00629454
0.00630495
0.00630623
0.00630631
0.006302
0.00631078
0.00631095
0.0063089
0.00630315
0.0063085
0.00630814
0.00607963
0.00605504
0.00629105
0.00625802
0.00623224
0.00623028
0.00624319
0.00629817
0.00630505
0.00630509
0.00630158
0.00630605
0.00630614
0.00630513
0.00630518
0.00629883
0.00628313
0.0061176
0.00609186
0.00630003
0.00630723
0.0063073
0.00630488
0.00630596
0.00630634
0.00518562
0.00518888
0.00618354
0.00616665
0.00629979
0.00518069
0.00518283
0.00627613
0.00627996
0.0063019
0.00631332
0.00631325
0.00511549
0.00512829
0.00514404
0.00528318
0.00531619
0.00509302
0.00511073
0.00525664
0.00522859
0.00548457
0.00603813
0.00602712
0.00610609
0.0055541
0.00551064
0.00604397
0.00631471
0.00631467
0.00631412
0.00631282
0.006313
0.00631317
0.00631329
0.00631204
0.00631226
0.00631351
0.00631377
0.00631362
0.00630364
0.00630308
0.00630715
0.00630968
0.00630775
0.00630671
0.00626275
0.00626979
0.00623798
0.00624206
0.0062815
0.006272
0.00622038
0.00622964
0.00612473
0.00612665
0.00617203
0.00616574
0.00609506
0.00613105
0.00613589
0.00630268
0.00625643
0.00626589
0.00628756
0.00626534
0.00629587
0.00629226
0.00631019
0.00630873
0.00630263
0.00619797
0.00618273
0.00628299
0.00625651
0.00621887
0.0063134
0.00631325
0.00631258
0.00631249
0.00631103
0.00631181
0.0063026
0.00631087
0.00631159
0.00627185
0.00628314
0.00631019
0.00616288
0.0061446
0.00629071
0.00629443
0.00631149
0.00631165
0.00631106
0.00630905
0.00631112
0.00631131
0.00629066
0.00605207
0.00604849
0.00622152
0.006227
0.0063056
0.00630567
0.0063008
0.00630017
0.00630547
0.00630553
0.00513577
0.00528196
0.00560435
0.00562809
0.00535126
0.00537456
0.0050424
0.00613736
0.00612275
0.00628406
0.00503675
0.00500898
0.00518946
0.00519367
0.00507315
0.00531852
0.00533467
0.00499428
0.00501228
0.00630709
0.00630716
0.00630021
0.00630237
0.00630695
0.00630702
0.00567199
0.00614555
0.00615618
0.00612295
0.00613427
0.00564014
0.00619907
0.00627597
0.006282
0.00628052
0.00627837
0.00620588
0.00611813
0.00618882
0.0061802
0.00605722
0.00604219
0.00607833
0.00526195
0.00528203
0.00529172
0.00517739
0.00609473
0.00564165
0.0055762
0.00570033
0.00565803
0.00604488
0.00586422
0.00586979
0.00609201
0.00612378
0.00626045
0.00631375
0.00631383
0.00631363
0.00518162
0.00519128
0.0055817
0.0055774
0.00483395
0.00529077
0.00521998
0.00522142
0.00519477
0.00520932
0.00530945
0.00442237
0.00605352
0.00606714
0.00631436
0.00631432
0.00631395
0.00630029
0.00629927
0.0063062
0.00630309
0.00630646
0.00630882
0.00630537
0.00630601
0.00625335
0.00627676
0.00619822
0.00620439
0.00620449
0.00619785
0.00626249
0.00621499
0.00621235
0.00594241
0.00585237
0.00585087
0.00586532
0.00586278
0.00592591
0.00630761
0.00631008
0.00631024
0.00630962
0.00630993
0.00630696
0.00628464
0.00630292
0.0062932
0.0062899
0.00630211
0.0063064
0.0063065
0.00623194
0.00623318
0.00625382
0.00623739
0.00630496
0.006305
0.00629769
0.0063059
0.00630597
0.00630145
0.00629921
0.00630524
0.00630529
0.00620223
0.00622311
0.00621425
0.00623043
0.0062277
0.00620041
0.00519325
0.00520155
0.00518174
0.00517987
0.0054965
0.0053085
0.00529714
0.00587493
0.00587421
0.00601043
0.00589947
0.00592296
0.00585726
0.00587519
0.0059902
0.00631349
0.00631341
0.00631346
0.00631346
0.00631374
0.00631378
0.00631388
0.00631358
0.00631366
0.00631364
0.00591275
0.0060641
0.00605456
0.00609085
0.00607695
0.00592465
0.00597526
0.00601954
0.00600039
0.00604693
0.0060371
0.00596028
0.00631366
0.00631372
0.00631362
0.0063128
0.00631224
0.00631345
0.0063133
0.00512031
0.00525707
0.00515455
0.00515208
0.00519053
0.00518711
0.00547933
0.00549885
0.00529876
0.00508329
0.00507927
0.00533165
0.00512181
0.00511127
0.00511916
0.00544452
0.00517456
0.00511737
0.00604979
0.00606768
0.006152
0.00600439
0.00600897
0.00599195
0.00599524
0.00611645
0.00602298
0.006031
0.00533276
0.00516369
0.00517901
0.00515378
0.00515254
0.00534315
0.00631295
0.00631305
0.00631285
0.00631198
0.00631242
0.00631281
0.00629913
0.0063067
0.00630231
0.00630131
0.00630354
0.00630438
0.00630163
0.00630265
0.00625996
0.00627134
0.00621139
0.00621356
0.00620671
0.00620915
0.00628288
0.0062442
0.00624567
0.00621184
0.00621482
0.00626809
0.0062136
0.00614186
0.00612905
0.00610132
0.00616048
0.0061537
0.00620426
0.0061417
0.00614007
0.00616109
0.00615
0.006201
0.00622811
0.00617176
0.00617839
0.00614727
0.00616007
0.00622218
0.00613728
0.00599415
0.00611297
0.00610317
0.00585547
0.0058634
0.00627576
0.00629892
0.00629741
0.00627209
0.0062915
0.00630485
0.00630131
0.00622271
0.00620968
0.00626867
0.00627153
0.00629444
0.00624998
0.0062366
0.00630694
0.00630886
0.00631199
0.00631018
0.00630443
0.00629665
0.00630403
0.00631065
0.00631151
0.00631176
0.0063105
0.00631093
0.00630903
0.00630675
0.00630887
0.00631212
0.00631145
0.00631102
0.00631229
0.00631166
0.00631234
0.00631035
0.00631061
0.00630963
0.00631078
0.00595255
0.00592424
0.00611007
0.00589053
0.00591564
0.00583845
0.0059991
0.00576916
0.00574682
0.00585773
0.00584151
0.00623024
0.00614261
0.0061632
0.00610179
0.00612144
0.00622494
0.00628679
0.00625433
0.00626392
0.00617517
0.00623155
0.00627696
0.00612762
0.0060948
0.00619479
0.00597592
0.00599533
0.00594324
0.00595931
0.00618896
0.00621481
0.0060693
0.00608443
0.00601735
0.00604207
0.00621017
0.00628945
0.00629598
0.0056447
0.00537589
0.00541353
0.00529919
0.00533569
0.00564207
0.00541962
0.00543257
0.00543082
0.00551565
0.00562841
0.00510446
0.00513843
0.0051733
0.00511037
0.00565823
0.00562514
0.00523578
0.00526597
0.00517706
0.00520862
0.00561975
0.00560139
0.00558041
0.00569486
0.00566587
0.00538498
0.00535844
0.0054977
0.00547798
0.00622625
0.00622855
0.00630096
0.00630574
0.00630582
0.00630535
0.0063054
0.00629989
0.00513947
0.00552197
0.00557062
0.00524652
0.00505528
0.00541174
0.00546443
0.00509937
0.00506674
0.00585894
0.00542683
0.00542376
0.00579702
0.00536035
0.00527123
0.00541798
0.00540087
0.00582335
0.00517391
0.00513504
0.00525239
0.00529559
0.00508835
0.00507232
0.00516587
0.00621414
0.00625584
0.00625247
0.00626074
0.00625837
0.006217
0.00617305
0.00618256
0.00618268
0.00616522
0.00616491
0.00617195
0.00618502
0.00623693
0.00623311
0.00624775
0.00624215
0.00619114
0.00511237
0.00528901
0.00530708
0.00526249
0.00527548
0.00511645
0.00521208
0.00541484
0.00545216
0.00533446
0.00537253
0.00516669
0.00518578
0.00507263
0.00507947
0.00509583
0.00508227
0.00513245
0.00521802
0.0052458
0.00511361
0.00516674
0.00512556
0.0062018
0.00619623
0.00613109
0.00604646
0.00607094
0.00522029
0.00525108
0.00541895
0.0052189
0.00517719
0.0052829
0.00525999
0.0054471
0.0051855
0.00518468
0.00586686
0.00586661
0.00631904
0.00631903
0.00632014
0.00631901
0.00631901
0.00632013
0.00631901
0.00631901
0.00632013
0.00631902
0.00631904
0.00632014
0.00631683
0.00631681
0.00631792
0.00631679
0.00631676
0.00631847
0.00631674
0.00631671
0.00631844
0.00631671
0.00631675
0.00631845
0.00631678
0.00631682
0.00631848
0.00631685
0.00631687
0.00631795
0.00631465
0.0063146
0.00631625
0.00631456
0.00631445
0.00631619
0.00631556
0.00631554
0.00631644
0.00631547
0.00631551
0.00631641
0.00631563
0.00631567
0.00631622
0.00631467
0.00631472
0.00631579
0.00631251
0.00631245
0.00631406
0.00631348
0.00631346
0.006314
0.00631383
0.00631381
0.00631409
0.00631338
0.0063135
0.0063143
0.00631256
0.00631262
0.00631367
0.0063104
0.00631035
0.00631192
0.00631136
0.00631136
0.00631188
0.00631173
0.00631173
0.00631198
0.00631137
0.00631146
0.00631221
0.00631052
0.00631056
0.00631159
0.00630829
0.00630828
0.00630983
0.0063093
0.00630932
0.00630983
0.00630974
0.00630974
0.00630998
0.00630947
0.00630951
0.00631023
0.00630851
0.0063085
0.00630953
0.00630617
0.00630618
0.00630775
0.00630723
0.00630726
0.00630778
0.00630775
0.00630776
0.00630801
0.00630755
0.00630753
0.00630828
0.00630648
0.00630643
0.00630747
0.00630404
0.00630405
0.00630565
0.00630569
0.0063057
0.00630596
0.00630554
0.00630547
0.00630625
0.00630439
0.00630433
0.00630539
0.00630188
0.00630188
0.00630352
0.0063034
0.00630339
0.00630392
0.00630224
0.0063022
0.00630327
0.00629965
0.00629962
0.00630072
0.00629964
0.00629959
0.00630125
0.00630068
0.00629975
0.00630058
0.00518122
0.00621697
0.00622377
0.00630007
0.0063001
0.00630174
0.00630003
0.00630004
0.00630112
0.00629747
0.00629743
0.00629853
0.00629746
0.00629739
0.00629904
0.00629735
0.00566161
0.00565144
0.00596392
0.00629783
0.0062995
0.00629784
0.0062979
0.00629952
0.00629783
0.00629784
0.00629894
0.00629527
0.00629523
0.00629633
0.00629332
0.00596608
0.00566449
0.00613881
0.0062954
0.00629726
0.00629567
0.0062957
0.0062968
0.00631224
0.00631249
0.0063125
0.00631257
0.00631266
0.00631226
0.00631413
0.00631386
0.00631387
0.00631023
0.00631048
0.00631048
0.00631065
0.00631064
0.00631029
0.00631213
0.00631175
0.00631184
0.00630826
0.00630851
0.0063085
0.00630877
0.00630878
0.00630844
0.00631017
0.00630982
0.00630995
0.00630622
0.00630648
0.00630647
0.00630682
0.00630688
0.00630652
0.00630832
0.00630797
0.00630805
0.00630476
0.00630473
0.00630447
0.00630627
0.00630602
0.00630606
0.00630086
0.00630212
0.0063027
0.00483394
0.00549727
0.00550379
0.00581816
0.0058197
0.00443381
0.0063042
0.00630394
0.00630396
0.00631429
0.00631523
0.00631527
0.006314
0.006314
0.00631391
0.00631641
0.0063155
0.00631547
0.00631399
0.006314
0.00631471
0.00631469
0.0063144
0.00631645
0.00631555
0.00631558
0.0063124
0.00631293
0.00631294
0.00631306
0.00631291
0.00631239
0.00631398
0.00631344
0.00631334
0.0063132
0.00631316
0.00631288
0.00631405
0.00631389
0.00631392
0.00631246
0.00631324
0.00631312
0.00631304
0.00631304
0.00631253
0.00631408
0.00631355
0.00631356
0.00631034
0.00631085
0.00631084
0.006311
0.00631085
0.00631035
0.00631188
0.00631136
0.00631125
0.00631122
0.00631148
0.00631148
0.00631
0.00631088
0.00631069
0.00631189
0.00631174
0.00631143
0.00631044
0.00630957
0.00631092
0.00631048
0.00631121
0.00631113
0.00631101
0.00631104
0.00631055
0.00631203
0.00631153
0.00631151
0.00630829
0.00630881
0.00630878
0.006309
0.00630883
0.00630832
0.00630984
0.00630934
0.00630925
0.00630925
0.00630949
0.00630949
0.00630335
0.00630783
0.00630772
0.0063087
0.00630851
0.0063044
0.00630853
0.00630926
0.00630924
0.00630902
0.00630907
0.00630858
0.00631005
0.00630956
0.00630951
0.00630622
0.00630674
0.00630671
0.00630699
0.00630678
0.00630626
0.00630781
0.0063073
0.00630724
0.00630725
0.00630751
0.0063075
0.00630344
0.00630752
0.00630715
0.00630687
0.00630679
0.00630331
0.00628739
0.00625237
0.00625695
0.00630651
0.00630727
0.00630731
0.00630701
0.00630707
0.00630657
0.00630808
0.00630758
0.00630751
0.00630147
0.00627741
0.00628265
0.00629276
0.00629368
0.00630205
0.00630445
0.00630498
0.00630528
0.00630494
0.00630501
0.00630448
0.00630605
0.00630553
0.00630547
0.00630233
0.00629935
0.00629949
0.00629769
0.00629808
0.00630253
0.00629903
0.00629947
0.00630012
0.00530836
0.00628961
0.00628861
0.00605898
0.00606332
0.0050458
0.00629637
0.00629694
0.00561042
0.0063006
0.00630038
0.00629975
0.00630171
0.00630066
0.00630117
0.00631206
0.00631219
0.00631204
0.0063131
0.00631269
0.00631255
0.00631276
0.00631275
0.00631301
0.00631278
0.00631234
0.00631289
0.00631393
0.0063139
0.00631406
0.00631301
0.00631317
0.0063132
0.00631158
0.00631102
0.00631082
0.00631297
0.00631289
0.00631292
0.00631306
0.0063128
0.00631282
0.00631284
0.00631288
0.00631301
0.00631207
0.0063122
0.00631209
0.0063057
0.00630911
0.0063089
0.00631048
0.00631025
0.00630853
0.00631073
0.00631073
0.00631098
0.00630381
0.00629363
0.00629642
0.00626232
0.00626355
0.00629084
0.00629822
0.00629949
0.00630613
0.00631113
0.00631076
0.00631089
0.00630796
0.00630947
0.00630968
0.00631121
0.00631179
0.00631193
0.00630984
0.00630996
0.00630864
0.0063116
0.00631162
0.00631125
0.00630319
0.00630704
0.00630696
0.00630761
0.00630751
0.00630319
0.00630875
0.00630876
0.006309
0.00628678
0.00625462
0.0062533
0.00626841
0.00626713
0.00629193
0.00628893
0.00626005
0.00626117
0.00625238
0.00625181
0.0062857
0.00630924
0.0063089
0.00630901
0.00630546
0.0063054
0.00629953
0.00630971
0.0063097
0.00630936
0.0062907
0.00620943
0.00619469
0.00626027
0.00625762
0.00629423
0.00629333
0.00627096