/*--------------------------------*- C++ -*----------------------------------*\
| =========                 |                                                 |
| \\      /  F ield         | OpenFOAM: The Open Source CFD Toolbox           |
|  \\    /   O peration     | Version:  5.x                                   |
|   \\  /    A nd           | Web:      www.OpenFOAM.org                      |
|    \\/     M anipulation  |                                                 |
\*---------------------------------------------------------------------------*/
FoamFile
{
    version     2.0;
    format      ascii;
    class       volScalarField;
    location    "300";
    object      YSat;
}
// * * * * * * * * * * * * * * * * * * * * * * * * * * * * * * * * * * * * * //

dimensions      [0 0 0 0 0 0 0];

internalField   nonuniform List<scalar> 
6584
(
0.00431405
0.00431405
0.00431405
0.00431405
0.00431405
0.00431405
0.00431405
0.00431405
0.00431405
0.00431405
0.00431405
0.00431405
0.00431405
0.00431405
0.00431405
0.00431405
0.00431405
0.00431405
0.00431405
0.00431405
0.00431405
0.00431405
0.00431405
0.00431405
0.00431405
0.00431405
0.00431405
0.00431405
0.00431405
0.00431405
0.00431405
0.00431405
0.00431405
0.00431405
0.00431405
0.00431405
0.00431405
0.00431405
0.00431405
0.00431405
0.00431405
0.00431405
0.00431405
0.00431405
0.00431405
0.00431405
0.00431405
0.00431405
0.00431405
0.00431405
0.00431405
0.00431405
0.00431405
0.00431405
0.00431405
0.00431405
0.00431405
0.00431405
0.00431405
0.00431405
0.00431405
0.00431405
0.00431405
0.00431405
0.00431405
0.00431405
0.00431405
0.00431405
0.00431405
0.00431405
0.00431405
0.00431405
0.00431405
0.00431405
0.00431405
0.00431405
0.00431405
0.00431405
0.00431405
0.00431405
0.00431405
0.00431405
0.00431405
0.00431405
0.00431405
0.00431405
0.00431405
0.00431405
0.00431405
0.00431405
0.00431405
0.00431405
0.00431405
0.00431405
0.00431405
0.00431405
0.00431405
0.00431405
0.00431405
0.00431405
0.00431405
0.00431405
0.00431405
0.00431405
0.00431405
0.00431405
0.00431405
0.00431405
0.00431405
0.00431405
0.00431405
0.00431405
0.00431405
0.00431405
0.00431405
0.00431405
0.00431405
0.00431405
0.00431405
0.00431405
0.00431405
0.00431405
0.00431405
0.00431405
0.00431405
0.00431405
0.00431405
0.00431405
0.00431405
0.00431405
0.00431405
0.00431405
0.00431405
0.00431405
0.00431405
0.00431405
0.00431405
0.00431405
0.00431405
0.00431405
0.00431405
0.00431405
0.00431405
0.00431405
0.00431405
0.00431405
0.00431405
0.00431405
0.00431405
0.00431405
0.00431405
0.00431405
0.00431405
0.00431405
0.00431405
0.00431405
0.00431405
0.00431405
0.00431405
0.00431405
0.00431405
0.00431405
0.00431405
0.00431405
0.00431405
0.00431405
0.00431405
0.00431405
0.00431405
0.00431405
0.00431405
0.00431405
0.00431405
0.00431405
0.00431405
0.00431405
0.00431405
0.00431405
0.00431405
0.00431405
0.00431405
0.00431405
0.00431405
0.00431405
0.00431405
0.00431405
0.00431405
0.00431405
0.00431405
0.00431405
0.00431405
0.00431405
0.00431405
0.00431405
0.00431405
0.00431405
0.00431405
0.00431405
0.00431405
0.00431405
0.00431405
0.00431405
0.00431405
0.00431405
0.00431405
0.00431405
0.00431405
0.00431405
0.00431405
0.00431405
0.00431405
0.00431405
0.00431405
0.00431405
0.00431405
0.00431405
0.00431405
0.00431405
0.00431405
0.00431405
0.00431405
0.00431405
0.00431405
0.00431405
0.00431405
0.00431405
0.00431405
0.00431405
0.00431405
0.00431405
0.00431405
0.00431405
0.00431405
0.00431405
0.00431405
0.00431405
0.00431405
0.00431405
0.00431405
0.00431405
0.00431405
0.00431405
0.00431405
0.00431405
0.00431405
0.00431405
0.00431405
0.00431405
0.00431405
0.00431405
0.00431405
0.00431405
0.00431405
0.00431405
0.00431405
0.00431405
0.00431405
0.00431405
0.00431405
0.00431405
0.00431405
0.00431405
0.00431405
0.00431405
0.00431405
0.00431405
0.00431405
0.00431405
0.00431405
0.00431405
0.00431405
0.00431405
0.00431405
0.00431405
0.00431405
0.00431405
0.00431405
0.00431405
0.00431405
0.00431405
0.00431405
0.00431405
0.00431405
0.00431405
0.00431405
0.00431405
0.00431405
0.00431405
0.00431405
0.00431405
0.00431405
0.00431405
0.00431405
0.00431405
0.00431405
0.00431405
0.00431405
0.00431405
0.00431405
0.00431405
0.00431405
0.00431405
0.00431405
0.00431405
0.00431405
0.00431405
0.00431405
0.00431405
0.00431405
0.00431405
0.00431405
0.00431405
0.00431405
0.00431405
0.00431405
0.00431405
0.00431405
0.00431405
0.00363994
0.00431405
0.00431405
0.00431405
0.00431405
0.00431405
0.00431405
0.00431405
0.00431405
0.00431405
0.00431405
0.00431405
0.00431405
0.00431405
0.00431405
0.00431405
0.00431405
0.00431405
0.00431405
0.00431405
0.00431405
0.00431405
0.00431405
0.00431405
0.00411546
0.00431405
0.00431405
0.00431405
0.00431405
0.00431405
0.00431405
0.00431405
0.00431405
0.00431405
0.00431405
0.00431405
0.00431405
0.00431405
0.00431405
0.00431405
0.00431405
0.00431405
0.00431405
0.00431405
0.00431405
0.00431405
0.00431405
0.00431404
0.00413118
0.00431405
0.00431405
0.00431405
0.00431405
0.00431405
0.00431405
0.00431405
0.00431405
0.00431405
0.00431405
0.00431405
0.00431405
0.00431405
0.00431405
0.00431405
0.00431405
0.00431405
0.00431405
0.00431405
0.00431405
0.00431405
0.00431405
0.00431262
0.00422709
0.00431405
0.00431405
0.00431405
0.00431405
0.00431405
0.00431405
0.00431405
0.00431405
0.00431405
0.00431405
0.00431405
0.00431405
0.00431405
0.00431405
0.00431405
0.00431405
0.00431405
0.00431405
0.00431405
0.00431405
0.00431405
0.00431405
0.0043119
0.00422945
0.00431405
0.00431405
0.00431405
0.00431405
0.00431405
0.00431405
0.00431405
0.00431405
0.00431405
0.00431405
0.00431405
0.00431405
0.00431405
0.00431405
0.00431405
0.00431405
0.00431405
0.00431405
0.00431405
0.00431405
0.00431405
0.00431379
0.00423574
0.00427419
0.00431404
0.00431405
0.00431405
0.00431405
0.00431405
0.00431405
0.00431405
0.00431405
0.00431405
0.00431405
0.00431405
0.00431405
0.00431405
0.00431405
0.00431405
0.00431405
0.00431405
0.00431405
0.00431405
0.00431405
0.00431405
0.00431354
0.00423607
0.00427446
0.00431404
0.00431405
0.00431405
0.00431405
0.00431405
0.00431405
0.00431405
0.00431405
0.00431405
0.00431405
0.00431405
0.00431405
0.00431405
0.00431405
0.00431405
0.00431405
0.00431405
0.00431405
0.00431405
0.00431405
0.00431404
0.00431329
0.00423637
0.0042747
0.00431403
0.00431405
0.00431405
0.00431405
0.00431405
0.00431405
0.00431405
0.00431405
0.00431405
0.00431405
0.00431405
0.00431405
0.00431405
0.00431405
0.00431405
0.00431405
0.00431405
0.00431405
0.00431405
0.00431405
0.00431404
0.00431304
0.00423666
0.0042749
0.00431403
0.00431405
0.00431405
0.00431405
0.00431405
0.00431405
0.00431405
0.00431405
0.00431405
0.00431405
0.00431405
0.00431405
0.00431405
0.00431405
0.00431405
0.00431405
0.00431405
0.00431405
0.00431405
0.00431405
0.00431404
0.00431279
0.00423693
0.00427507
0.00431402
0.00431405
0.00431405
0.00431405
0.00431405
0.00431405
0.00431405
0.00431405
0.00431405
0.00431405
0.00431405
0.00431405
0.00431405
0.00431405
0.00431405
0.00431405
0.00431405
0.00431405
0.00431405
0.00431405
0.00431403
0.00431256
0.0042372
0.00427523
0.00431402
0.00431405
0.00431405
0.00431405
0.00431405
0.00431405
0.00431405
0.00431405
0.00431405
0.00431405
0.00431405
0.00431405
0.00431405
0.00431405
0.00431405
0.00431405
0.00431405
0.00431405
0.00431405
0.00431405
0.00431403
0.00431233
0.00423746
0.00427538
0.00431401
0.00431405
0.00431405
0.00431405
0.00431405
0.00431405
0.00431405
0.00431405
0.00431405
0.00431405
0.00431405
0.00431405
0.00431405
0.00431405
0.00431405
0.00431405
0.00431405
0.00431405
0.00431405
0.00431405
0.00431402
0.00431208
0.00423773
0.00427553
0.00431401
0.00431405
0.00431405
0.00431405
0.00431405
0.00431405
0.00431405
0.00431405
0.00431405
0.00431405
0.00431405
0.00431405
0.00431405
0.00431405
0.00431405
0.00431405
0.00431405
0.00431405
0.00431405
0.00431405
0.00431401
0.00431181
0.00423801
0.00427569
0.004314
0.00431405
0.00431405
0.00431405
0.00431405
0.00431405
0.00431405
0.00431405
0.00431405
0.00431405
0.00431405
0.00431405
0.00431405
0.00431405
0.00431405
0.00431405
0.00431405
0.00431405
0.00431405
0.00431405
0.00431401
0.00431154
0.00423828
0.00427585
0.004314
0.00431405
0.00431405
0.00431405
0.00431405
0.00431405
0.00431405
0.00431405
0.00431405
0.00431405
0.00431405
0.00431405
0.00431405
0.00431405
0.00431405
0.00431405
0.00431405
0.00431405
0.00431405
0.00431405
0.004314
0.00431128
0.00423856
0.004276
0.004314
0.00431405
0.00431405
0.00431405
0.00431405
0.00431405
0.00431405
0.00431405
0.00431405
0.00431405
0.00431405
0.00431405
0.00431405
0.00431405
0.00431405
0.00431405
0.00431405
0.00431405
0.00431405
0.00431405
0.00431399
0.00431103
0.00423883
0.00427615
0.00431399
0.00431405
0.00431405
0.00431405
0.00431405
0.00431405
0.00431405
0.00431405
0.00431405
0.00431405
0.00431405
0.00431405
0.00431405
0.00431405
0.00431405
0.00431405
0.00431405
0.00431405
0.00431405
0.00431405
0.00431397
0.00431077
0.0042391
0.00427629
0.00431399
0.00431405
0.00431405
0.00431405
0.00431405
0.00431405
0.00431405
0.00431405
0.00431405
0.00431405
0.00431405
0.00431405
0.00431405
0.00431405
0.00431405
0.00431405
0.00431405
0.00431405
0.00431405
0.00431405
0.00431396
0.00431052
0.00423936
0.00427643
0.00431398
0.00431405
0.00431405
0.00431405
0.00431405
0.00431405
0.00431405
0.00431405
0.00431405
0.00431405
0.00431405
0.00431405
0.00431405
0.00431405
0.00431405
0.00431405
0.00431405
0.00431405
0.00431405
0.00431405
0.00431395
0.00431028
0.00423963
0.00427657
0.00431398
0.00431405
0.00431405
0.00431405
0.00431405
0.00431405
0.00431405
0.00431405
0.00431405
0.00431405
0.00431405
0.00431405
0.00431405
0.00431405
0.00431405
0.00431405
0.00431405
0.00431405
0.00431405
0.00431405
0.00431393
0.00431003
0.0042399
0.00427671
0.00431397
0.00431405
0.00431405
0.00431405
0.00431405
0.00431405
0.00431405
0.00431405
0.00431405
0.00431405
0.00431405
0.00431405
0.00431405
0.00431405
0.00431405
0.00431405
0.00431405
0.00431405
0.00431405
0.00431405
0.00431392
0.00430977
0.00424018
0.00427685
0.00431397
0.00431405
0.00431405
0.00431405
0.00431405
0.00431405
0.00431405
0.00431405
0.00431405
0.00431405
0.00431405
0.00431405
0.00431405
0.00431405
0.00431405
0.00431405
0.00431405
0.00431405
0.00431405
0.00431405
0.0043139
0.00430952
0.00424045
0.004277
0.00431396
0.00431405
0.00431405
0.00431405
0.00431405
0.00431405
0.00431405
0.00431405
0.00431405
0.00431405
0.00431405
0.00431405
0.00431405
0.00431405
0.00431405
0.00431405
0.00431405
0.00431405
0.00431405
0.00431405
0.00431405
0.00431405
0.00431405
0.00431405
0.00431405
0.00431405
0.00431405
0.0036644
0.00361748
0.00431405
0.00431405
0.00431405
0.00431405
0.00431405
0.00431405
0.00431405
0.00431405
0.00431405
0.00431404
0.00431405
0.00431405
0.00431405
0.00431405
0.00431405
0.00431405
0.00431405
0.00431405
0.00431321
0.00431389
0.00431106
0.00431365
0.00431405
0.00431405
0.00431405
0.00431405
0.00431405
0.00431405
0.00431405
0.00431076
0.00431111
0.00427706
0.00429611
0.00431405
0.00431405
0.00431405
0.00431405
0.00431405
0.00431405
0.00431405
0.0043121
0.00431142
0.00430303
0.00428599
0.00431405
0.00431405
0.00431405
0.00431181
0.00431129
0.00431405
0.00431405
0.00431405
0.00431344
0.00431303
0.00431405
0.00382683
0.00366645
0.00396623
0.00431405
0.00431405
0.00431394
0.00431405
0.00431405
0.00431404
0.00431359
0.00431405
0.00431404
0.00431373
0.00431404
0.00431405
0.00431405
0.00431393
0.00431128
0.00431301
0.00431405
0.0043105
0.00430281
0.00431337
0.00431089
0.00429745
0.00431094
0.00431405
0.00431247
0.00430917
0.00431389
0.00431255
0.00431405
0.00431132
0.0043108
0.00431405
0.00430147
0.00430557
0.0043025
0.00430127
0.00428535
0.00427609
0.00431405
0.00430761
0.00430887
0.0043091
0.0043077
0.00431405
0.00430502
0.00430818
0.00430587
0.00430445
0.00431107
0.00430403
0.00431405
0.00431161
0.00431316
0.00430896
0.00431144
0.00431405
0.00431065
0.00431175
0.00430853
0.00431044
0.00431294
0.00431201
0.00431322
0.00431357
0.00431405
0.0043126
0.00431174
0.00431188
0.00431254
0.00431363
0.00431349
0.00431405
0.00431405
0.00431405
0.00431396
0.00431405
0.00431405
0.00431405
0.00431405
0.00431405
0.00431322
0.00431283
0.00426423
0.00423966
0.00431405
0.00431405
0.00431405
0.00431405
0.00431399
0.00431405
0.00431405
0.00431405
0.00431276
0.00431219
0.00431405
0.00372899
0.00381664
0.00411279
0.00416545
0.00382115
0.00392367
0.00423501
0.00419239
0.00431405
0.00431361
0.00431379
0.00417168
0.00420386
0.0043138
0.00431389
0.00431405
0.00431405
0.00431405
0.00431405
0.00431405
0.00431405
0.00431405
0.00431392
0.00431405
0.00431399
0.00431405
0.00431401
0.00431405
0.00431201
0.00431266
0.0042888
0.00428964
0.00429708
0.0042951
0.00431111
0.00419224
0.00431237
0.00428385
0.00426706
0.00426925
0.00428452
0.00431324
0.00430223
0.00431399
0.00427908
0.00431003
0.00427224
0.00431394
0.00431089
0.00431398
0.00431405
0.0043138
0.00430547
0.00431398
0.004314
0.00430608
0.0043056
0.00431271
0.00431253
0.00430311
0.00430381
0.00430942
0.00431401
0.00431403
0.00431399
0.00431401
0.00430939
0.00431341
0.00431404
0.00431405
0.00431403
0.00431404
0.00431319
0.00430343
0.00430367
0.004301
0.00430089
0.00426272
0.00426473
0.00430672
0.00431399
0.00431399
0.004314
0.00431399
0.0043067
0.00430868
0.00431399
0.00431399
0.00431399
0.00431399
0.00430862
0.00373234
0.00430655
0.00381794
0.00367896
0.0039495
0.00382747
0.00430699
0.00430199
0.00368057
0.00430261
0.00430888
0.0043084
0.00431011
0.00431401
0.004314
0.00431401
0.00431401
0.00431037
0.0040337
0.00410153
0.00430945
0.00405063
0.00395828
0.00412991
0.00406102
0.00430972
0.00393409
0.00402342
0.00431262
0.00424057
0.00426636
0.0041973
0.00423549
0.00431249
0.00418211
0.00420317
0.00421499
0.00376137
0.00420761
0.0041985
0.00378256
0.00428458
0.00428545
0.00431404
0.00431405
0.00431405
0.00431405
0.00431405
0.00431377
0.00431372
0.00392185
0.0043119
0.00431306
0.00431404
0.0043135
0.00431326
0.00431405
0.00373449
0.00375385
0.00358411
0.00420187
0.00420193
0.0037739
0.00380928
0.0042786
0.00428428
0.00332986
0.00431405
0.00431405
0.00431405
0.00431405
0.00431405
0.00431405
0.0043136
0.00431404
0.00431403
0.00431117
0.00431002
0.00431322
0.00431074
0.004314
0.004314
0.004314
0.004314
0.00431078
0.00428294
0.00429368
0.0043005
0.00428755
0.00411721
0.00408421
0.0043133
0.00428618
0.0042972
0.00430907
0.00430924
0.00381221
0.00431405
0.00431403
0.00431405
0.00431384
0.00431174
0.00431047
0.00431404
0.00431405
0.00431405
0.00431405
0.00431405
0.00431403
0.00431194
0.00431402
0.00431401
0.00431403
0.00431402
0.00431219
0.00430854
0.00421869
0.00427412
0.00418144
0.00419025
0.0043039
0.00427957
0.0042852
0.0043117
0.00429973
0.00430631
0.00431072
0.00431376
0.00431378
0.00431354
0.00431358
0.00430927
0.004314
0.004314
0.00431099
0.00430242
0.00416003
0.00412747
0.00430169
0.00416844
0.00417896
0.00412151
0.00412748
0.00430086
0.00427624
0.00426931
0.00430706
0.00431353
0.00431351
0.00431345
0.00431364
0.00430803
0.00430896
0.00431351
0.00431353
0.0043135
0.00431349
0.00430818
0.00431027
0.00426559
0.00427547
0.00425189
0.00424663
0.00430617
0.00431284
0.00431402
0.00431402
0.00431403
0.00431402
0.00431293
0.00431119
0.00418453
0.00413778
0.00423188
0.0042179
0.00431135
0.00392921
0.00395157
0.00431221
0.0042471
0.00423612
0.00390086
0.00392236
0.00415853
0.00412601
0.00431403
0.00431404
0.00431404
0.00407979
0.00425504
0.00409486
0.0041138
0.00410554
0.00425188
0.00431405
0.00431401
0.00431405
0.00431391
0.00431404
0.00374535
0.00377158
0.00374112
0.00373598
0.00413825
0.00380853
0.00378913
0.00385043
0.00381412
0.00414505
0.00384661
0.00386653
0.004219
0.00421179
0.00418757
0.0039061
0.00386939
0.00381314
0.00383302
0.00431379
0.00431403
0.00431404
0.00431395
0.00431402
0.0043137
0.00431122
0.00431314
0.00428386
0.00429282
0.00429988
0.0042886
0.00420154
0.0042804
0.0042733
0.00428795
0.00428265
0.00419978
0.00425724
0.00425065
0.0042711
0.00426098
0.00427788
0.00416621
0.00418767
0.00412821
0.00415579
0.00427539
0.00406674
0.00407394
0.00429432
0.00431299
0.00431199
0.00431386
0.00431327
0.00429827
0.00430527
0.00430301
0.00431119
0.00430625
0.00431345
0.00431403
0.00431393
0.00431306
0.0043123
0.00431329
0.00431199
0.00431388
0.00431234
0.00431362
0.00431391
0.00431259
0.00431349
0.00431403
0.00431379
0.00431338
0.00420172
0.00421064
0.0043078
0.00412181
0.00408222
0.00422712
0.00412991
0.00402562
0.00398952
0.00407013
0.00404143
0.00430431
0.00419338
0.00419954
0.00427235
0.00426195
0.00430181
0.00428135
0.00425017
0.00423902
0.00426019
0.00425302
0.00431193
0.00428646
0.00428997
0.0043005
0.00430592
0.00431367
0.00431374
0.00430999
0.00430931
0.0043136
0.00431365
0.00417017
0.00416583
0.00430271
0.00394214
0.00394423
0.00379437
0.00392348
0.00393463
0.00398449
0.00394145
0.00393426
0.00415279
0.00416493
0.00430147
0.00393189
0.00389476
0.00398105
0.00394325
0.00382474
0.00378788
0.00388031
0.00384213
0.00430087
0.00413358
0.00414792
0.00426997
0.0042676
0.00431357
0.00431354
0.00430694
0.00430751
0.00431362
0.00431358
0.00431349
0.0043135
0.0043089
0.00430826
0.00431349
0.00431349
0.00372937
0.00375211
0.00420197
0.0042212
0.0041741
0.00419479
0.00371484
0.00390227
0.00424482
0.00421674
0.00422628
0.00424053
0.0038776
0.00406628
0.00408464
0.0040125
0.00405969
0.00369119
0.00414344
0.00416774
0.0040932
0.00413122
0.00368515
0.00425701
0.00426317
0.00430997
0.00423219
0.0042438
0.00424758
0.00423171
0.00424355
0.0043067
0.00424308
0.00425185
0.00406088
0.00369952
0.00370429
0.00377539
0.00370801
0.00407072
0.00374114
0.00396573
0.00370776
0.00398065
0.00421712
0.00429407
0.00428961
0.00429951
0.00429558
0.0042204
0.00416571
0.0041717
0.00396126
0.00398456
0.00384779
0.00389204
0.004182
0.00416623
0.00431405
0.00431405
0.00431405
0.00431405
0.00431396
0.00431397
0.00431405
0.00431405
0.00431405
0.00431405
0.00431405
0.00431405
0.00431405
0.00431405
0.00431405
0.00431405
0.00431404
0.00431369
0.0043111
0.00430647
0.00430587
0.0042786
0.00429528
0.00431401
0.00431401
0.0043117
0.0042648
0.00426152
0.00428644
0.00427767
0.00428279
0.00431183
0.00431402
0.00431405
0.00431405
0.00430923
0.00431066
0.00431373
0.00431399
0.00431386
0.00431404
0.00431327
0.0043016
0.00430857
0.00429821
0.00430523
0.00430441
0.00431053
0.00431173
0.00431174
0.0043092
0.00431383
0.00431387
0.00431268
0.00431106
0.004314
0.00431401
0.00418957
0.0041751
0.00430469
0.00428417
0.00426905
0.00426793
0.00427512
0.00430753
0.00431161
0.0043116
0.00430906
0.00431169
0.0043117
0.00431159
0.00431159
0.00430783
0.00430079
0.00421161
0.00419658
0.00430919
0.0043135
0.00431347
0.0043134
0.00431403
0.00431403
0.00374411
0.00374664
0.00425892
0.00425038
0.0043123
0.00373994
0.00374187
0.00429829
0.00430083
0.00431358
0.00431398
0.00431393
0.00372728
0.00372618
0.00373593
0.00380992
0.00382591
0.0037041
0.00371531
0.00378242
0.00376841
0.00390934
0.00416028
0.0041541
0.00419888
0.0039371
0.00391279
0.00419195
0.00431405
0.00431405
0.00431405
0.00431379
0.00431391
0.00431399
0.00431402
0.00431355
0.00431365
0.00431405
0.00431405
0.00431404
0.00430946
0.00430917
0.00431156
0.00431294
0.00431181
0.00431124
0.00428643
0.00429048
0.00427275
0.00427518
0.00429837
0.00429265
0.00426238
0.00426783
0.004209
0.00421007
0.00423634
0.00423268
0.00419221
0.00421257
0.00421532
0.00431198
0.00428484
0.00429048
0.00429931
0.00428654
0.00430436
0.00430229
0.0043125
0.00431169
0.00430813
0.00424784
0.00423912
0.00429691
0.00428153
0.00425966
0.00431404
0.00431404
0.00431372
0.0043136
0.00431275
0.00431318
0.004308
0.00431292
0.00431332
0.00429113
0.00429751
0.00431317
0.00422777
0.00421737
0.0043024
0.0043045
0.00431397
0.00431399
0.00431366
0.00431273
0.0043139
0.00431393
0.00430443
0.00417313
0.00417025
0.00426259
0.00426574
0.00431161
0.00431162
0.00430875
0.00430847
0.0043116
0.00431161
0.00373521
0.0038064
0.00396092
0.00397394
0.00382545
0.00383937
0.00367889
0.00422367
0.00421474
0.00430139
0.00364393
0.00363209
0.00371376
0.00371688
0.00368427
0.00380416
0.00381485
0.00362703
0.00363843
0.00431355
0.00431352
0.00430933
0.00431086
0.00431361
0.00431358
0.00400604
0.00423442
0.0042399
0.00422276
0.00422861
0.00399039
0.00425235
0.00429718
0.00430059
0.00430001
0.00429866
0.00425634
0.00420546
0.00424609
0.00424108
0.00417098
0.00416254
0.0041828
0.00378959
0.00379974
0.00380567
0.00373481
0.0042178
0.0039853
0.00394925
0.00401811
0.00399441
0.00419351
0.00407006
0.00407271
0.00419353
0.00421199
0.00428943
0.00431403
0.00431403
0.004314
0.00373493
0.00374006
0.00395992
0.00395941
0.00356416
0.00379352
0.00375531
0.00375601
0.00374197
0.00374967
0.00380376
0.00333977
0.00417494
0.00418175
0.00431405
0.00431405
0.00431405
0.00430763
0.00430706
0.00431113
0.0043089
0.00431089
0.00431224
0.00431031
0.00431066
0.004281
0.00429447
0.00424983
0.00425336
0.00425358
0.00424967
0.00428691
0.00425909
0.00425758
0.00410966
0.00406018
0.00405969
0.00406668
0.00406559
0.00410024
0.00431143
0.00431288
0.00431294
0.00431268
0.00431283
0.00431108
0.00429896
0.00430937
0.00430365
0.00430173
0.00430924
0.00431176
0.00431179
0.00426883
0.00426958
0.00428167
0.00427175
0.00431162
0.00431161
0.00430727
0.00431166
0.00431167
0.00430901
0.00430802
0.00431159
0.00431159
0.00425242
0.00426451
0.0042593
0.00426887
0.00426723
0.00425141
0.00374972
0.00375488
0.00373908
0.00373878
0.00390834
0.00380723
0.0038005
0.00407447
0.00407374
0.00414853
0.00408742
0.00410069
0.00406354
0.00407372
0.00413702
0.00431401
0.00431399
0.00431402
0.00431398
0.00431404
0.00431404
0.00431405
0.00431402
0.00431403
0.00431401
0.00409126
0.004176
0.00417049
0.00419136
0.00418338
0.00409801
0.00412564
0.00415043
0.00413957
0.00416608
0.00416043
0.00411737
0.00431402
0.00431404
0.00431403
0.00431367
0.00431338
0.00431398
0.00431393
0.00372935
0.00379695
0.00374269
0.00374249
0.00373966
0.00373784
0.00389477
0.00390534
0.0037974
0.00369524
0.00369485
0.00383338
0.00371027
0.0037035
0.00371019
0.00388934
0.00374071
0.00371172
0.00416707
0.00417726
0.00422533
0.00414157
0.00414408
0.00413474
0.0041365
0.00420483
0.00415182
0.0041564
0.00381715
0.00372568
0.00373368
0.00372099
0.00372
0.00382307
0.00431394
0.00431397
0.00431385
0.00431344
0.00431371
0.0043139
0.0043068
0.00431133
0.00430875
0.00430819
0.00430931
0.00430977
0.00430825
0.00430881
0.00428481
0.00429137
0.0042573
0.00425852
0.00425467
0.00425604
0.00429922
0.00427647
0.00427737
0.00425732
0.00425909
0.00429031
0.0042585
0.00421887
0.00421151
0.00419576
0.00422963
0.0042257
0.00425451
0.00421848
0.00421758
0.00422953
0.0042232
0.00425258
0.00426848
0.00423591
0.00423977
0.00422175
0.00422914
0.004265
0.00421609
0.00413731
0.00420416
0.00419847
0.00406054
0.0040647
0.00429246
0.00430607
0.00430522
0.00429044
0.00430166
0.00430946
0.00430743
0.00426203
0.00425455
0.00428887
0.00429048
0.00430382
0.00427777
0.00427004
0.00431043
0.00431152
0.00431335
0.00431221
0.00430904
0.00430448
0.00430876
0.00431308
0.00431358
0.00431369
0.00431306
0.00431328
0.00431217
0.00431082
0.00431203
0.0043137
0.00431331
0.00431309
0.00431374
0.00431341
0.0043138
0.0043128
0.00431288
0.00431233
0.00431302
0.00411163
0.00409602
0.00419949
0.00407664
0.00409038
0.00404804
0.00413719
0.00401179
0.00399978
0.0040597
0.00405094
0.00426698
0.00421663
0.00422833
0.00419355
0.00420463
0.00426399
0.00429949
0.00428064
0.00428615
0.00423512
0.00426751
0.00429383
0.00420774
0.00418911
0.00424728
0.00412345
0.00413415
0.00410556
0.00411434
0.00424405
0.0042584
0.00417539
0.00418382
0.00414635
0.00416014
0.00425582
0.00430169
0.00430538
0.00394804
0.00380554
0.00382508
0.00376599
0.00378475
0.00394692
0.00382789
0.0038349
0.00383383
0.00387859
0.00394253
0.00366789
0.00368477
0.00370411
0.00367141
0.00395908
0.00393881
0.00373373
0.00374905
0.00370418
0.00372005
0.00393633
0.00392251
0.00391147
0.00397213
0.00395663
0.0038094
0.00379572
0.00386801
0.00385777
0.00426539
0.00426662
0.00430881
0.00431163
0.00431165
0.00431159
0.00431159
0.00430834
0.00373556
0.00391756
0.00394297
0.00378723
0.0036878
0.00385978
0.00388759
0.00367237
0.00365733
0.00407198
0.00384166
0.0038387
0.00403558
0.00380236
0.00375525
0.00383447
0.00382448
0.00405049
0.00370783
0.00368916
0.00376611
0.0037902
0.00368867
0.00367072
0.0037202
0.00425975
0.00428397
0.00428196
0.00428693
0.0042855
0.00426146
0.00423608
0.00424151
0.00424185
0.00423182
0.00423169
0.00423561
0.00424267
0.00427275
0.00427048
0.00427916
0.00427585
0.00424627
0.00369879
0.00379262
0.00380221
0.00377873
0.00378549
0.00370101
0.00375121
0.00386002
0.00388011
0.00381685
0.00383728
0.00372722
0.00373721
0.00368009
0.00368308
0.00369421
0.00368603
0.00370986
0.00375544
0.00377002
0.00370067
0.00372842
0.00370643
0.00425366
0.0042504
0.0042129
0.00416485
0.00417863
0.00376554
0.00378258
0.00386484
0.00375679
0.00373391
0.00379225
0.00377937
0.00388036
0.00373978
0.00373998
0.00407072
0.00407022
0.00431405
0.00431405
0.00431405
0.00431405
0.00431405
0.00431405
0.00431405
0.00431405
0.00431405
0.00431405
0.00431405
0.00431405
0.00431405
0.00431405
0.00431405
0.00431405
0.00431405
0.00431405
0.00431405
0.00431405
0.00431405
0.00431405
0.00431405
0.00431405
0.00431405
0.00431405
0.00431405
0.00431405
0.00431405
0.00431405
0.00431405
0.00431405
0.00431405
0.00431405
0.00431405
0.00431405
0.00431405
0.00431405
0.00431405
0.00431405
0.00431405
0.00431405
0.00431405
0.00431405
0.00431405
0.00431405
0.00431405
0.00431405
0.00431405
0.00431405
0.00431405
0.00431405
0.00431405
0.00431405
0.00431405
0.00431405
0.00431405
0.00431405
0.00431405
0.00431405
0.00431405
0.00431405
0.00431405
0.00431405
0.00431405
0.00431405
0.00431405
0.00431405
0.00431405
0.00431405
0.00431405
0.00431405
0.00431405
0.00431405
0.00431405
0.00431405
0.00431405
0.00431405
0.00431405
0.00431405
0.00431405
0.00431405
0.00431405
0.00431405
0.00431405
0.00431404
0.00431404
0.00431405
0.00431405
0.00431405
0.00431405
0.00431405
0.00431405
0.00431405
0.00431405
0.00431405
0.00431405
0.00431405
0.00431405
0.00431405
0.00431404
0.00431404
0.00431405
0.00431405
0.00431405
0.00431405
0.00431405
0.00431405
0.00431405
0.00431405
0.00431405
0.00431405
0.00431404
0.00431404
0.00431405
0.00431405
0.00431405
0.00431405
0.00431405
0.00431405
0.00431405
0.00431405
0.00431405
0.00431405
0.00431405
0.00431405
0.00431405
0.00431405
0.00431405
0.00431405
0.00431405
0.00431405
0.00431405
0.00431405
0.00431405
0.00431405
0.00431363
0.00431363
0.00370911
0.00426644
0.00426977
0.00431405
0.00431405
0.00431405
0.00431405
0.00431405
0.00431405
0.00431405
0.00431405
0.00431405
0.00431405
0.00431405
0.00431405
0.00431404
0.00400005
0.00399379
0.00412749
0.00431405
0.00431405
0.00431405
0.00431405
0.00431405
0.00431405
0.00431405
0.00431405
0.00431405
0.00431405
0.00431405
0.00431318
0.00415128
0.00400194
0.00422588
0.00431397
0.00431405
0.00431405
0.00431405
0.00431405
0.00431405
0.00431405
0.00431405
0.00431405
0.00431405
0.00431405
0.00431405
0.00431405
0.00431405
0.00431404
0.00431404
0.00431405
0.00431405
0.00431404
0.00431403
0.00431405
0.00431405
0.00431405
0.00431404
0.00431404
0.00431405
0.00431405
0.00431403
0.00431403
0.00431403
0.00431403
0.00431405
0.00431404
0.00431404
0.00431405
0.00431405
0.00431404
0.00431404
0.00431403
0.00431404
0.00431405
0.00431405
0.00431405
0.00431405
0.00431404
0.00431404
0.00431405
0.00431362
0.00431378
0.00431405
0.00356439
0.0039173
0.00392135
0.00404519
0.00404577
0.0033454
0.00431405
0.00431405
0.00431405
0.00431405
0.00431405
0.00431405
0.00431405
0.00431405
0.00431404
0.00431405
0.00431405
0.00431405
0.00431405
0.00431405
0.00431405
0.00431405
0.00431405
0.00431405
0.00431405
0.00431405
0.00431405
0.00431405
0.00431405
0.00431405
0.00431405
0.00431405
0.00431405
0.00431405
0.00431405
0.00431405
0.00431404
0.00431401
0.00431405
0.00431405
0.00431405
0.00431405
0.00431405
0.00431405
0.00431405
0.00431405
0.00431405
0.00431405
0.00431405
0.00431405
0.00431405
0.00431405
0.00431405
0.00431405
0.00431405
0.00431405
0.00431405
0.00431405
0.00431405
0.00431405
0.00431405
0.00431405
0.00431336
0.00431386
0.00431382
0.00431401
0.004314
0.00431383
0.00431319
0.00431272
0.00431349
0.00431405
0.00431405
0.00431405
0.00431405
0.00431405
0.00431405
0.00431405
0.00431405
0.00431405
0.00431405
0.00431405
0.00431405
0.00431405
0.00431405
0.00431405
0.00431405
0.00431405
0.00431405
0.00431404
0.00431404
0.00431405
0.00431073
0.00431324
0.00431325
0.00431331
0.00431328
0.00431096
0.00431405
0.00431405
0.00431405
0.00431405
0.00431405
0.00431405
0.00431405
0.00431405
0.00431405
0.00431405
0.00431405
0.00431405
0.00431405
0.00431405
0.00431405
0.00431405
0.00431405
0.00431405
0.00431404
0.00431404
0.00431405
0.0043118
0.00431401
0.00431402
0.00431339
0.00431342
0.00431151
0.00430204
0.00428141
0.00428414
0.00431405
0.00431405
0.00431405
0.00431405
0.00431405
0.00431405
0.00431405
0.00431405
0.00431405
0.0043116
0.00429741
0.0043006
0.00430593
0.00430651
0.00431149
0.00431405
0.00431405
0.00431405
0.00431405
0.00431405
0.00431405
0.00431405
0.00431405
0.00431405
0.0043134
0.00431165
0.00431182
0.00431017
0.00431048
0.00431311
0.00431382
0.00431363
0.00431405
0.00381541
0.00430926
0.00430926
0.00420347
0.00420672
0.00367557
0.00431213
0.00431195
0.00393362
0.00431405
0.00431386
0.00431395
0.00431397
0.00431386
0.00431405
0.00431398
0.00431403
0.00431402
0.00431405
0.00431405
0.00431404
0.00431405
0.00431405
0.00431405
0.00431403
0.00431381
0.004314
0.00431405
0.00431405
0.00431405
0.00431403
0.00431404
0.00431405
0.00431377
0.00431346
0.00431338
0.00431404
0.00431404
0.00431404
0.00431405
0.00431405
0.00431405
0.00431405
0.00431405
0.00431405
0.00431403
0.00431403
0.00431399
0.00431148
0.00431341
0.00431336
0.00431377
0.00431371
0.00431273
0.00431405
0.00431405
0.00431405
0.00430999
0.00430416
0.00430571
0.00428706
0.00428769
0.00430315
0.0043067
0.00430739
0.0043112
0.00431404
0.00431404
0.00431405
0.00431229
0.00431317
0.00431326
0.00431371
0.00431401
0.00431402
0.00431331
0.00431336
0.00431259
0.00431405
0.00431405
0.00431404
0.00431122
0.00431335
0.00431337
0.00431325
0.00431327
0.00431086
0.00431405
0.00431404
0.00431404
0.0043018
0.00428397
0.00428316
0.00429264
0.00429186
0.00430526
0.00430221
0.0042859
0.00428647
0.00428257
0.00428218
0.00430105
0.00431403
0.00431403
0.00431405
0.00431231
0.00431224
0.00430873