/*--------------------------------*- C++ -*----------------------------------*\
| =========                 |                                                 |
| \\      /  F ield         | OpenFOAM: The Open Source CFD Toolbox           |
|  \\    /   O peration     | Version:  5.x                                   |
|   \\  /    A nd           | Web:      www.OpenFOAM.org                      |
|    \\/     M anipulation  |                                                 |
\*---------------------------------------------------------------------------*/
FoamFile
{
    version     2.0;
    format      ascii;
    class       volScalarField;
    location    "400";
    object      p;
}
// * * * * * * * * * * * * * * * * * * * * * * * * * * * * * * * * * * * * * //

dimensions      [0 2 -2 0 0 0 0];

internalField   nonuniform List<scalar> 
6584
(
31.4171
30.2896
29.3044
28.7388
28.5316
28.7989
29.5173
30.7152
32.0571
33.3167
33.5052
31.5633
26.6977
19.0747
9.79021
0.185704
-8.68406
-16.5141
-23.1395
-28.6917
-33.2997
-37.1995
-40.3767
-43.2813
31.1731
30.1118
29.0758
28.4955
28.2483
28.512
29.2596
30.6167
32.2124
33.9126
34.5593
32.9424
27.996
19.8939
10.0425
-0.159951
-9.30673
-17.2388
-23.8233
-29.2902
-33.7869
-37.6218
-40.6938
-43.6709
30.6461
29.5951
28.4615
27.8058
27.4534
27.6812
28.5031
30.3043
32.4741
34.9268
37.966
38.367
34.2558
25.2979
13.6309
-1.40311
-11.214
-19.3418
-25.7668
-30.9433
-35.1297
-38.7302
-41.5769
-44.5039
29.9565
28.8402
27.5599
26.7462
26.1945
26.2621
27.1031
29.332
33.0347
37.174
43.3468
47.1099
43.6164
31.3242
15.3838
0.698874
-14.5035
-22.8211
-28.8348
-33.4498
-37.1223
-40.312
-42.8342
-45.5681
29.1616
27.9077
26.4254
25.3385
24.4433
24.0934
24.6398
26.8734
30.6624
38.6351
49.664
60.555
58.9613
39.3317
15.0586
-3.8346
-16.5151
-28.2238
-33.2746
-36.7843
-39.674
-42.2435
-44.3429
-46.7494
28.3127
26.852
25.1127
23.616
22.1844
20.9337
20.6473
21.6941
26.4452
35.2938
52.2497
82.7626
94.4633
56.787
9.52057
-14.2049
-26.2252
-35.3736
-38.8476
-40.7923
-42.6414
-44.3913
-45.9818
-47.9379
27.4821
25.7618
23.7347
21.7263
19.6228
17.1683
15.4852
15.2092
15.9177
21.7793
43.4711
101.327
185.498
61.7016
-5.45788
-34.4885
-40.4474
-44.584
-45.3202
-45.2076
-45.7734
-46.5477
-47.5793
-48.9929
26.7497
24.7503
22.4479
19.9045
17.0765
13.3015
9.58967
7.10435
1.19368
-4.71941
-2.11465
27.7953
-20.9758
-62.3151
-66.2656
-59.1467
-54.7493
-51.9379
-49.5123
-48.6862
-48.4406
-48.9285
-49.763
26.1864
23.9336
21.423
18.4365
14.9993
10.1438
4.48798
-0.751528
-13.5856
-35.0136
-67.05
-148.649
-246.085
-142.176
-100.792
-77.6838
-63.6437
-57.3568
-52.9313
-50.8891
-49.7642
-49.8156
-50.1118
25.8393
23.405
20.8049
17.5868
13.8595
8.5875
1.94136
-5.11224
-21.0744
-49.4522
-97.0638
-206.525
-353.013
-190.784
-120.815
-88.8933
-68.5809
-60.1298
-54.6692
-51.915
-50.2476
-50.0601
-49.9408
25.7184
23.2055
20.6563
17.4756
13.8726
9.00582
2.74469
-4.3223
-17.9492
-40.727
-78.2023
-152.108
-310.99
-182.306
-117.276
-88.3983
-67.9458
-59.4672
-54.2825
-51.5022
-49.7434
-49.5647
-49.2125
25.7928
23.3082
20.9292
18.0202
14.8871
11.0351
6.2526
0.773364
-6.95711
-17.0005
-30.7484
-45.1285
-186.144
-131.545
-94.6425
-77.3721
-62.1685
-55.6408
-51.8619
-49.703
-48.2811
-48.3462
-47.9629
26
23.6283
21.4851
18.9769
16.476
13.8263
10.8899
7.68336
5.90888
7.56304
14.316
43.131
-54.9428
-70.3041
-65.0352
-60.9712
-53.3086
-49.7952
-47.9629
-46.845
-46.0663
-46.5273
-46.2915
26.2645
24.0539
22.1511
20.0556
18.1569
16.5442
15.1515
15.6538
15.5007
23.7454
37.0534
76.9657
160.997
22.0676
-24.761
-39.495
-44.7144
-43.7841
-43.2926
-43.3453
-43.396
-43.3693
-44.2961
-44.3324
26.517
24.479
22.7742
21.0175
19.5594
18.5945
18.0864
19.1331
20.8107
28.3726
39.9346
59.5259
64.1528
29.1585
-5.93234
-22.9268
-31.31
-35.1548
-37.1595
-38.6801
-39.7883
-40.468
-41.8503
-42.2234
26.7061
24.826
23.2558
21.7334
20.5281
19.8724
19.6577
20.9324
22.5178
27.4113
34.6085
39.8596
33.3056
18.4709
0.785169
-13.9054
-24.1071
-28.6805
-32.0023
-34.4278
-36.3414
-37.6111
-39.3729
-40.0991
26.8018
25.0513
23.5524
22.1678
21.0549
20.485
20.1718
21.2715
22.3994
24.2596
26.6169
25.8461
25.7274
15.0546
1.73427
-9.30981
-18.5103
-23.8287
-27.7889
-30.7611
-33.2209
-34.9285
-36.9835
-38.0378
26.7927
25.1396
23.6591
22.3369
21.1973
20.5593
19.9475
20.4119
20.7249
21.9471
20.9352
21.5599
13.9902
10.0137
-0.772349
-8.5256
-14.7049
-20.3634
-24.4468
-27.72
-30.4951
-32.5098
-34.7602
-36.1009
26.681
25.0958
23.5953
22.2855
21.0482
20.2742
19.3023
19.2568
18.2685
19.1716
13.7332
18.2512
13.1627
1.4899
-0.339055
-8.04435
-12.9127
-18.0873
-21.9236
-25.2813
-28.1804
-30.3935
-32.7531
-34.3308
26.4775
24.9367
23.3932
22.0701
20.7049
19.799
18.4789
18.1655
16.3158
17.1018
12.524
14.1483
10.2092
1.72161
-0.567279
-7.71295
-11.6149
-16.4566
-19.9925
-23.3351
-26.2374
-28.572
-30.9761
-32.7435
26.1974
24.6842
23.0861
21.7404
20.2389
19.2265
17.6002
17.1101
14.7624
15.0914
10.9199
10.5905
7.21541
1.15085
-1.18425
-7.44679
-10.6709
-15.2484
-18.4837
-21.7737
-24.6111
-27.0186
-29.4217
-31.3379
25.8571
24.3603
22.7037
21.3347
19.7005
18.6051
16.7262
16.0786
13.436
13.31
9.4063
8.42012
5.33674
0.357093
-1.82354
-7.29969
-10.0554
-14.3581
-17.3036
-20.5198
-23.2526
-25.7014
-28.073
-30.1043
25.4725
23.9857
22.2716
20.8831
19.1283
17.9696
15.8972
15.1166
12.3249
11.8671
8.23532
6.8886
4.03396
-0.243584
-2.34078
-7.21049
-9.64584
-13.686
-16.3753
-19.5082
-22.1173
-24.5869
-26.9081
-29.0273
25.0586
23.5783
21.8111
20.4087
18.55
17.3444
15.1322
14.2425
11.3935
10.6822
7.28599
5.7012
3.02567
-0.730206
-2.76739
-7.14895
-9.36014
-13.1619
-15.6355
-18.6837
-21.1653
-23.6426
-25.9034
-28.0889
24.6282
23.1533
21.3389
19.928
17.9836
16.7434
14.4355
13.4546
10.6025
9.69368
6.50439
4.78004
2.23711
-1.13646
-3.12297
-7.10446
-9.15545
-12.7429
-15.0377
-18.0036
-20.362
-22.8386
-25.0348
-27.2697
24.1927
22.723
20.8681
19.4532
17.4405
16.1746
13.8059
12.7487
9.92676
8.86431
5.84885
4.04916
1.61501
-1.4646
-3.41353
-7.06854
-9.00422
-12.4004
-14.5485
-17.4351
-19.6787
-22.1484
-24.2802
-26.551
23.7615
22.297
20.4083
18.9926
16.9275
15.6421
13.2392
12.1184
9.34639
8.16927
5.29831
3.46652
1.13432
-1.72956
-3.64956
-7.03746
-8.88849
-12.1139
-14.1416
-16.953
-19.0922
-21.5508
-23.6204
-25.9151
23.3424
21.883
19.9666
18.5519
16.448
15.1472
12.7305
11.5568
8.84318
7.58213
4.8383
2.99902
0.744686
-1.96
-3.83982
-7.0046
-8.79079
-11.8644
-13.7937
-16.5342
-18.5806
-21.0243
-23.0358
-25.3445
22.9421
21.4868
19.5479
18.1344
16.0035
14.6894
12.274
11.0567
8.40362
7.07929
4.44696
2.61005
0.423225
-2.14699
-3.99046
-6.96925
-8.70386
-11.642
-13.4896
-16.1625
-18.1266
-20.5516
-22.5095
-24.8237
22.566
21.1127
19.1561
17.7423
15.5938
14.2667
11.863
10.609
8.01867
6.64573
4.11138
2.28314
0.155887
-2.29846
-4.10935
-6.92997
-8.62242
-11.4384
-13.2179
-15.8249
-17.7161
-20.118
-22.0263
-24.3381
22.2187
20.7636
18.793
17.3758
15.2178
13.8771
11.491
10.204
7.67763
6.26703
3.82028
2.00492
-0.068799
-2.42178
-4.20267
-6.8853
-8.54279
-11.2466
-12.9688
-15.5105
-17.3373
-19.7106
-21.5735
-23.8739
21.9047
20.4414
18.4607
17.0336
14.8741
13.5159
11.1557
9.83616
7.37393
5.93149
3.56449
1.76387
-0.261494
-2.52303
-4.27619
-6.83459
-8.4633
-11.0612
-12.7361
-15.2105
-16.9815
-19.3189
-21.1407
-23.4193
21.6274
20.1454
18.1596
16.7125
14.5595
13.1745
10.852
9.49558
7.10147
5.62795
3.33722
1.55063
-0.429618
-2.60513
-4.33452
-6.77576
-8.38395
-10.8763
-12.5152
-14.9155
-16.6406
-18.9309
-20.7165
-22.9596
21.3932
19.878
17.894
16.4128
14.2779
12.8533
10.5823
9.1788
6.8603
5.34925
3.13101
1.35182
-0.583846
-2.6712
-4.38263
-6.708
-8.30763
-10.6899
-12.3082
-14.6241
-16.3167
-18.5461
-20.3032
-22.4943
21.1978
19.6143
17.6507
16.098
14.0158
12.5104
10.3322
8.84337
6.63966
5.06638
2.94806
1.17082
-0.721903
-2.71907
-4.43308
-6.61805
-8.2403
-10.4763
-12.1075
-14.3001
-15.9878
-18.1185
-19.8634
-21.9643
21.0774
19.4267
17.4929
15.8684
13.8478
12.2593
10.1755
8.59856
6.49739
4.84603
2.76301
0.922791
-0.902975
-2.74109
-4.46316
-6.52821
-8.1892
-10.2991
-11.9634
-14.0459
-15.7503
-17.7905
-19.5406
-21.5573
-133.197
-240.978
-11.0781
-205.537
-378.291
-267.485
-163.77
-348.584
-384.421
-58.4411
-212.566
-334.263
34.5701
-65.6225
-193.889
77.435
180.737
175.297
30.3043
-49.2584
49.6936
185.714
18.8084
83.71
-52.6045
-116.757
21.3104
-180.188
93.6311
-222.654
-137.656
-61.549
-94.3538
-185.493
-130.894
-183.685
-265.861
-222.154
-471.269
-381.321
-347.59
-209.993
-160.747
-86.8953
-150.941
-186.378
-198.477
-277.13
-292.071
-519.751
-528.643
-322.929
-213.695
-217.637
-43.4983
-56.5992
-140.464
-113.435
-136.642
-203.775
-342.467
-440.548
-203.25
-159.157
-204.027
-141.36
-232.36
-69.7953
-85.0851
-140.869
47.9551
-29.2631
66.3673
63.824
164.074
59.8866
44.3821
33.6476
-213.66
-120.492
-73.3765
-133.091
-230.023
91.5847
-114.169
-373.733
-204.719
-149.535
-195.524
-364.048
-290.872
-270.17
-191.566
-280.083
-301.508
-238.406
-279.279
-522.929
-475.884
-345.269
-460.684
-517.547
-370.441
-456.506
-329.634
-212.962
-270.807
-191.881
-280.872
-218.564
-300.83
-285.318
-445.195
-515.35
-380.281
-512.833
-433.898
-520.986
-516.613
-385.86
-130.526
-59.8133
-212.806
-140.95
-238.962
-335.853
-267.193
-332.205
-238.07
-428.591
-338.859
-285.014
19.1615
64.5136
-50.2737
11.5688
-41.4478
-128.843
-225.667
-140.361
-137.058
109.562
120.632
69.3306
107.087
93.4398
54.8529
-49.3955
-100.639
80.7499
-65.2371
237.627
4.63262
28.8287
-44.4769
-7.24731
8.50162
-50.7024
33.389
-20.848
19.2757
-26.352
-67.8195
186.261
-71.7719
75.6518
-167.84
-114.802
-59.6756
-126.798
-99.7136
-99.3836
-57.5462
59.2749
81.5457
-51.793
-13.0587
-28.4353
-80.1324
-118.709
-128.157
-44.7605
84.2661
110.892
-33.4686
39.0371
-5.52764
309.031
197.394
120.957
125.909
199.804
311.466
-102.872
-69.346
-112.738
213.774
-74.4518
-29.2774
-436.837
-428.035
-535.208
-534.053
-386.781
-394.467
-178.138
-145.646
-185.525
89.6416
40.7108
-22.2707
29.8865
6.75259
-206.043
-184.678
-251.642
-211.176
-255.01
-197.799
-199.541
-81.8322
-35.2933
-99.9795
-194.937
-305.881
-296.528
-293.486
-293.458
-258.613
-260.287
-501.857
-501.214
-496.3
-422.886
-400.081
-443.296
-428.804
-498.44
-418.752
-350.938
-311.541
-391.732
-362.168
-424.944
-255.642
-250.317
-301.802
-299.342
-484.361
-487.188
-484.635
-420.202
-438.274
-389.224
-412.925
-480.723
-529.019
-451.413
-446.495
-443.036
-450.822
-529.448
-104.513
-100.034
-104.743
-146.813
-57.7988
-99.219
-89.9449
-182.674
-151.615
-172.268
-284.579
-291.628
-387.642
-351.901
-380.6
-310.768
-341.732
-381.315
31.1888
56.8899
-22.1939
-13.8953
-52.1179
24.5313
-8.83059
-13.3585
-7.69635
26.8517
-78.5504
-80.8322
-29.4494
-139.8
-87.0175
-91.5275
-85.0558
143.299
158.886
204.719
114.167
137.77
217.396
129.822
94.053
444.789
34.2959
64.1405
36.6578
63.729
94.6225
67.2027
105.43
82.2544
94.164
279.077
60.6659
15.7779
4.20219
76.9241
85.763
240.993
156.923
153.654
90.7571
101.097
135.61
135.455
208.544
468.863
323.115
217.095
276.115
352.21
480.044
-250.883
-208.932
-226.72
-460.8
-408.184
-403.361
-289.598
-243.193
-235.679
-246.788
-247.061
-291.628
-528.962
-530.499
-361.611
-421.741
113.336
100.978
17.9931
36.6459
77.8499
118.133
96.2438
108.742
-4.49552
-58.4659
173.461
-346.165
-376.329
-403.793
-274.441
-226.282
-160.452
-296.656
-244.155
-296.343
-284.342
-241.516
-248.326
-228.89
-241.153
-281.429
-287.138
-310.092
-301.421
-327.948
-326.77
-297.947
-298.736
-292.567
-271.097
-516.664
-486.865
-476.582
-446.126
-437.582
-481.151
-472.507
-510.882
-229.49
-215.163
-247.856
-271.477
-291.333
-309.83
-303.299
-332.857
-329.292
-313.969
-325.345
-292.238
-463.652
-504.909
-502.167
-465.634
-473.955
-421.87
-426.944
-452.69
-525.24
-487.797
-481.307
-478.666
-483.823
-524.635
-258.205
-268.222
-246.868
-344.864
-331.112
-317.418
-288.974
-267.589
-300.054
-224.033
-256.401
-275.958
40.1693
53.8917
28.6572
77.309
58.8931
46.4743
155.999
163.503
87.4558
104.164
83.6215
144.873
154.107
131.677
118.601
47.2351
334.576
96.7288
42.4764
9.1281
13.1227
45.1869
3.98347
1.19593
59.7133
50.706
263.661
-1.58305
21.0878
-82.5138
-73.9804
69.5215
74.5792
68.8076
74.1925
67.3019
85.6992
76.7116
71.4482
-34.2522
-28.2387
-49.9781
-57.316
95.0967
99.4407
88.7364
105.684
121.378
-173.481
-148.572
-70.4113
-228.62
-170.75
-196.748
-457.028
-409.6
-531.142
-534.656
-367.358
-415.582
-171.557
-167.629
-187.595
-141.779
-161.31
-163.048
-221.928
-243.004
-194.099
-213.913
69.6562
88.456
105.611
51.1925
80.4966
63.7211
86.6268
54.2207
-230.515
-201.757
-223.674
-164.025
-193.301
-222.289
-249.555
-260.778
-229.7
-245.497
-152.012
-115.709
-154.026
-167.341
-182.127
-348.293
-368.48
-338.578
-349.261
-300.026
-246.762
-341.035
-314.242
-258.935
-295.872
-337.884
-319.742
-313.644
-287.636
-317.204
-323.634
-312.082
-313.141
-332.92
-331.257
-322.968
-329.7
-298.192
-324.904
-320.232
-283.027
-293.67
-264.531
-278.455
-303.518
-309.314
-296.087
-302.887
-269.966
-291.131
-284.361
-516.15
-486.996
-460.212
-447.89
-481.704
-508.802
-471.775
-461.427
-271.747
-286.15
-266.493
-295.967
-281.241
-316.398
-301.136
-257.403
-236.954
-275.767
-262.177
-333.626
-332.559
-301.869
-337.115
-340.7
-333.423
-338.472
-331.034
-318.082
-337.664
-333.857
-295.8
-327.723
-332.177
-468.945
-497.297
-450.083
-460.169
-496.63
-461.317
-432.942
-444.444
-490.277
-487.003
-527.649
-526.68
-487.372
-488.22
-122.182
-121.31
-117.88
-101.458
-140.833
-123.688
-129.766
-74.9501
-73.2699
-59.7546
-95.973
-78.8412
-81.2925
-208.014
-191.028
-230.258
-213.712
-167.596
-163.041
-146.36
-185.601
-168.662
-175.544
-295.389
-276.149
-265.275
-277.619
-295.073
-249.074
-269.277
-301.227
-310.74
-323.702
-300.561
43.3474
49.1738
39.2136
65.0162
53.1707
47.1307
67.0647
8.21072
33.9107
13.348
-117.857
-115.243
-135.152
-86.6943
-108.712
-110.061
-109.758
-117.369
167.177
183.758
127.356
140.808
166.325
137.866
4.12028
-38.3925
5.71009
6.04807
47.7272
74.2586
631.539
468.51
392.177
481.305
533.22
650.787
71.2767
161.382
104.31
-180.246
-204.691
-244.894
-467.074
-469.602
-474.585
-525.884
-528.626
-179.743
-157.433
-175.933
-442.334
-436.39
-434.925
-240.19
-219.133
-213.106
-182.076
-140.734
-173.376
-254.76
-240.919
-220.291
-235.027
-281.918
-247.378
-245.05
-270.497
-258.641
-518.933
-480.913
-485.555
-480.303
-501.525
-498.878
-514.593
-429.383
-420.72
-444.832
-239.443
-207.439
-188.348
-230.983
-247.96
-232.484
-450.541
-448.598
-444.833
-512.471
-509.593
-491.814
-495.146
-522.541
-505.944
-504.049
-498.782
-502.137
-520.656
-201.733
-210.468
-225.531
-411.202
-397.951
-410.23
-188.493
-179.954
-212.877
162.995
163.586
129.015
111.159
91.8132
163.266
163.479
88.2919
114.251
77.9593
-53.5829
-32.7311
-94.1379
-56.7579
-62.3811
-63.4314
-46.0271
-45.3368
-51.0385
-11.5392
-16.6734
-18.3044
-79.1063
-72.7305
-73.2702
118.777
103.895
98.2911
187.425
302.433
248.602
-125.539
-143.31
-122.886
-91.4804
-244.43
-225.2
-44.8732
32.988
50.4025
-448.961
-451.319
-444.07
-420.84
-435.46
-441.998
-539.037
-534.665
-394.141
-386.983
-379.625
-402.417
-408.485
-401.798
-184.653
-190.02
-144.38
-150.828
-151.329
-195.205
-200.548
-206.416
-211.822
-192.561
-214.72
-243.424
-244.205
-250.317
-187.78
-197.967
-220.186
-272.708
-278.175
-254.987
-257.994
-255.099
-58.5099
-104.536
-136.457
-123.073
-115.344
-126.925
-179.176
-277.264
-266.407
-282.082
-273.867
-247.223
-282.188
-282.98
-505.214
-500.613
-388.652
-375.908
-399.344
-441.201
-411.284
-400.513
-238.05
-252.808
-266.693
-478.686
-489.163
-511.914
-511.775
-529.065
-530.665
-512.084
-511.888
-109.739
-110.464
-109.271
-103.434
-145.871
-140.544
-142.31
-188.839
-205.072
-193.037
-202.027
-196.85
-233.157
-228.863
-156.624
-156.644
-151.186
-192.098
-187.438
-375.002
-386.354
-405.237
-363.621
-352.382
-363.64
-29.3233
-28.3663
-18.4584
-50.0124
-38.9668
-34.9282
-58.1101
-62.3823
-79.8528
-35.5622
-49.4744
-50.7734
-132.546
-131.187
-137.647
-94.4464
-87.1154
-136.069
185.389
188.542
198.185
137.727
128.521
136.802
124.032
150.269
140.495
132.152
201.785
171.489
111.449
127.031
114.689
198.974
383.996
107.76
79.5051
82.4566
187.354
193.196
217.331
93.1452
92.8827
88.1529
101.527
97.0455
96.7976
212.329
179.827
171.61
331.433
478.605
425.818
-465.388
-466.532
-463.8
-410.672
-412.598
-406.242
-424.89
-413.8
-529.212
-528.284
-368.178
-372.231
-352.305
-360.394
-428.17
-428.573
-422.038
106.952
111.698
118.189
100.891
106.418
101.825
-384.943
-383.26
-374.292
-399.654
-391.67
-394.684
-516.368
-483.664
-486.677
-487.07
-512.303
-496.684
-494.594
-457.995
-452.331
-457.424
-511.738
-484.275
-488.393
-506.893
-508.806
-507.185
-523.481
-523.352
-504.884
-506.746
-339.15
-339.763
-344.964
-328.247
-333.768
-334.754
164.989
167.173
155.865
159.355
148.542
154.73
151.019
137.887
130.335
127.288
134.033
137.434
122.822
126.819
123.171
31.6479
9.32293
-1.69174
65.437
278.774
236.846
309.57
119.417
152.218
201.945
22.751
21.3141
12.0977
39.3793
30.7661
32.5406
-12.574
-9.69656
-19.4203
3.25929
-4.60327
-4.24359
80.7243
97.5678
38.9858
-60.8466
-92.6357
-17.8104
-24.8327
-89.1221
-69.1709
-68.1228
-75.3266
70.77
72.4559
63.8118
66.5253
69.5634
-33.9245
-39.6989
-40.2245
-15.4239
-10.1139
-21.7979
-22.831
-20.4947
-28.0196
-46.7634
-41.8286
-43.5541
-40.4973
-49.2411
-26.6864
-33.6071
-65.5068
-65.1501
-56.9545
110.556
111.511
106.382
123.076
117.04
115.778
-181.35
-152.188
-148.018
-216.906
-225.224
-204.969
-452.87
-451.192
-457.38
-463.053
-433.362
-431.055
-444.379
-437.435
-535.743
-536.598
-386.061
-392.158
-376.31
-380.842
-373.184
-380.819
-375.338
-416.976
-412.353
-409.297
-401.488
-169.066
-178.351
-156.971
-157.258
-163.644
-229.886
-231.228
-222.691
-243.715
-239.009
-237.012
-200.647
-201.508
-195.449
-214.986
-206.324
-206.702
-207.771
60.5528
55.9957
46.9303
75.5448
64.6127
-220.791
-230.592
-238.07
-236.629
-226.054
-209.772
-219.666
-266.464
-268.624
-275.441
-271.456
-256.79
-255.127
-263.446
-154.238
-138.151
-149.336
-111.48
-190.08
-179.229
-170.438
-358.395
-341.192
-330.211
-364.053
-353.924
-367.864
-371.771
-359.527
-281.643
-283.949
-302.528
-267.525
-282.729
-265.253
-329.219
-315.197
-321.607
-325.838
-321.106
-324.285
-313.637
-317.081
-317.108
-315.637
-314.711
-331.805
-330.526
-324.131
-326.576
-288.56
-294.111
-288.149
-296.038
-295.329
-291.633
-268.304
-281.411
-278.887
-288.257
-284.627
-272.746
-284.98
-287.111
-304.855
-306.97
-305.913
-312.864
-309.595
-306.896
-298.7
-302.051
-298.707
-306.921
-307.072
-301.645
-509.676
-494.433
-291.683
-293.653
-296.166
-282.227
-288.928
-286.872
-311.746
-299.153
-303.222
-306.393
-251.27
-253.904
-260.741
-240.139
-246.511
-244.181
-270.894
-271.823
-276.332
-264.921
-268.005
-266.407
-337.688
-339.447
-336.339
-339.637
-325.553
-321.208
-334.783
-333.459
-473.122
-492.394
-529.215
-511.616
-510.358
-508.914
-510.827
-529.225
-115.177
-120.876
-115.219
-116.24
-136.88
-134.579
-127.595
-214.945
-207.948
-202.213
-207.586
-213.779
-224.648
-229.802
-234.557
-219.663
-224.609
-219.053
-225.412
-221.661
-168.54
-162.427
-161.891
-182.529
-174.639
-289.431
-285.161
-291.819
-271.442
-278.454
-283.344
-285.557
-290.579
-254.064
-255.216
-248.721
-261.945
-315.221
-313.567
-321.407
-298.226
-305.557
-307.908
45.6594
44.2309
47.9803
36.5213
40.5917
42.6572
63.5071
59.0251
61.246
51.9065
55.8672
57.5275
61.9556
5.74967
10.9738
-4.90309
0.631
28.7912
27.0711
31.6071
16.519
23.9612
22.3863
-116.916
-124.488
-125.663
-102.077
-125.575
170.969
176.356
132.544
139.51
129.962
146.819
142.156
136.373
146.213
152.261
156.407
144.559
52.4989
69.5509
55.5417
76.4279
85.5592
62.2016
83.7383
63.7801
50.9906
53.168
27.7447
27.1025
29.8354
40.2791
43.4154
48.5565
84.8699
74.0648
104.339
167.641
96.3006
167.198
89.1649
69.4065
63.9981
13.6924
23.3709
2.20077
-13.6673
-4.14313
10.1008
9.48397
35.4646
13.1491
39.7213
84.2119
99.0494
162.973
142.471
268.809
190.893
152.346
61.076
27.6321
39.0015
-44.099
-44.8895
-26.6428
-20.7147
-43.423
-2.83002
-19.033
-22.9443
-1.05913
3.25939
6.49006
36.2833
-108.945
-100.858
-47.556
-123.493
-92.6317
-67.716
-45.08
-78.1242
-55.0216
-79.183
-98.5726
-83.9319
-162.301
-182.617
-168.086
-302.749
-237.447
-191.419
-184.204
-133.921
-115.895
-47.7776
-73.1659
-80.4397
-96.7143
-117.634
-118.939
-205.882
-228.929
-229.592
-354.07
-283.105
-275.715
-189.91
-145.667
-144.196
-29.8378
-38.2347
-66.1817
-67.7696
-79.14
-92.5108
-139.816
-151.677
-165.948
-268.83
-228.224
-255.283
-146.658
-124.866
-138.679
-4.0453
2.04416
-27.7106
-32.0249
-31.5065
-46.1212
-134.318
-126.053
-165.837
-85.0268
-86.3419
-106.583
16.7966
28.2574
10.3326
-14.8012
-36.9323
-58.7843
-33.583
-48.5726
-66.4138
27.0586
33.4776
30.2573
41.2776
58.9567
66.4684
74.0064
90.3455
107.666
118.538
124.079
127.426
30.8741
0.393881
-16.9034
-12.6328
-22.8356
-34.058
28.3791
33.4336
34.219
37.6701
42.3387
54.2735
43.9073
42.7877
68.9903
40.2465
29.7556
40.1417
23.4915
8.94535
2.47337
-0.930736
-10.6114
-15.5626
30.335
33.4172
37.3134
28.0212
35.3489
36.1078
30.7028
18.5128
26.7675
17.3556
8.59306
9.94036
-151.153
-131.397
-115.366
-210.851
-235.134
-282.607
4.93245
-32.8563
-44.2896
-228.279
-225.058
-202.505
-369.626
-409.976
-424.97
-296.371
-334.482
-290.845
-179.555
-192.137
-174.318
-361.275
-400.294
-377.318
-427.938
-433.915
-387.875
-60.725
-75.3878
-72.0642
-230.431
-249.98
-220.72
-368.364
-341.567
-318.718
-82.8527
-79.9203
-61.4728
-202.061
-180.588
-174.663
109.301
101.188
67.5396
202.497
185.865
169.932
167.033
165.189
199.25
-43.5941
-25.9684
-33.4712
105.703
164.202
92.5371
742.251
637.553
646.174
157.632
191.266
267.105
747.709
778.097
41.575
65.0466
39.6102
134.86
158.422
79.7119
-65.9131
-45.1592
-36.1998
-62.7244
-53.1203
-79.6374
4.06085
-24.2963
-42.2372
-146.927
-159.182
-217.018
117.07
71.8019
55.6475
-176.532
-119.154
-139.007
-112.421
-118.912
-150.877
-55.8631
-86.4216
-86.7937
-116.21
-109.371
-88.2514
-171.58
-133.306
-141.338
-102.263
-120.259
-164.319
-205.175
-194.882
-173.782
-261.26
-247.525
-252.387
-207.62
-215.862
-229.047
-390.986
-400.228
-388.89
-274.092
-245.989
-317.191
-197.529
-225.724
-240.613
-180.143
-205.429
-181.13
-103.852
-112.423
-93.1313
-174.87
-135.562
-124.483
-144.352
-142.374
-180.584
-220.651
-225.942
-203.034
-282.373
-264.636
-260.145
-275.096
-275.359
-292.76
-265.526
-277.998
-349.271
-219.355
-250.131
-242.137
-249.654
-252.833
-220.932
-48.9721
-64.3983
-55.9847
-93.7367
-74.4918
-55.3484
-109.972
-92.994
-106.144
-121.623
-136.822
-126.795
-166.088
-148.479
-124.37
-195.979
-187.319
-195.311
-349.299
-357.26
-348.946
-179.658
-215.208
-253.114
-176.141
-194.294
-173.339
-229.525
-213.313
-191.415
-153.973
-160.501
-141.032
-235.416
-228.896
-226.199
-83.6826
-106.729
-117.795
-103.248
-106.929
-85.3361
-151.196
-128.531
-122.021
38.598
47.4241
57.3855
-25.88
-12.9378
-17.0549
70.7211
84.6489
71.3534
96.4965
89.1631
75.7175
145.531
128.915
122.076
68.1888
76.9813
93.853
45.2541
67.3555
54.4403
77.8992
70.4837
43.0069
-204.207
-188.945
-198.799
-87.8483
-130.355
-169.173
-95.5407
-108.722
-82.9237
-153.005
-182.818
-155.565
60.178
65.8912
105.104
-130.138
-105.823
-91.368
-365.225
-374.619
-382.879
-214.051
-231.291
-221.794
-159.831
-197.029
-182.102
-224.581
-210.299
-183.594
-329.903
-314.838
-334.093
-289.15
-273.171
-274.485
-256.578
-260.54
-274.293
-198.015
-220.171
-213.516
-283.395
-289.751
-287.215
-311.029
-310.038
-299.558
-285.12
-282.636
-275.749
-382.31
-404.412
-358.603
-465.701
-458.989
-452.632
-392.682
-362.191
-347.068
-450.187
-443.817
-452.035
-311.511
-345.093
-374.452
-221.985
-212.897
-204.65
-254.758
-248.958
-263.633
-183.886
-203.447
-213.029
-278.753
-287.63
-291.536
-222.044
-227.098
-222.834
-302.713
-312.7
-311.678
-295.48
-298.614
-286.974
-423.398
-407.493
-371.972
-428.352
-430.827
-438.687
-388.389
-433.417
-427.787
-120.146
-121.893
-138.589
-60.3844
-70.3072
-69.5404
-208.126
-211.391
-216.714
-144.159
-160.849
-151.4
-245.049
-248.271
-241.919
-341.206
-334.78
-329.864
-291.996
-260.908
-248.989
-313.417
-305.673
-317.516
-233.47
-245.447
-250.645
-423.289
-418.529
-422.331
-329.385
-341.042
-357.624
-302.221
-331.712
-302.444
26.5124
29.9137
22.3232
68.8298
62.7317
58.5549
-40.7103
-40.0926
-50.3173
14.4245
6.14933
3.569
-53.8096
-52.077
-38.9106
-134.518
-115.761
-116.34
-213.187
-209.539
-221.517
-136.3
-168.782
-177.045
-155.737
-159.697
-139.312
119.137
147.151
134.022
143.146
148.263
118.968
76.1226
80.8864
74.6445
81.2287
119.933
122.534
-54.307
-23.7928
-23.376
-28.6899
-23.9301
-73.5181
49.6196
13.1253
-1.41443
271.696
215.092
192.709
0.610156
-1.07457
14.1794
-36.331
-18.057
-9.84842
-4.40306
-17.5902
-19.378
-15.5491
-14.9593
-0.574519
-46.7959
-30.3838
-23.9486
25.4876
28.1392
36.6566
-19.6351
-12.5153
-13.3549
-4.47225
-18.7685
-4.21528
142.4
155.529
207.619
-108.648
-78.2207
-44.0945
-30.4085
-40.5229
23.085
-137.985
-65.1925
-67.7472
-79.3124
-75.0281
-117.964
-87.7334
-81.982
-61.4795
-115.486
-90.5568
-97.3453
-85.9171
-90.7607
-106.199
62.7968
64.9338
61.9106
83.1064
79.7796
77.7829
-36.1629
-34.7922
-27.2518
-119.18
-99.3459
-100.595
-91.7615
-93.1161
-125.671
-55.2578
-82.911
-79.8193
88.0766
89.4223
86.1578
113.191
108.754
106.152
0.651598
-17.0066
-36.9956
17.4941
1.30455
11.0077
-18.8662
-9.66231
5.0692
267.73
316.369
423.15
188.188
277.415
245.306
204.623
277.067
179.49
151.94
186.767
155.764
251.907
296.605
195.191
429.794
337.602
275.065
-67.0204
-138.307
-109.042
93.6283
95.9331
148.699
-58.8133
-24.7188
-36.2783
12.5192
21.8803
-24.1373
-186.274
-166.837
-166.773
-193.316
-195.883
-190.085
82.4041
87.9846
94.1775
44.3916
52.3245
48.0932
-0.638149
-8.16894
-21.7438
19.1168
5.48372
6.80516
-5.08246
-0.0383359
12.7479
-211.882
-190.544
-169.966
-209.622
-235.932
-218.024
-182.641
-165.982
-177.574
-64.8412
-87.081
-101.72
-64.6947
-76.0455
-46.3884
-319.258
-330.271
-318.272
-283.339
-296.127
-308.293
-301.774
-300.062
-290.884
-295.883
-304.471
-302.943
-266.126
-263.102
-254.089
-264.564
-271.446
-268.607
-480.768
-477.878
-493.529
-415.854
-434.946
-442.586
-419.488
-426.311
-408.226
-439.043
-460.874
-465.738
-449.211
-455.386
-434.419
-501.396
-486.024
-483.158
-407.964
-399.8
-412.063
-338.607
-357.463
-369.793
-330.08
-344.357
-325.692
-382.503
-401.892
-411.039
-381.292
-392.048
-372.876
-431.019
-420.518
-412.501
-260.729
-265.08
-258.674
-247.019
-251.498
-255.907
-312.808
-313.122
-301.142
-299.337
-310.405
-311.56
-467.446
-471.115
-488.061
-426.731
-449.84
-442.166
-463.053
-456.932
-432.997
-397.293
-414.431
-403.624
-433.743
-424.484
-405.442
-475.291
-459.156
-463.477
-450.651
-475.396
-476.617
-469.833
-473.12
-449.178
-446.584
-472.348
-468.32
-476.542
-475.191
-449.391
-101.381
-116.252
-109.806
-63.7197
-63.3916
-57.7387
-97.7619
-92.0584
-93.6233
-79.614
-80.9308
-91.8545
-161.874
-166.559
-183.299
-288.246
-282.07
-278.566
-297.848
-301.139
-294.579
-382.599
-388.044
-393.635
-361.686
-374.252
-363.838
-394.184
-384.421
-371.473
-321.184
-331.056
-319.856
-353.07
-342.155
-331.619
-375.424
-369.851
-375.293
35.4209
37.3356
33.1059
59.2197
56.3966
53.9951
-20.7663
-30.2292
-31.3376
-18.9883
-20.0559
-14.7563
-52.443
-46.644
-46.3922
11.3224
9.678
18.1757
-8.85191
0.603279
6.5437
-4.71143
-2.53178
-11.5577
-2.32514
-0.726398
-6.14681
28.4791
23.9598
22.5167
-77.7577
-65.1288
-66.0483
-73.6561
-73.429
-80.2211
-30.321
-38.0566
-36.8888
-86.8655
-94.1229
-94.2095
-104.267
-103.284
-91.1094
148.381
160.617
152.55
176.162
163.661
153.112
119.033
121.234
117.221
120.103
132.569
154.83
99.4951
104.978
101.186
58.9298
46.9926
52.2653
27.3959
38.2298
55.7687
86.2849
75.6757
82.9901
58.2737
67.2542
76.521
100.674
108.398
115.371
86.2994
99.7201
92.1074
117.193
102.584
90.0664
42.6329
37.2518
48.141
12.9285
25.5334
36.4732
15.0585
19.7683
8.05121
216.325
236.035
292.152
160.795
180.521
175.88
162.792
173.774
160.096
140.421
150.736
143.986
158.082
162.121
142.919
275.042
206.045
204.805
428.125
467.843
584.492
322.023
385.271
373.703
332.171
415.136
302.423
307.448
351.204
317.213
403.493
468.947
357.772
599.331
514.559
453.438
-236.633
-242.435
-256.352
-216.729
-228.775
-222.709
-238.707
-233.631
-219.889
-395.904
-408.533
-418.518
-271.371
-268.53
-286.552
-242.667
-256.445
-258.726
-248.886
-252.711
-237.585
-248.87
-262.414
-261.831
-260.918
-261.675
-246.234
-292.597
-274.732
-273.572
-370.073
-364.617
-355.841
25.1717
36.7704
28.7757
54.1946
44.4418
32.1518
67.1411
56.1624
66.1815
112.446
119.997
136.874
101.644
110.487
104.163
121.244
113.044
103.997
-11.8407
26.2648
27.824
30.16
28.4991
-18.5653
123.346
77.3487
64.346
-358.095
-366.579
-357.485
-256.976
-234.395
-250.655
-203.856
-218.321
-240.335
-171.27
-195.796
-184.127
-280.802
-297.929
-314.359
-260.768
-280.309
-263.808
-316.657
-297.177
-277.824
-269.354
-271.586
-286.96
-245.684
-258.239
-255.653
-261.363
-259.693
-245.144
-234.825
-246.846
-242.634
-253.36
-249.954
-236.099
-278.022
-263.844
-266.934
-294.165
-291.849
-284.05
-307.694
-299.94
-301.727
-295.921
-297.987
-304.198
-327.212
-315.888
-316.677
-314.617
-315.445
-327.178
-300.094
-309.445
-308.288
-296.36
-291.587
-293.825
-287.405
-289.524
-294.286
-274.781
-280.657
-278.276
-466.232
-462.271
-470.483
-439.641
-451.497
-456.247
-477.117
-491.363
-494.114
-486.477
-489.222
-476.685
-226.363
-238.518
-243.697
-225.948
-232.165
-219.319
-255.897
-242.504
-235.794
-278.695
-282.917
-273.917
-296.957
-289.352
-285.294
-297.745
-293.807
-303.93
-313.691
-313.162
-301.788
-332.684
-319.755
-320.111
-317.637
-318.818
-330.983
-317.757
-304.355
-301.171
-310.687
-307.67
-321.621
-291.043
-301.939
-304.46
-467.548
-483.338
-479.875
-489.885
-486.987
-472.579
-437.624
-432.247
-423.68
-445.496
-438.242
-443.589
-484.588
-499.682
-501.518
-496.138
-498.393
-484.957
-479.573
-495.854
-493.298
-500.126
-498.531
-483.706
-261.818
-254.999
-251.855
-260.296
-256.922
-264.107
-243.902
-250.116
-253.06
-323.689
-328.159
-321.849
-282.203
-294.455
-300.656
-278.524
-285.788
-274.307
-308.515
-297.122
-289.381
-233.845
-239.801
-228.721
-262.724
-251.147
-245.054
-263.325
-257.616
-269.818
44.0532
37.1223
33.4494
44.431
41.1922
47.9779
26.231
33.9311
40.7888
70.9311
66.5565
72.7755