/*--------------------------------*- C++ -*----------------------------------*\
| =========                 |                                                 |
| \\      /  F ield         | OpenFOAM: The Open Source CFD Toolbox           |
|  \\    /   O peration     | Version:  5.x                                   |
|   \\  /    A nd           | Web:      www.OpenFOAM.org                      |
|    \\/     M anipulation  |                                                 |
\*---------------------------------------------------------------------------*/
FoamFile
{
    version     2.0;
    format      ascii;
    class       volScalarField;
    location    "400";
    object      p_rgh;
}
// * * * * * * * * * * * * * * * * * * * * * * * * * * * * * * * * * * * * * //

dimensions      [0 2 -2 0 0 0 0];

internalField   nonuniform List<scalar> 
6584
(
10.4235
11.1209
11.9611
13.2208
14.8391
16.9321
19.4765
22.5
25.6673
28.7524
30.7663
30.65
27.6098
21.8124
14.3534
6.57445
-0.469715
-6.47408
-11.2735
-14.9996
-17.7812
-19.8551
-21.2067
-22.2868
10.1777
10.9387
11.7268
12.9715
14.5495
16.6399
19.2157
22.4001
25.8215
29.3472
31.8193
32.0279
28.907
22.6305
14.6047
6.22827
-1.09169
-7.19661
-11.9533
-15.5927
-18.2628
-20.2715
-21.5192
-22.6753
9.65009
10.4184
11.1054
12.2732
13.7456
15.8001
18.4524
22.0846
26.0818
29.9043
34.7689
36.9952
34.7095
27.5771
17.736
4.98818
-2.99167
-9.29037
-13.8875
-17.2372
-19.5979
-21.3742
-22.3999
-23.5077
8.96006
9.66238
10.201
11.2079
12.4792
14.3722
17.0435
21.105
26.6387
32.1506
40.1486
45.737
44.069
33.6031
19.4948
6.64203
-6.26691
-12.7573
-16.9454
-19.7355
-21.5845
-22.9533
-23.6564
-24.5717
8.16505
8.72958
9.06567
9.79761
10.7228
12.1964
14.5697
18.6303
23.7998
33.6078
46.4637
59.1809
59.4127
41.6183
19.1885
2.13009
-8.72295
-18.15
-21.3773
-23.0641
-24.1332
-24.8838
-25.1647
-25.7529
7.31607
7.67357
7.75253
8.07416
8.46124
9.03092
10.5665
12.9808
19.559
30.2375
48.8057
81.1577
94.6858
58.8659
13.6715
-8.22664
-18.4239
-25.2926
-26.9446
-27.069
-27.0995
-27.031
-26.8033
-26.9413
6.48542
6.58315
6.3741
6.18387
5.8985
5.2626
5.39935
6.49017
9.01961
16.7015
39.9897
99.5792
185.606
63.8048
-1.52138
-28.5012
-32.6389
-34.498
-33.4143
-31.4831
-30.2308
-29.1871
-28.4006
-27.9961
5.75295
5.57148
5.08705
4.36162
3.35164
1.39467
-0.499027
-1.61945
-5.70955
-9.80278
-5.60645
26.008
-18.9624
-58.3705
-60.2744
-51.3346
-44.662
-40.0312
-35.7872
-33.1432
-31.0797
-29.7496
-28.7662
5.18963
4.75469
4.06204
2.89343
1.27424
-1.76341
-5.60121
-9.47729
-20.4908
-40.0979
-70.5429
-150.44
-244.067
-138.232
-94.8021
-69.8739
-53.5589
-45.4512
-39.2062
-35.3458
-32.4031
-30.6366
-29.115
4.84251
4.22613
3.44393
2.04372
0.13433
-3.31977
-8.14796
-13.8378
-27.9782
-54.5349
-100.555
-208.315
-350.996
-186.841
-114.829
-81.087
-58.5005
-48.2278
-40.9458
-36.3719
-32.8864
-30.8811
-28.944
4.72166
4.02677
3.29553
1.93278
0.147683
-2.90109
-7.3441
-13.0466
-24.8507
-45.8068
-81.6907
-153.896
-308.976
-178.368
-111.295
-80.5976
-57.8711
-47.5707
-40.5635
-35.9609
-32.3823
-30.3857
-28.2157
4.79614
4.1296
3.56865
2.47764
1.16252
-0.871328
-3.83524
-7.94919
-13.8561
-22.0773
-34.233
-46.9116
-184.138
-127.616
-88.6695
-69.5789
-52.1011
-43.7511
-38.1493
-34.1662
-30.9214
-29.1673
-26.9661
5.00331
4.44972
4.12465
3.43452
2.75169
1.92009
0.802849
-1.03773
-0.988265
2.48893
10.8352
41.3529
-52.9481
-66.3878
-59.0723
-53.1875
-43.2505
-37.9139
-34.2579
-31.3146
-28.7098
-27.3488
-25.2948
5.26784
4.87538
4.79071
4.51337
4.43285
4.63841
5.06537
7.39047
8.6052
18.676
33.5823
75.2202
161.023
24.1481
-20.8607
-33.5471
-36.9428
-33.7375
-31.4215
-29.6493
-27.872
-26.0171
-25.1196
-23.3359
5.5204
5.30065
5.41403
5.47555
5.83576
6.68955
8.00269
10.8766
13.9231
23.3237
36.4906
57.9076
64.3641
31.2094
-1.82574
-16.9938
-23.0954
-25.1152
-25.2942
-24.9899
-24.27
-23.1221
-22.6793
-21.2285
5.70954
5.64779
5.89598
6.19197
6.80522
7.96897
9.5779
12.6857
15.6479
22.3716
31.3949
38.2442
33.519
20.7418
4.88667
-7.97617
-15.8957
-18.6434
-20.1401
-20.738
-20.8258
-20.2694
-20.2061
-19.1061
5.80534
5.87327
6.19294
6.62702
7.33312
8.58378
10.0971
13.0308
15.991
19.2209
23.4044
24.4602
26.169
17.3252
5.83421
-3.3832
-10.3024
-13.7959
-15.93
-17.0749
-17.708
-17.5891
-17.8169
-17.0452
5.79633
5.96187
6.30009
6.79688
7.47691
8.66152
9.87838
12.1757
14.3176
17.3658
17.7231
20.1746
14.4324
12.2836
3.78136
-2.14549
-6.49896
-10.3325
-12.5898
-14.0363
-14.9851
-15.1731
-15.5964
-15.1095
5.68469
5.91836
6.23692
6.74626
7.32902
8.37992
9.23841
11.0235
11.862
14.5911
10.9789
17.3235
14.0618
4.21572
4.21324
-1.66583
-4.70825
-8.05753
-10.0679
-11.5993
-12.6721
-13.0584
-13.5914
-13.3406
5.48129
5.75959
6.0354
6.53177
6.98698
7.90726
8.41816
9.93355
9.90988
12.522
9.7703
13.2209
11.1082
4.44683
3.98406
-1.33561
-3.41171
-6.42787
-8.13798
-9.65441
-10.7303
-11.2382
-11.8159
-11.754
5.20131
5.50741
5.72891
6.20294
6.52207
7.3366
7.54143
8.87906
8.35678
10.5117
8.16625
9.66296
8.114
3.87548
3.36633
-1.07033
-2.4686
-5.22044
-6.63003
-8.09406
-9.10504
-9.68598
-10.2628
-10.3491
4.8611
5.18391
5.34707
5.79814
5.98481
6.71643
6.66853
7.84809
7.03086
8.73044
6.65268
7.49243
6.235
3.08125
2.72646
-0.923869
-1.85378
-4.33085
-5.45065
-6.84089
-7.74729
-8.36971
-8.9151
-9.11595
4.47666
4.80962
4.91554
5.34739
5.41369
6.08201
5.84036
6.88685
5.92014
7.28754
5.48162
5.96075
4.93195
2.48021
2.20878
-0.835169
-1.44478
-3.65924
-4.52284
-5.82984
-6.61266
-7.25596
-7.75109
-8.0394
4.06282
4.40262
4.45559
4.87371
4.83643
5.45778
5.07616
6.01342
4.98911
6.10292
4.53222
4.77319
3.92344
1.9933
1.78182
-0.774029
-1.15948
-3.13558
-3.78353
-5.00586
-5.66121
-6.31238
-6.74709
-7.10137
3.63257
3.97795
3.98402
4.39385
4.271
4.85766
4.38013
5.22619
4.19875
5.11466
3.75055
3.85189
3.13468
1.58679
1.42596
-0.729839
-0.955152
-2.71693
-3.18617
-4.32616
-4.85837
-5.50886
-5.87914
-6.28251
3.19718
3.5479
3.51372
3.91976
3.72878
4.28975
3.75112
4.52091
3.52359
4.28563
3.09547
3.12129
2.51276
1.25871
1.13539
-0.693969
-0.80397
-2.37454
-2.69692
-3.75758
-4.17528
-4.81909
-5.12505
-5.56406
2.76606
3.12222
3.05439
3.45989
3.21662
3.75805
3.18512
3.89111
2.94384
3.59165
2.54607
2.53969
2.033
0.994632
0.900218
-0.662066
-0.687434
-2.08718
-2.28917
-3.2748
-3.58822
-4.22109
-4.46491
-4.928
2.34709
2.70853
2.61314
3.01981
2.73792
3.26388
2.67696
3.33002
2.44165
3.00597
2.08752
2.07367
1.64485
0.765664
0.711408
-0.627773
-0.58833
-1.83627
-1.93991
-2.85472
-3.07534
-3.69333
-3.87917
-4.35684
1.94685
2.31257
2.19497
2.60296
2.29417
2.80677
2.22106
2.83093
2.00352
2.50457
1.69766
1.68619
1.32487
0.580161
0.562224
-0.590981
-0.499994
-1.61246
-1.63451
-2.48173
-2.62009
-3.21943
-3.35158
-3.8355
1.57081
1.93874
1.8035
2.21144
1.8852
2.38482
1.811
2.38468
1.62001
2.07248
1.36356
1.36075
1.05901
0.430159
0.444803
-0.550264
-0.417132
-1.40752
-1.36137
-2.14277
-2.20829
-2.78457
-2.86719
-3.34922
1.22363
1.58988
1.44087
1.84539
1.50999
1.9964
1.44073
1.98114
1.28043
1.69526
1.07393
1.08401
0.835806
0.308312
0.352937
-0.504137
-0.336073
-1.21431
-1.11086
-1.82699
-1.82825
-2.37591
-2.41317
-2.88443
0.909666
1.26791
1.10896
1.50375
1.16758
1.63746
1.10719
1.61477
0.97818
1.36117
0.819621
0.844447
0.644592
0.208538
0.280894
-0.451999
-0.255149
-1.02753
-0.876823
-1.52561
-1.47107
-1.98293
-1.97904
-2.42923
0.632496
0.97208
0.808217
1.18356
0.855299
1.29881
0.805342
1.27568
0.707173
1.05912
0.593815
0.632686
0.477948
0.127922
0.224014
-0.391688
-0.174368
-0.841177
-0.654579
-1.22927
-1.1288
-1.59358
-1.55361
-1.96885
0.398273
0.704884
0.542942
0.885263
0.576576
0.980262
0.53745
0.960399
0.467463
0.781877
0.38909
0.435358
0.325204
0.0633227
0.177389
-0.322471
-0.0966039
-0.653358
-0.446096
-0.93652
-0.803535
-1.20743
-1.13904
-1.50294
0.202962
0.441373
0.299897
0.571813
0.317119
0.639817
0.289279
0.626449
0.248304
0.500474
0.207624
0.255841
0.18863
0.0169274
0.128418
-0.231077
-0.0278156
-0.438307
-0.244005
-0.611071
-0.47331
-0.778452
-0.697879
-0.972265
0.0826225
0.253947
0.142284
0.34312
0.150859
0.390933
0.134418
0.383159
0.107476
0.281601
0.0240486
0.00929637
0.00903863
-0.00360693
0.099803
-0.139758
0.024729
-0.259694
-0.0984864
-0.355515
-0.234376
-0.44911
-0.373775
-0.564594
-134.988
-239.187
-9.29219
-207.327
-376.5
-265.694
-165.558
-346.796
-382.63
-60.2249
-210.784
-332.475
32.7913
-63.8509
-192.108
75.6751
180.648
175.323
32.0548
-47.4886
47.9077
185.593
20.5925
85.4616
-56.0975
-118.775
19.2961
-179.25
94.5632
-220.637
-134.165
-58.0591
-97.8459
-187.51
-132.911
-185.476
-266.916
-223.208
-470.296
-380.353
-345.573
-206.503
-157.256
-90.3847
-152.955
-188.395
-200.267
-278.182
-293.125
-518.773
-527.663
-320.914
-210.209
-214.148
-46.9839
-58.6094
-142.478
-115.221
-137.694
-204.828
-341.506
-439.577
-201.242
-155.679
-200.543
-140.426
-231.394
-67.7988
-81.6188
-137.394
48.8787
-28.3338
64.7479
63.6902
163.986
59.982
45.9729
35.3922
-214.714
-121.545
-75.1664
-134.03
-230.964
90.6504
-115.108
-372.764
-203.752
-147.745
-194.472
-363.023
-291.926
-271.224
-193.356
-281.053
-302.476
-239.347
-280.249
-521.952
-474.908
-343.477
-459.654
-516.516
-369.416
-455.478
-327.842
-214.014
-271.859
-193.67
-281.838
-219.531
-301.798
-286.283
-444.22
-514.373
-378.491
-511.803
-432.869
-519.954
-515.581
-384.07
-131.464
-60.7496
-213.774
-141.888
-237.996
-334.889
-265.408
-331.183
-237.02
-427.564
-337.838
-283.228
18.2278
63.5821
-51.2095
10.6348
-40.5178
-127.909
-224.617
-139.314
-135.281
108.633
119.747
68.3995
106.158
94.3379
55.7756
-51.185
-101.691
79.7016
-64.7446
238.126
1.15101
26.8234
-46.4865
-9.02857
7.4549
-51.7512
33.8937
-20.3413
21.2514
-22.9014
-64.3568
185.757
-72.2777
76.6978
-166.788
-113.014
-60.7247
-127.849
-101.499
-99.8949
-58.0607
58.7648
81.0385
-52.3028
-13.5695
-27.9283
-79.6256
-116.933
-127.11
-43.7185
83.7583
110.385
-32.4274
40.0722
-3.76429
308.966
196.546
120.024
126.84
200.649
311.529
-102.37
-68.4097
-112.182
214.332
-73.8973
-28.342
-435.874
-427.068
-534.222
-533.067
-385.813
-393.504
-177.202
-145.087
-184.561
90.1465
41.216
-21.7064
30.4489
7.67951
-206.558
-185.618
-252.218
-211.744
-255.591
-198.739
-200.106
-82.3965
-36.231
-100.485
-195.446
-304.915
-295.562
-294.452
-294.424
-259.581
-261.255
-500.898
-500.258
-495.287
-421.49
-398.686
-441.9
-427.409
-497.424
-417.728
-349.543
-310.147
-390.337
-360.773
-423.923
-256.612
-251.286
-302.769
-300.309
-483.406
-486.229
-483.621
-418.808
-436.878
-387.83
-411.531
-479.712
-527.981
-450.017
-445.099
-441.64
-449.426
-528.41
-105.031
-100.971
-105.313
-147.377
-58.3686
-99.7847
-90.8819
-183.612
-152.184
-173.205
-283.612
-290.662
-386.62
-350.509
-379.207
-309.376
-340.339
-380.291
30.6784
56.3806
-23.129
-14.4624
-52.6848
23.9639
-9.39727
-14.2934
-8.20587
26.3409
-77.6185
-80.2701
-28.885
-139.245
-86.4582
-90.595
-84.558
142.821
158.41
204.598
113.659
137.291
217.501
130.295
94.5577
445.047
30.8184
62.0327
34.6531
61.9527
93.5245
66.1026
105.521
83.0397
94.9994
278.812
59.6217
14.7315
2.42155
76.6494
85.4971
240.897
156.462
153.224
90.4842
100.812
136.043
135.917
208.592
468.791
322.664
216.593
276.612
352.657
480.109
-251.937
-210.326
-228.114
-459.84
-407.372
-402.397
-290.651
-244.587
-237.072
-248.182
-248.455
-292.681
-527.979
-529.516
-360.647
-420.781
113.609
101.248
18.9192
37.2083
78.439
117.306
95.42
108.603
-5.43266
-59.0303
172.899
-345.201
-375.546
-402.987
-273.388
-224.889
-159.06
-295.262
-242.761
-295.291
-285.394
-242.911
-249.72
-230.285
-242.548
-282.482
-288.105
-310.878
-302.227
-328.738
-327.558
-298.914
-299.543
-293.369
-272.067
-515.693
-485.904
-475.561
-444.93
-436.413
-479.952
-471.31
-509.857
-230.883
-216.555
-248.91
-272.446
-292.133
-310.611
-304.267
-333.648
-330.083
-314.749
-326.129
-293.204
-462.693
-503.94
-501.143
-464.438
-472.757
-420.701
-425.75
-451.67
-524.205
-486.597
-480.108
-477.467
-482.624
-523.6
-257.239
-267.433
-246.071
-344.057
-330.312
-316.451
-287.923
-266.2
-298.663
-222.644
-255.012
-274.906
39.2365
53.3254
28.09
76.7162
58.2985
45.5418
155.721
163.231
86.5258
103.572
83.0283
144.587
153.827
131.954
118.871
47.7351
334.888
97.2297
42.764
9.63455
13.459
45.513
4.32857
1.70378
59.2089
50.3756
263.332
-1.91785
20.5842
-83.0134
-74.486
69.2268
74.2993
68.299
73.858
66.9571
85.3712
76.3813
70.9406
-34.7505
-28.7385
-49.4728
-56.8133
94.5878
99.1006
88.403
105.402
121.106
-172.92
-147.836
-69.6769
-227.882
-170.014
-196.177
-456.071
-408.634
-530.158
-533.672
-366.391
-414.626
-170.978
-166.894
-186.859
-141.043
-160.573
-162.469
-221.198
-242.261
-193.362
-213.184
70.1611
88.7871
105.942
51.5267
80.825
64.2259
86.8937
54.507
-231.072
-202.494
-224.414
-164.765
-194.038
-222.843
-250.288
-261.52
-230.439
-246.23
-152.581
-116.449
-154.765
-167.852
-182.641
-347.501
-367.7
-337.614
-348.523
-299.29
-246.024
-340.304
-313.505
-257.968
-295.079
-337.095
-320.524
-314.426
-288.602
-317.925
-324.359
-312.835
-313.865
-333.652
-331.991
-323.694
-330.431
-299.159
-325.691
-321.015
-283.758
-294.401
-265.275
-279.192
-304.265
-310.068
-296.821
-303.631
-270.935
-291.931
-285.155
-515.182
-486.044
-459.018
-446.695
-480.689
-507.779
-470.579
-460.233
-272.549
-286.953
-267.462
-296.718
-281.987
-317.119
-301.883
-258.133
-237.684
-276.51
-262.91
-334.416
-333.349
-302.837
-337.85
-341.434
-334.158
-339.208
-331.761
-318.804
-338.397
-334.586
-296.766
-328.508
-332.966
-467.994
-496.33
-448.889
-458.973
-495.608
-460.303
-431.748
-443.25
-489.076
-485.803
-526.613
-525.644
-486.172
-487.019
-122.705
-121.87
-118.617
-102.197
-141.57
-124.424
-130.319
-75.5158
-74.0082
-60.4651
-96.7117
-79.5791
-81.8537
-208.756
-191.761
-230.994
-214.456
-168.179
-163.779
-147.099
-186.333
-169.398
-176.124
-294.587
-275.356
-264.309
-276.882
-294.317
-248.331
-268.545
-300.473
-309.774
-322.909
-299.77
42.8411
48.845
38.8681
64.6732
52.8459
46.6248
66.7674
7.7071
33.5599
12.8434
-117.291
-114.507
-134.416
-85.9596
-107.977
-109.5
-109.253
-116.855
166.905
183.484
127.082
140.521
166.595
138.144
6.13225
-34.9036
9.19105
7.80889
48.8167
75.3312
631.497
468.262
391.912
481.555
533.46
650.82
73.0531
162.462
105.355
-181.64
-206.085
-245.948
-466.106
-468.687
-473.665
-524.904
-527.646
-181.134
-158.824
-176.985
-441.415
-435.476
-433.957
-239.393
-218.343
-212.141
-183.129
-142.127
-174.77
-255.558
-241.713
-221.231
-234.231
-281.124
-246.41
-246.019
-271.292
-259.441
-517.958
-479.988
-484.627
-479.325
-500.438
-497.793
-513.564
-428.215
-419.553
-443.813
-240.497
-208.832
-189.74
-231.774
-248.751
-233.452
-449.564
-447.672
-443.909
-511.497
-508.564
-490.729
-494.06
-521.507
-504.856
-502.961
-497.695
-501.049
-519.623
-202.673
-211.267
-226.325
-410.183
-396.785
-409.063
-187.444
-178.568
-211.489
162.83
163.425
128.424
110.567
90.8835
163.093
163.31
88.8805
114.836
78.8784
-53.092
-32.2849
-94.6435
-57.22
-62.8489
-63.9492
-46.532
-45.7863
-51.4944
-11.9954
-17.1288
-18.8137
-78.6472
-72.2777
-72.7644
118.444
103.557
97.7824
188.346
303.001
249.158
-125.031
-142.76
-122.272
-90.8655
-243.806
-224.583
-44.1388
33.7222
50.9611
-448.06
-450.425
-443.113
-419.872
-434.547
-441.085
-538.051
-533.679
-393.226
-386.067
-378.655
-401.459
-407.589
-400.896
-184.036
-189.397
-143.764
-150.207
-150.764
-194.575
-199.913
-205.451
-211.032
-191.768
-215.241
-243.994
-244.829
-250.945
-188.405
-198.591
-220.754
-273.335
-278.807
-255.614
-258.609
-255.677
-59.2196
-105.275
-137.025
-123.578
-115.786
-127.367
-179.68
-276.627
-265.774
-282.873
-274.659
-248.192
-282.826
-283.622
-504.252
-499.659
-387.485
-374.741
-398.32
-440.183
-410.118
-399.347
-239.018
-253.601
-267.492
-477.734
-488.202
-510.823
-510.684
-528.027
-529.627
-510.993
-510.797
-110.261
-111.037
-109.898
-104.06
-146.491
-141.159
-142.869
-189.632
-205.87
-193.976
-202.65
-197.467
-233.796
-229.507
-157.199
-157.271
-151.81
-192.711
-188.047
-373.837
-385.189
-404.22
-362.597
-351.216
-362.474
-29.884
-29.0741
-19.1672
-50.7215
-39.6744
-35.488
-57.5484
-61.6764
-79.1179
-34.8564
-48.7685
-50.2105
-131.988
-130.567
-137.03
-93.9521
-86.6559
-135.548
185.266
188.384
198.022
137.543
128.013
136.461
123.698
149.932
140.154
131.672
201.932
171.647
111.78
127.365
115.193
198.701
383.784
107.477
79.2353
82.1902
187.094
192.962
217.265
92.8595
92.6425
87.9161
101.294
96.8079
96.5103
212.326
180.07
171.871
331.923
478.908
426.132
-464.484
-465.623
-462.836
-409.862
-411.75
-405.384
-424.044
-412.957
-528.23
-527.302
-367.334
-371.381
-351.467
-359.555
-427.207
-427.664
-421.134
107.229
111.924
118.407
101.123
106.649
102.104
-384.152
-382.412
-373.449
-398.796
-390.817
-393.885
-515.395
-482.689
-485.747
-486.146
-511.276
-495.6
-493.511
-457.071
-451.403
-456.451
-510.766
-483.194
-487.31
-505.866
-507.716
-506.096
-522.447
-522.317
-503.795
-505.656
-338.34
-338.907
-344.12
-327.394
-332.912
-333.948
164.832
167.018
155.684
159.178
148.258
154.501
150.786
138.063
130.51
127.562
134.246
137.656
123.034
127.028
123.441
32.0864
9.76402
-1.19347
65.8312
279.095
237.227
309.948
119.803
152.598
202.278
23.0793
21.7006
12.4887
39.7667
31.1514
32.8639
-12.2204
-9.30545
-19.032
3.65568
-4.20429
-3.89118
80.3966
97.1792
38.599
-61.2351
-93.034
-18.189
-25.2122
-89.6233
-69.6881
-68.5942
-75.7956
70.4798
72.1707
63.4134
66.1276
69.2209
-34.3636
-40.1424
-40.7251
-15.833
-10.5194
-22.2046
-23.3356
-20.9382
-28.4571
-46.3186
-41.3753
-43.0463
-40.0912
-48.8344
-26.2937
-33.2075
-65.0037
-64.7041
-56.513
110.279
111.288
106.155
122.862
116.823
115.505
-180.732
-151.574
-147.466
-216.33
-224.608
-204.348
-452.006
-450.237
-456.485
-462.154
-432.505
-430.204
-443.513
-436.572
-534.758
-535.613
-385.194
-391.289
-375.454
-379.98
-372.215
-379.906
-374.428
-416.076
-411.457
-408.342
-400.622
-168.45
-177.738
-156.398
-156.634
-163.019
-229.153
-230.55
-222.019
-243.023
-238.323
-236.274
-199.91
-200.826
-194.768
-214.319
-205.652
-205.969
-207.136
60.8852
56.3853
47.32
75.8165
64.8919
-221.311
-231.208
-238.69
-237.192
-226.612
-210.392
-220.282
-267.08
-269.245
-276.127
-272.138
-257.529
-255.736
-264.057
-154.696
-138.6
-149.842
-111.883
-190.586
-179.697
-170.904
-357.602
-340.343
-329.361
-363.21
-353.078
-367.081
-371.026
-358.783
-280.907
-283.274
-301.847
-266.843
-282.053
-264.516
-328.493
-314.509
-320.918
-325.11
-321.827
-325.008
-314.386
-317.785
-317.813
-316.335
-315.444
-332.538
-331.259
-324.859
-327.306
-289.288
-294.779
-288.818
-296.712
-296
-292.362
-269.049
-282.103
-279.576
-288.933
-285.316
-273.489
-285.624
-287.751
-305.604
-307.666
-306.607
-313.567
-310.294
-307.648
-299.438
-302.734
-299.385
-307.611
-307.758
-302.386
-508.711
-493.482
-292.434
-294.353
-296.868
-282.92
-289.625
-287.621
-312.469
-299.855
-303.918
-307.125
-251.998
-254.574
-261.415
-240.807
-247.178
-244.908
-271.634
-272.509
-277.021
-265.599
-268.687
-267.144
-338.423
-340.182
-337.075
-340.372
-326.278
-321.931
-335.515
-334.189
-472.172
-491.43
-528.178
-510.525
-509.268
-507.824
-509.736
-528.188
-115.703
-121.496
-115.844
-116.812
-137.435
-135.192
-128.211
-215.578
-208.576
-202.952
-208.268
-214.465
-225.39
-230.491
-235.232
-220.353
-225.301
-219.798
-226.054
-222.299
-169.169
-163.057
-162.471
-183.138
-175.255
-288.63
-284.305
-290.964
-270.591
-277.601
-282.547
-284.812
-289.828
-253.33
-254.52
-248.023
-261.216
-314.433
-312.72
-320.558
-297.375
-304.71
-307.122
45.3253
43.8414
47.5946
36.1232
40.1978
42.3173
63.1767
58.634
60.8497
51.5225
55.4813
57.2037
61.6616
5.36162
10.5902
-5.30302
0.237146
28.437
26.671
31.2061
16.1368
23.5728
22.0347
-116.295
-123.867
-125.096
-101.579
-125.055
170.816
176.203
132.264
139.291
129.749
146.585
141.924
136.088
146.026
152.076
156.571
144.729
49.2941
67.4912
53.2549
74.8248
85.3252
61.7402
83.9608
65.3848
52.3563
55.2387
30.9659
30.3124
24.7637
36.3455
39.2747
45.0817
82.7796
72.0019
102.713
167.52
96.0664
167.306
90.7972
71.0214
66.0919
17.1706
26.8305
6.13478
-8.59543
0.922248
5.01983
5.53921
31.5267
9.65883
37.7081
82.1104
97.2763
161.898
141.418
268.928
191.732
153.174
63.0787
30.2039
41.5663
-40.155
-39.809
-21.5663
-25.7992
-47.3705
-6.77627
-22.5257
-25.9825
-4.09648
1.47112
4.92884
34.7231
-106.93
-98.1615
-44.8612
-119.548
-87.5505
-62.6347
-50.1637
-82.0708
-58.969
-82.6758
-101.611
-86.9705
-164.092
-184.181
-169.65
-300.731
-234.75
-188.722
-180.26
-128.842
-110.815
-52.8589
-77.1097
-84.3857
-100.205
-120.671
-121.976
-207.672
-230.492
-231.156
-352.053
-280.41
-273.019
-185.972
-140.593
-139.119
-34.9161
-42.1749
-70.1246
-71.2571
-82.1732
-95.5451
-141.603
-153.238
-167.51
-266.819
-225.534
-252.591
-142.727
-119.799
-133.608
-9.12057
-1.8924
-31.6498
-33.8074
-33.0628
-47.6781
-132.316
-123.374
-163.153
-81.107
-81.2838
-101.52
11.7236
24.324
6.39677
-12.8129
-34.3789
-56.2269
-29.678
-43.5269
-61.3615
21.9977
29.337
26.1036
37.8323
56.881
64.3767
72.271
89.2939
106.611
118.568
124.454
127.843
32.9263
3.82068
-13.458
-8.51849
-17.8094
-29.0207
23.3373
29.3059
30.0877
34.4557
40.266
52.1986
42.2914
42.5434
68.7433
40.4598
31.3423
41.7319
25.5355
12.1328
5.8958
3.17229
-5.59314
-10.5426
27.122
31.1176
35.0131
26.6351
34.8767
35.8638
31.1446
19.8686
28.3533
19.626
11.779
13.126
-152.716
-132.96
-117.156
-209.06
-233.627
-281.1
6.49091
-31.2964
-42.5026
-229.843
-226.622
-204.296
-367.834
-408.468
-423.461
-294.863
-332.974
-289.054
-181.116
-193.7
-176.106
-359.486
-398.787
-375.812
-426.429
-432.406
-386.084
-62.2826
-76.9459
-73.8485
-228.648
-248.478
-219.163
-366.858
-340.062
-316.931
-81.0795
-78.3718
-59.9259
-200.505
-179.033
-172.882
108.24
100.09
65.7638
202.433
185.66
169.728
167.186
165.361
199.245
-42.0489
-24.4252
-31.7034
104.656
163.118
90.7604
742.205
637.431
646.035
156.815
190.427
266.979
747.819
778.131
43.3569
66.6002
41.1664
135.922
159.494
81.4843
-68.9517
-48.1977
-39.6927
-64.7412
-55.7046
-82.2219
1.47808
-26.8801
-44.2536
-145.989
-158.388
-216.223
117.888
72.6213
56.5809
-173.835
-116.457
-136.991
-108.93
-115.875
-147.84
-52.8276
-83.3852
-83.3033
-119.248
-112.409
-91.7439
-173.597
-135.89
-143.922
-104.848
-122.844
-166.336
-206.739
-196.446
-175.573
-262.315
-248.693
-253.555
-208.787
-217.03
-230.101
-390.074
-399.319
-387.923
-271.396
-243.292
-315.173
-194.039
-222.687
-237.577
-177.106
-202.392
-177.639
-106.887
-115.459
-96.6215
-176.886
-138.144
-127.064
-146.935
-144.957
-182.6
-222.214
-227.506
-204.824
-283.426
-265.803
-261.312
-276.263
-276.527
-293.814
-262.834
-275.304
-347.255
-215.869
-247.097
-239.104
-246.618
-249.798
-217.444
-52.0033
-67.4306
-59.4713
-95.7487
-77.0701
-57.9256
-112.552
-95.5735
-108.157
-123.183
-138.383
-128.581
-167.139
-149.87
-125.76
-197.145
-188.485
-196.363
-348.339
-356.361
-348.046
-176.973
-212.519
-251.103
-172.661
-191.267
-170.314
-226.494
-210.284
-187.933
-153.038
-159.708
-140.239
-234.507
-227.987
-225.233
-81.1214
-104.164
-115.793
-99.7787
-103.913
-82.3227
-148.173
-125.511
-118.549
39.5224
48.2369
58.1976
-25.0626
-12.121
-16.1263
69.5582
83.5981
69.7328
96.3593
88.3404
74.8976
145.101
128.488
121.991
68.9727
77.7631
93.9449
46.8501
68.3697
55.5693
78.9629
71.5069
44.7315
-205.26
-190.112
-199.966
-89.2411
-131.749
-170.226
-97.3308
-110.285
-84.4868
-153.944
-183.614
-156.362
59.2426
65.0696
104.284
-130.963
-106.648
-92.3067
-364.258
-373.709
-381.967
-213.141
-230.381
-220.827
-158.269
-195.466
-180.312
-223.528
-209.133
-182.429
-328.735
-313.671
-333.041
-290.203
-274.338
-275.652
-257.746
-261.708
-275.347
-199.806
-221.735
-215.081
-284.365
-290.663
-288.13
-311.938
-310.946
-300.525
-286.035
-283.551
-276.719
-380.801
-402.903
-356.812
-464.671
-457.904
-451.546
-391.659
-361.024
-345.9
-449.103
-442.734
-451.01
-309.72
-343.585
-372.944
-223.038
-214.063
-205.816
-255.924
-250.124
-264.686
-185.675
-205.009
-214.592
-279.719
-288.537
-292.442
-222.953
-228.007
-223.801
-303.681
-313.609
-312.586
-296.385
-299.519
-287.939
-421.89
-405.985
-370.183
-427.268
-429.743
-437.658
-386.598
-431.909
-426.278
-121.084
-122.688
-139.384
-61.2078
-71.1307
-70.4769
-209.094
-212.302
-217.624
-144.955
-161.644
-152.339
-244.083
-247.363
-241.009
-340.301
-333.87
-328.898
-290.492
-259.405
-247.205
-312.394
-304.508
-316.351
-232.307
-244.284
-249.595
-422.264
-417.447
-421.248
-328.22
-339.877
-356.602
-300.434
-330.207
-300.94
25.579
29.0929
21.5021
68.011
61.9126
57.6231
-41.6458
-40.9148
-51.1401
13.6032
5.32794
2.63476
-52.8789
-51.2585
-38.0926
-133.725
-114.968
-115.406
-212.138
-208.377
-220.354
-134.916
-167.396
-175.996
-153.959
-158.143
-137.76
118.21
146.563
133.431
142.601
147.681
118.046
75.1918
80.0682
73.826
82.1453
120.512
123.09
-55.8696
-25.3548
-25.1649
-29.7411
-25.3217
-74.9108
48.2866
11.7912
-2.46514
272.134
215.533
193.209
-1.39694
-3.64839
11.6067
-38.9071
-20.6319
-11.8561
-5.95807
-19.1458
-21.1598
-16.5967
-16.289
-1.90352
-48.1267
-31.7141
-24.9965
25.9922
28.5845
37.1028
-19.1864
-12.0645
-12.8474
-1.92946
-16.2198
-2.22959
141.895
155.082
207.173
-109.096
-78.6662
-44.5992
-29.3594
-39.133
24.4725
-136.593
-63.8021
-66.6973
-77.5246
-73.4672
-116.402
-88.7834
-83.3707
-62.811
-116.875
-91.9458
-98.3955
-87.7021
-92.3194
-107.758
62.2867
64.4801
61.4568
82.6578
79.3317
77.276
-35.655
-34.3402
-26.8026
-117.628
-97.7959
-98.8206
-90.7168
-91.7349
-124.288
-53.9353
-81.5305
-78.7753
87.5681
88.9706
85.7077
112.741
108.303
105.644
1.69026
-15.6877
-35.6748
18.809
2.62146
12.0455
-17.1005
-8.12128
6.60806
267.299
315.927
423.081
187.268
276.851
244.758
204.035
276.496
178.566
152.868
187.58
156.579
252.459
297.166
196.107
429.857
338.043
275.501
-66.2274
-137.513
-108.106
94.1878
96.6377
149.402
-58.1982
-24.1032
-35.7231
13.4537
22.7007
-23.3163
-185.48
-166.044
-165.838
-192.351
-194.975
-189.177
82.9093
88.433
94.6256
44.8389
52.772
48.5985
-0.0737332
-7.46402
-21.0383
19.8202
6.1879
7.36884
-4.15472
0.777669
13.5631
-212.679
-191.34
-170.905
-210.561
-236.725
-218.82
-183.206
-166.606
-178.198
-65.4641
-87.7042
-102.284
-65.6329
-76.8703
-47.2124
-318.35
-329.364
-317.307
-282.372
-295.219
-307.385
-302.68
-300.967
-291.85
-296.848
-305.377
-303.849
-267.037
-264.012
-255.057
-265.533
-272.358
-269.518
-479.695
-476.805
-492.518
-414.459
-433.665
-441.305
-418.205
-425.029
-406.831
-437.647
-459.591
-464.455
-447.93
-454.105
-433.024
-500.378
-484.947
-482.082
-406.882
-398.718
-411.038
-337.212
-356.181
-368.512
-328.799
-343.076
-324.297
-381.108
-400.61
-409.757
-380.011
-390.767
-371.482
-430.001
-419.44
-411.422
-261.643
-265.994
-259.643
-247.988
-252.409
-256.82
-313.716
-314.031
-302.109
-300.304
-311.312
-312.468
-466.371
-470.039
-487.044
-425.336
-448.559
-440.885
-461.77
-455.65
-431.602
-395.899
-413.151
-402.343
-432.463
-423.204
-404.048
-474.282
-458.084
-462.404
-449.255
-474.112
-475.333
-468.55
-471.836
-447.782
-445.188
-471.064
-467.037
-475.258
-473.907
-447.995
-102.205
-117.048
-110.743
-64.291
-64.0181
-58.3645
-98.3854
-92.6796
-94.1851
-80.5507
-81.7542
-92.6782
-162.812
-167.353
-184.091
-287.335
-281.159
-277.599
-296.883
-300.233
-293.671
-381.519
-386.966
-392.616
-360.293
-372.972
-362.559
-392.904
-383.141
-370.08
-319.792
-329.777
-318.578
-351.79
-340.876
-330.227
-374.399
-368.769
-374.212
34.9118
36.8843
32.6519
58.7674
55.9472
53.4873
-21.5884
-31.0512
-32.2729
-19.5542
-20.679
-15.3802
-53.0671
-47.2663
-46.9558
10.7582
8.96978
17.4672
-9.56073
-0.104986
5.98
-5.64595
-3.35339
-12.3796
-2.83221
-1.17513
-6.59987
28.024
23.5063
22.0071
-76.9382
-64.3098
-65.117
-73.0935
-72.8088
-79.6014
-29.6997
-37.4352
-36.3241
-86.2473
-93.506
-93.653
-103.334
-102.463
-90.2896
147.904
160.285
152.214
175.83
163.329
152.635
118.525
120.783
116.77
120.579
132.904
155.16
99.9429
105.426
101.69
56.8143
44.4231
49.6996
24.8243
35.659
53.7658
85.1863
74.3513
81.6663
56.948
65.9292
75.4217
100.994
108.716
115.459
87.0967
100.275
92.6581
117.74
103.154
90.8838
41.5878
35.9247
46.8146
11.6002
24.2056
35.4278
13.2785
18.2145
6.49682
216.176
235.904
292.079
160.349
180.199
175.562
162.475
173.455
159.661
140.864
151.052
144.281
158.405
162.456
143.372
275.05
206.155
204.935
427.923
467.601
584.454
321.564
384.936
373.376
331.846
414.824
301.957
307.943
351.639
317.65
403.818
469.247
358.225
599.365
514.796
453.637
-237.801
-243.603
-257.406
-218.124
-230.056
-223.989
-239.988
-234.912
-221.283
-394.94
-407.628
-417.614
-272.538
-269.697
-287.605
-244.061
-257.726
-260.007
-250.166
-253.991
-238.978
-250.264
-263.694
-263.112
-262.198
-262.956
-247.628
-293.65
-275.9
-274.74
-369.168
-363.716
-354.88
25.9861
37.584
29.701
54.7844
45.1438
32.8545
67.8418
56.8637
66.7709
111.621
119.399
136.331
101.048
109.89
103.338
121.104
112.675
103.63
-12.664
25.4423
26.8877
29.5968
27.7909
-19.2742
122.64
76.6413
63.7827
-357.191
-365.672
-356.519
-255.81
-233.229
-249.603
-202.463
-217.041
-239.055
-169.991
-194.516
-182.734
-279.408
-296.649
-313.078
-259.488
-279.029
-262.414
-315.606
-296.011
-276.657
-270.521
-272.753
-288.013
-247.078
-259.52
-256.934
-262.644
-260.974
-246.538
-236.219
-248.127
-243.915
-254.641
-251.235
-237.494
-279.075
-265.012
-268.101
-295.073
-292.759
-285.018
-308.488
-300.792
-302.574
-296.78
-298.843
-304.999
-328.001
-316.737
-317.526
-315.465
-316.293
-327.966
-301.061
-310.353
-309.196
-297.165
-292.447
-294.685
-288.263
-290.383
-295.09
-275.751
-281.571
-279.19
-465.153
-461.188
-469.456
-438.445
-450.357
-455.109
-475.919
-490.222
-492.972
-485.337
-488.081
-475.487
-227.756
-239.798
-244.977
-227.228
-233.445
-220.712
-256.951
-243.671
-236.96
-279.607
-283.827
-274.884
-297.749
-290.203
-286.149
-298.589
-294.654
-304.715
-314.6
-314.071
-302.755
-333.475
-320.605
-320.961
-318.486
-319.668
-331.773
-318.537
-305.198
-302.013
-311.531
-308.514
-322.403
-292.008
-302.844
-305.366
-466.351
-482.198
-478.736
-488.743
-485.846
-471.381
-436.487
-431.108
-422.485
-444.47
-437.16
-442.51
-483.388
-498.538
-500.373
-494.995
-497.25
-483.758
-478.374
-494.711
-492.156
-498.982
-497.387
-482.506
-260.91
-254.091
-250.89
-259.506
-256.072
-263.258
-243.049
-249.265
-252.266
-322.722
-327.248
-320.939
-281.039
-293.29
-299.604
-277.134
-284.511
-273.029
-307.237
-295.844
-287.99
-232.457
-238.525
-227.445
-261.447
-249.87
-243.665
-262.273
-256.452