/*--------------------------------*- C++ -*----------------------------------*\
| =========                 |                                                 |
| \\      /  F ield         | OpenFOAM: The Open Source CFD Toolbox           |
|  \\    /   O peration     | Version:  5.x                                   |
|   \\  /    A nd           | Web:      www.OpenFOAM.org                      |
|    \\/     M anipulation  |                                                 |
\*---------------------------------------------------------------------------*/
FoamFile
{
    version     2.0;
    format      ascii;
    class       surfaceScalarField;
    location    "400";
    object      phi;
}
// * * * * * * * * * * * * * * * * * * * * * * * * * * * * * * * * * * * * * //

dimensions      [0 3 -1 0 0 0 0];

internalField   nonuniform List<scalar> 
13181
(
0.00041026
0.412039
0.000403799
0.412521
0.000362029
0.412534
0.000315189
0.412539
0.000235136
0.412595
-9.40228e-05
0.412822
-0.000298083
0.412703
-0.000328864
0.412532
-0.000276741
0.412447
-7.102e-05
0.412294
0.000311599
0.412119
0.000801095
0.41201
0.00125654
0.412044
0.00153532
0.412223
0.00158703
0.412448
0.00145044
0.412636
0.00119503
0.412757
0.000880688
0.412814
0.000375115
0.412998
-5.94165e-05
0.41295
-0.000620413
0.413053
-0.000847013
0.412719
-0.000889792
0.412558
0.411535
0.000595748
0.411332
0.00163964
0.411478
0.00167267
0.412501
0.00166654
0.412545
0.00141366
0.412848
0.000566406
0.413669
-0.000550781
0.41382
-0.00090668
0.412888
-0.000866713
0.412407
-0.000467296
0.205942
0.205952
0.000305722
0.20567
0.205676
0.00133605
0.205481
0.205499
0.00229797
0.20552
0.205562
0.00288067
0.205794
0.205846
0.00297759
0.20615
0.206201
0.00234808
0.413265
0.00137693
0.413728
0.000409006
0.413782
-0.000611836
0.414019
-0.000964206
0.413302
-0.000984014
0.413073
-0.00102362
0.412759
-2.80946e-05
0.411562
0.411337
-0.000114005
0.411266
5.0956e-05
0.411313
0.00097417
0.411578
0.000917351
0.412602
0.000998154
0.412767
0.0010886
0.413578
-0.00036352
0.415273
-0.00132762
0.413852
-0.000730911
0.41273
-0.000919082
0.205812
-0.000601332
0.205449
-0.000209368
0.000430546
-8.81721e-05
0.205134
0.000434456
-0.000817485
0.205154
0.00118352
-0.00150121
0.205553
0.00174222
-0.00187121
0.206144
0.00187691
0.00180154
0.207443
-0.0014246
-0.00194374
0.207389
0.000112711
0.415417
-0.000437728
0.414332
-0.000360715
0.413942
-0.000411471
0.413353
-0.00046964
0.413131
0.000322361
0.411967
0.00036746
0.411517
0.411433
-0.00035994
0.41138
-0.000456825
0.41141
-0.000437086
0.411558
0.000224633
0.411941
6.94754e-05
0.412922
0.000135698
0.413512
-1.04815e-05
0.415419
-0.000886254
0.414728
-0.00136283
0.207725
-0.00146852
0.206949
0.205611
-0.00121984
-0.205754
0.204863
-0.000708557
-0.205179
0.00102517
0.000223943
0.204025
0.00041297
-0.204662
-0.00114375
0.20393
0.00185465
-0.204641
-0.00238976
0.205345
0.00233769
-0.205293
-0.00157964
0.207497
0.000637677
-0.206555
-2.05705e-05
0.207567
-0.000103224
0.00133749
0.207528
-0.00053272
-2.96049e-05
0.207114
0.0010717
0.414598
0.000720998
0.414293
0.00025528
0.413818
0.000783319
0.412603
0.000758987
0.411991
0.000526408
0.41175
0.4116
-0.000425933
0.411505
-0.000592064
0.411576
-0.000787046
0.411753
-0.000816147
0.41197
-0.00045641
0.412563
-0.000529471
0.413585
0.00105933
0.41383
0.00119078
0.2065
0.000684037
0.207412
0.208964
-4.78218e-05
0.205986
-0.0012526
-0.205667
0.000933915
0.204851
-0.00167938
-0.204607
0.00143541
0.00102519
0.000100836
-0.203178
0.101014
0.101039
-0.00151748
0.00293231
-0.202954
0.100771
0.100769
-0.00339699
0.00179142
-0.206139
0.103597
0.104147
-0.00228673
0.207469
0.00236725
-0.20755
-0.00201252
0.20788
0.00203826
-0.207906
-0.00196475
0.207564
0.00192845
0.00222068
0.415813
-0.00184571
-0.00158999
0.00135353
0.41516
0.00145851
0.413713
0.00122885
0.412833
0.000869731
0.41235
0.000612378
0.412007
0.41179
-0.000460639
0.411625
-0.000632888
0.411748
-0.000862014
0.411982
-0.0011918
0.412299
-0.00133776
0.412709
-0.00135658
0.413604
-0.000869224
0.414567
-0.00122441
0.206889
-0.00125731
0.207216
0.000473735
-0.208688
0.000998636
0.206298
0.0013468
-0.20642
-0.00122529
-0.102878
-0.000204701
0.103135
-5.20978e-05
-0.100492
0.000566892
0.100613
-0.00068804
-0.0997588
-0.000898949
0.099192
0.00146575
-0.103115
-0.00118014
0.10183
0.00246568
-0.00180259
0.00459587
-0.207752
-0.00197348
0.103274
0.103658
-0.0044511
0.208548
0.00383533
-0.207932
-0.00314123
-0.208015
0.208606
0.00255011
0.00285312
0.417405
-0.00232191
-0.00212366
0.00227746
0.415735
0.00178849
0.414202
0.00126044
0.413361
0.000902786
0.412708
0.00063309
0.412277
0.411975
-0.000480616
0.411749
-0.000659248
0.411927
-0.000868997
0.412192
-0.00115998
0.41259
-0.00159233
0.413141
-0.00195953
0.413971
-0.00129747
0.415177
-0.00127179
-0.207254
0.207647
-0.00169019
-0.207245
0.207861
-0.00280527
0.00218885
-0.206768
0.207826
0.0036214
-0.00220423
-0.00247536
-0.102627
0.0022628
0.10268
-0.00231563
-0.0502156
0.000813879
0.0500563
-0.000654607
-0.00045325
-0.0476509
0.0474113
0.000692805
-0.00203713
-0.102613
0.00401727
-0.00141465
0.050435
0.0516121
-0.0046456
-0.103897
0.104431
0.00411224
-0.00619648
-0.209595
0.210874
0.00491737
-0.00387734
-0.209288
0.210133
0.00303278
0.00328786
0.418778
-0.00231422
-0.0023465
0.00243877
0.416585
0.00164508
0.414996
0.00112194
0.413884
0.000774328
0.413055
0.000532959
0.412518
0.41208
-0.000439875
0.41184
-0.000602689
0.412089
-0.000782978
0.412372
-0.0010703
0.412878
-0.00145018
0.413521
-0.00200603
0.414527
-0.00118996
0.415761
-0.00139988
-0.208048
0.208463
-0.00160463
-0.208651
0.209394
-0.00290319
0.00215974
-0.209273
0.210818
0.00395856
-0.00270185
-0.00280135
-0.104255
0.00390407
0.105132
-0.00478196
-0.0510218
0.00440468
0.0516395
-0.00502238
-0.00641823
-0.0520641
0.0526776
0.00580473
-0.00654634
-0.106457
0.107431
0.00557222
-0.00725437
-0.212561
0.214223
0.00559231
-0.00435542
-0.211145
0.212044
0.00345689
0.00309427
0.420831
-0.00243334
-0.0027143
0.00179139
0.417887
0.00118297
0.415604
0.000782504
0.414285
0.000549591
0.413288
0.000423095
0.412645
0.412147
-0.000389243
0.411912
-0.000473519
0.412174
-0.000597471
0.412496
-0.000742406
0.413023
-0.000940602
0.413719
-0.00121203
0.414799
-0.000958607
0.416221
-0.000713548
-0.208509
0.20881
-0.00125926
-0.210266
0.21078
-0.00233928
0.00182538
-0.212265
0.213218
0.0030021
-0.00212385
-0.00183088
-0.107548
0.0030656
0.108133
-0.0036511
-0.0553993
0.00336374
0.0557395
-0.00370398
-0.00550506
-0.0572176
0.0577135
0.00500915
-0.00506184
-0.110176
0.110986
0.00425201
-0.00503754
-0.215788
0.216975
0.00385093
-0.0029443
-0.212846
0.213452
0.00233888
0.00218897
0.421713
-0.00128347
-0.00178718
0.00108129
0.418995
0.000482369
0.416203
0.00031314
0.414454
0.00022274
0.413379
0.000177316
0.41269
0.41209
-0.000296022
0.41194
-0.000362295
0.41224
-0.000396614
0.412531
-0.000446947
0.413073
-0.000428592
0.413701
-0.000380209
0.41475
-0.000252073
0.416085
7.31455e-06
-0.20907
0.209326
-0.00050814
-0.211039
0.211039
-0.000535743
0.000535593
-0.213645
0.213509
0.000464392
-0.000339044
1.09985e-05
-0.109022
0.000412605
0.109004
-0.000395147
-0.056823
0.000249257
0.0568024
-0.000228717
-0.00115655
-0.0596636
0.0597186
0.00110157
-0.00118568
-0.112437
0.112583
0.00104002
-0.00099233
-0.217666
0.21779
0.000867775
-0.000770978
-0.213841
0.213971
0.000640788
0.000588068
0.421589
8.01607e-06
-0.000472045
0.000679285
0.418904
-6.07521e-05
0.416943
-0.000270393
0.414664
-0.000146642
0.413255
-7.05392e-05
0.412614
0.411946
-0.00022139
0.411953
-0.000229816
0.412248
-0.000206485
0.412507
-0.000110524
0.412977
4.11295e-06
0.413586
0.000349068
0.414405
0.000359676
0.415613
0.000462099
-0.209368
0.209322
0.000405735
-0.210802
0.21036
0.00114226
-0.000700331
-0.212873
0.211893
-0.00182225
0.00127087
0.00153101
-0.108128
-0.00194635
0.107629
0.00244498
-0.0554923
-0.00236955
0.0551955
0.00266636
0.00300597
-0.058578
0.0582603
-0.00268829
0.00272116
-0.11195
0.111474
-0.00224506
0.00294969
-0.217379
0.216548
-0.0021186
0.00144364
-0.213798
0.213395
-0.00104091
-0.000998569
0.420643
0.00114275
0.000801631
-0.000339753
0.418245
3.57844e-05
0.416568
-0.000839226
0.415539
-0.000576078
0.412992
-0.000336942
0.412375
0.411724
-0.000135528
0.41194
-7.93369e-05
0.412192
-1.50623e-06
0.41243
0.000150751
0.412825
0.000442597
0.413294
0.00095637
0.413891
0.000720031
0.415052
0.000796467
-0.209038
0.20874
0.00101813
-0.209808
0.209214
0.00204832
-0.00145461
-0.210714
0.209534
-0.00288758
0.00202151
0.00204607
-0.10588
-0.00292312
0.105291
0.00351247
-0.0529225
-0.00311012
0.0526068
0.00342582
0.00484648
-0.055541
0.0551382
-0.00444365
0.00486373
-0.109473
0.108733
-0.00412347
0.00539394
-0.215317
0.213861
-0.00393775
0.0029584
-0.212793
0.212088
-0.00225415
-0.00205519
0.419097
0.00187786
0.00172358
-0.00110289
0.417293
-0.00046649
0.415931
-0.00016128
0.415233
-0.00094907
0.41378
-0.00061521
0.412041
0.411418
-7.17432e-05
0.411916
5.46897e-06
0.412115
0.000105551
0.412329
0.000305952
0.412624
0.000596593
0.413003
0.00110414
0.413384
0.000908032
0.414356
0.000892606
-0.208408
0.208089
0.00122651
-0.208633
0.208128
0.00208604
-0.00158161
-0.208454
0.207592
-0.00273905
0.00186343
0.00173752
-0.103768
-0.0025329
0.10339
0.00291108
-0.0508151
-0.00231443
0.0506575
0.00247206
0.00445745
-0.0523411
0.051985
-0.00410141
0.00482813
-0.106577
0.105958
-0.00420833
0.00562052
-0.212279
0.21098
-0.00432144
0.00336333
-0.211367
0.210674
-0.00267092
-0.0024527
0.417518
0.0020057
0.00202608
-0.00142882
0.416269
-0.000716113
0.415219
-0.00058542
0.415103
-0.00109531
0.41429
-0.000859659
0.411805
0.411056
-1.18023e-05
0.411871
4.37705e-05
0.412059
0.000159942
0.412213
0.000318797
0.412466
0.000562589
0.41276
0.000911467
0.413035
0.00133129
0.413936
0.00121441
0.415095
0.000763585
-0.207837
-0.207905
-0.207744
0.20752
0.00143888
-0.206986
0.207511
0.000852593
-0.00137735
-0.103056
0.000275597
0.104301
-0.00152095
-0.0514055
0.00218267
0.0506427
-0.0014199
-0.0189267
0.000644718
0.0189759
-0.00069388
0.00153328
-0.0506137
0.101843
-0.00323636
0.00130489
-0.0508314
-0.104658
0.00331127
0.104474
-0.00312772
0.00420154
-0.209994
0.209254
-0.00346212
0.00283497
-0.210162
0.209994
-0.00266682
-0.00228188
0.416334
0.00162969
0.00183644
-0.00140374
0.415391
-0.000763205
0.414578
-0.00127594
0.415615
-5.06675e-05
0.413064
-0.000943679
0.412698
0.410775
-2.2153e-05
0.41186
1.92646e-05
0.412018
8.70752e-05
0.412145
0.000178691
0.412374
0.000343471
0.412595
0.000461722
0.412917
8.54459e-06
0.414389
-0.000746987
0.417589
-0.00173788
-0.208063
0.20897
-0.0016536
-0.208164
0.207423
-0.000958952
0.00170021
-0.103028
-0.000229086
0.102921
0.000335683
-0.101799
0.000248938
0.102146
-0.000595856
-0.0429283
0.00173729
0.0886864
-0.00246376
-0.0450317
-0.103209
0.00282173
0.102966
-0.00257858
-0.207789
0.00313353
0.208298
-0.00572242
0.00207975
0.00533853
-0.208858
0.208339
-0.00481963
-0.00596918
0.416001
0.00300094
0.00442755
-0.210702
-0.206758
-0.00474054
0.415105
-0.00381303
0.414463
-0.00296892
0.413734
-0.000499683
0.413146
-4.81883e-05
0.412613
0.000307142
0.412343
0.411883
-3.05064e-05
0.411867
-3.46635e-05
0.412022
-2.45438e-05
0.412135
1.35576e-05
0.412336
2.60214e-05
0.412582
-0.000167282
0.41311
-0.0014146
0.415637
-0.00173465
0.417918
-9.71936e-06
-0.208906
0.207684
-0.000512937
-0.206974
0.207042
1.63266e-05
-8.42444e-05
-0.206461
0.206908
-0.000679909
0.00023347
-0.102895
0.000610596
0.103065
-0.000780484
-0.0902095
0.0011853
0.0908332
-0.00180906
-0.102927
0.00183096
0.206363
-0.00401674
-0.103015
0.00176382
-0.20791
0.00443524
0.207622
-0.00414705
-0.208019
0.00393215
0.207744
-0.00365667
-0.00446369
0.414338
0.00286488
0.00326172
-0.0031516
0.413793
-0.00267434
0.413986
-0.00240132
0.413461
-0.00211283
0.412858
-0.00177863
0.412279
-0.00131729
0.411882
0.411473
-7.62339e-05
0.411917
-8.42603e-05
0.41203
-0.000110942
0.412162
-0.000147089
0.412372
-0.000232607
0.412668
-0.000827467
0.413705
-0.00169055
0.4165
-0.000470918
0.416699
-0.000289038
0.41533
-0.207691
-0.207418
-0.000403277
-0.207224
0.207348
-0.000412841
-0.207277
0.207581
-0.000919907
0.000616083
-0.206764
0.00128836
0.206957
-0.00148149
-0.190588
0.00196489
0.191365
-0.00274171
-0.20678
0.00293092
0.206924
-0.00307558
-0.207382
0.00304848
0.207259
-0.00292568
-0.207557
0.00284995
0.207416
-0.00270889
-0.00437026
0.413802
0.00239599
0.00251017
-0.00363548
0.413058
-0.00287291
0.413223
-0.00208374
0.412672
-0.00137926
0.412153
-0.00107262
0.411972
-0.00096986
0.411779
0.411491
-0.000108733
0.411987
-0.000165148
0.412087
-0.000247857
0.412245
-0.000327563
0.412452
-0.000584402
0.412925
-0.00165916
0.41478
-0.0017216
0.416562
-0.000850003
0.415827
-0.0011995
0.415679
-0.000852826
0.415671
-0.207493
-0.207574
-0.000951221
-0.207841
0.208066
-0.0010778
-0.207018
0.00140889
0.206725
-0.0011157
-0.192049
0.00169361
0.192903
-0.00254803
-0.207074
0.00214039
0.207217
-0.00228341
-0.00434988
0.414383
-0.207237
-0.20721
0.00213156
0.00228279
-0.00415443
0.414355
-0.207306
-0.207245
-0.00378769
0.413435
-0.00345922
0.41273
-0.00279056
0.412555
-0.0022085
0.41209
-0.00171982
0.411665
-0.00131839
0.411571
-0.000761623
0.411222
0.411765
-0.000146084
0.412075
-0.0002478
0.412188
-0.000335478
0.412332
-0.000448123
0.412564
-0.000654522
0.413131
-0.00147647
0.415602
-0.00118446
0.41627
-0.000895494
0.415538
-0.00131547
0.416099
-0.00183662
0.416192
-0.00224116
0.416921
-0.208338
-0.208178
-0.00294026
0.403989
-0.205289
-0.198001
-0.00367641
0.399234
-0.194766
-0.203732
-0.00373171
0.415109
-0.207427
-0.207627
-0.00369225
0.414343
-0.00357852
0.414241
-0.00331487
0.413172
-0.00305175
0.412467
-0.00256884
0.412072
-0.00215317
0.411674
-0.00185091
0.411362
-0.00137549
0.411095
-0.00097609
0.410823
0.411851
-0.000185117
0.412178
-0.000282864
0.412286
-0.0004142
0.412464
-0.000550192
0.4127
-0.00075957
0.413341
-0.00124141
0.416084
-0.00109692
0.416126
-0.00103385
0.415475
-0.00134593
0.416411
-0.00175648
0.416603
-0.00205666
0.417221
-0.00249109
0.404423
-0.00294946
0.399692
-0.0030937
0.415253
-0.00317538
0.414425
-0.00310854
0.414174
-0.00292854
0.412992
-0.00271196
0.41225
-0.00236307
0.411723
-0.00202713
0.411338
-0.0017231
0.411058
-0.00136913
0.410741
-0.00103718
0.410491
0.411885
-0.000223852
0.412293
-0.000358405
0.412421
-0.000504939
0.41261
-0.000656438
0.412852
-0.000812902
0.413497
-0.00101078
0.416281
-0.00104289
0.416158
-0.00110366
0.415536
-0.00136229
0.41667
-0.00170149
0.416942
-0.00190847
0.417428
-0.0022073
0.404722
-0.00253304
0.400018
-0.00264717
0.415367
-0.00276163
0.414539
-0.00271889
0.414131
-0.00259319
0.412866
-0.00243742
0.412094
-0.00217937
0.411465
-0.00190684
0.411066
-0.00163637
0.410788
-0.00133046
0.410435
-0.00104053
0.410201
0.411908
-0.000261189
0.412417
-0.000405876
0.412565
-0.000539807
0.412744
-0.000700664
0.413013
-0.000864085
0.41366
-0.000951414
0.416369
-0.00106783
0.416274
-0.0012789
0.415747
-0.00135432
0.416745
-0.00163397
0.417222
-0.00179767
0.417592
-0.0019846
0.404909
-0.00220587
0.400239
-0.00231886
0.41548
-0.00242015
0.414641
-0.00239576
0.414107
-0.00231212
0.412782
-0.00220464
0.411987
-0.00197627
0.411237
-0.00179856
0.410888
-0.00152973
0.410519
-0.00128777
0.410193
-0.00105784
0.409971
0.411897
-0.000319245
0.41257
-0.000425286
0.412671
-0.000587523
0.412906
-0.000730409
0.413156
-0.000895212
0.413825
-0.000980288
0.416454
-0.00109535
0.416389
-0.001287
0.415939
-0.0013259
0.416784
-0.0015571
0.417453
-0.0016878
0.417723
-0.00180081
0.405022
-0.00194913
0.400387
-0.00205155
0.415582
-0.0021413
0.41473
-0.00212633
0.414092
-0.00206781
0.412724
-0.00196529
0.411884
-0.00182125
0.411092
-0.00166041
0.410727
-0.00142928
0.410288
-0.00122244
0.409986
-0.00100304
0.409752
0.411914
-0.000330264
0.412703
-0.000484886
0.412826
-0.000626817
0.413048
-0.000770931
0.4133
-0.000933286
0.413988
-0.000990656
0.416511
-0.00110307
0.416502
-0.00127487
0.416111
-0.00139935
0.416909
-0.0014848
0.417538
-0.00158445
0.417822
-0.00164637
0.405084
-0.00174273
0.400484
-0.00183392
0.415673
-0.00191106
0.414807
-0.00190239
0.414083
-0.0018597
0.412681
-0.00178225
0.411807
-0.00164554
0.410956
-0.0015149
0.410597
-0.00135938
0.410132
-0.0011814
0.409808
-0.00101265
0.409583
0.411888
-0.000362174
0.412837
-0.000495184
0.412959
-0.000659351
0.413213
-0.000802183
0.413443
-0.000937103
0.414123
-0.000987634
0.416562
-0.00109973
0.416614
-0.00125234
0.416263
-0.00140441
0.417061
-0.00141078
0.417545
-0.00148978
0.417901
-0.00150518
0.405099
-0.00157475
0.400553
-0.00164086
0.41574
-0.00171617
0.414883
-0.00171195
0.414079
-0.00168521
0.412654
-0.00162825
0.41175
-0.00153621
0.410864
-0.00142905
0.410489
-0.00125361
0.409957
-0.00109935
0.409654
-0.000954107
0.409438
0.411884
-0.000392728
0.41297
-0.000524693
0.413091
-0.000663871
0.413352
-0.000803661
0.413582
-0.000955004
0.414274
-0.00099792
0.416605
-0.00108544
0.416701
-0.00122247
0.4164
-0.00135688
0.417195
-0.00160284
0.417791
-0.00159507
0.417894
-0.00155616
0.40506
-0.00155342
0.400551
-0.00160922
0.415795
-0.00165504
0.414929
-0.00165124
0.414075
-0.00164062
0.412644
-0.00161041
0.41172
-0.00158005
0.410833
-0.00137908
0.410288
-0.00122384
0.409802
-0.00106621
0.409497
-0.000918051
0.409289
0.411874
-0.000422286
0.4131
-0.000551622
0.41322
-0.000664403
0.413465
-0.000822581
0.41374
-0.000944276
0.414396
-0.0010019
0.416662
-0.00106832
0.416768
-0.0011911
0.416523
-0.00142233
0.417426
-0.00162997
0.417998
-0.00167735
0.417941
-0.00165719
0.40504
-0.00167776
0.400571
-0.00174312
0.415861
-0.00178838
0.414974
-0.0017842
0.414071
-0.00176636
0.412626
-0.0017038
0.411657
-0.00164122
0.410771
-0.00156461
0.410212
-0.00144671
0.409684
-0.00134826
0.409398
-0.00121562
0.409157
0.411521
-0.000451052
0.413226
-0.000576615
0.413346
-0.000707126
0.413595
-0.000815136
0.413849
-0.000929546
0.41451
-0.000979352
0.416712
-0.00105078
0.416839
-0.00126961
0.416742
-0.00146684
0.417624
-0.00157735
0.418109
-0.00160713
0.417971
-0.0015737
0.405007
-0.00157814
0.400576
-0.00163026
0.415913
-0.0016699
0.415013
-0.0016678
0.414069
-0.00165261
0.412611
-0.00161601
0.41162
-0.00154049
0.410695
-0.00147377
0.410145
-0.00139015
0.4096
-0.00128059
0.409289
-0.00118222
0.409058
0.411156
-0.000479246
0.413347
-0.00057752
0.413444
-0.000702407
0.41372
-0.000805131
0.413951
-0.000934776
0.41464
-0.000977242
0.416755
-0.00113844
0.417
-0.00134869
0.416952
-0.00143525
0.41771
-0.00152651
0.4182
-0.00155043
0.417995
-0.00150281
0.404959
-0.00149292
0.400566
-0.0015404
0.41596
-0.00157374
0.415047
-0.00157105
0.414066
-0.00155718
0.412597
-0.00152242
0.411586
-0.00147594
0.410649
-0.00139399
0.410063
-0.00129718
0.409503
-0.00124033
0.409232
-0.0011287
0.408947
0.410798
-0.000484251
0.41344
-0.000622447
0.413582
-0.000718571
0.413816
-0.000838543
0.414071
-0.000915894
0.414717
-0.00108733
0.416926
-0.00126015
0.417173
-0.00133
0.417022
-0.00140708
0.417787
-0.00148673
0.41828
-0.00149772
0.418006
-0.00144331
0.404905
-0.00142
0.400543
-0.00146164
0.416002
-0.00149452
0.41508
-0.00148864
0.41406
-0.00147767
0.412586
-0.00144323
0.411551
-0.0014017
0.410607
-0.00132463
0.409986
-0.00125681
0.409436
-0.00116076
0.409136
-0.00107778
0.408864
0.410445
-0.000533673
0.413548
-0.000620973
0.41367
-0.000710695
0.413906
-0.000825504
0.414186
-0.00105469
0.414946
-0.00133321
0.417205
-0.00124926
0.417089
-0.00131133
0.417084
-0.00137819
0.417854
-0.00145098
0.418352
-0.00145748
0.418012
-0.00139414
0.404841
-0.00136441
0.400513
-0.00140136
0.416039
-0.00142566
0.415104
-0.0014232
0.414058
-0.00141258
0.412575
-0.0013772
0.411516
-0.0013168
0.410547
-0.00128735
0.409957
-0.00120196
0.40935
-0.00113143
0.409065
-0.00105248
0.408785
0.410072
-0.000536624
0.413626
-0.000640875
0.413774
-0.000746451
0.414011
-0.000811405
0.414251
-0.00148717
0.415622
-0.00130777
0.417025
-0.00124186
0.417023
-0.00129794
0.41714
-0.00135791
0.417914
-0.00142137
0.418416
-0.00142246
0.418013
-0.00135446
0.404773
-0.0013161
0.400474
-0.00135128
0.416074
-0.0013749
0.415128
-0.00136854
0.414052
-0.00135817
0.412565
-0.00132307
0.411481
-0.00128767
0.410511
-0.00121482
0.409884
-0.00117747
0.409313
-0.00108565
0.408973
-0.00100888
0.408708
0.409698
-0.000582675
0.413717
-0.000636481
0.413828
-0.000735108
0.41411
-0.00120436
0.41472
-0.0015111
0.415929
-0.00132863
0.416843
-0.00123323
0.416928
-0.00128548
0.417192
-0.001339
0.417968
-0.00139785
0.418475
-0.00139213
0.418008
-0.0013237
0.404705
-0.00128329
0.400434
-0.00131261
0.416103
-0.00133427
0.415149
-0.00132804
0.414045
-0.00131842
0.412555
-0.00127994
0.411442
-0.00124712
0.410479
-0.00119614
0.409833
-0.00111679
0.409233
-0.00104641
0.408903
-0.000948227
0.40861
0.409344
-0.000580264
0.413776
-0.000675193
0.413923
-0.000743912
0.414179
-0.00132493
0.415301
-0.00146601
0.41607
-0.0013054
0.416682
-0.00122774
0.41685
-0.00127646
0.417241
-0.00132326
0.418014
-0.0013795
0.418531
-0.00137226
0.418
-0.0013017
0.404634
-0.00125935
0.400392
-0.00128447
0.416129
-0.00130553
0.41517
-0.00129583
0.414036
-0.00128816
0.412548
-0.00124683
0.411401
-0.00121728
0.410449
-0.0011639
0.409779
-0.00110972
0.409179
-0.00101417
0.408807
-0.000938526
0.408534
0.408961
-0.000594155
0.413825
-0.000665805
0.413994
-0.000725414
0.414238
-0.00117375
0.41575
-0.0013955
0.416291
-0.00133052
0.416617
-0.00121964
0.416739
-0.00127524
0.417297
-0.00131244
0.418052
-0.00136864
0.418587
-0.00135638
0.417988
-0.00128853
0.404566
-0.00124592
0.400349
-0.0012679
0.416151
-0.0012919
0.415194
-0.00127281
0.414017
-0.00127361
0.412548
-0.00124538
0.411373
-0.00120013
0.410404
-0.0011405
0.40972
-0.00106938
0.409108
-0.00101238
0.40875
-0.000916454
0.408438
0.408571
-0.000625847
-0.000698225
-0.00072664
-0.000953195
-0.00107467
-0.00133399
-0.00121474
-0.00127356
-0.00129683
-0.00135419
-0.00133849
-0.00128483
-0.00124905
-0.00125779
-0.00128209
-0.00125764
-0.00126488
-0.00120659
-0.0011909
-0.0011243
-0.00108116
-0.000973081
-0.000924016
0.00371476
-0.00410189
-0.0550122
0.0574935
0.00590979
-0.0568714
-0.0032153
-0.00331658
-0.051605
-0.0070995
0.0522863
0.000659483
-0.000679355
-0.0568031
0.0601775
0.00175526
-0.0600524
-0.000879086
-0.00100123
0.0580417
-0.00298152
-0.00307184
-0.00213453
0.00241666
-0.0557745
0.0588954
-0.00260041
-0.0592431
0.0015175
0.00143066
0.0602403
-0.000548326
-0.00067104
-0.00311625
0.00343573
-0.053242
0.0555239
-0.0047705
-0.0559704
0.00521708
0.0585232
0.00172738
0.00165079
-0.00246257
0.00266423
-0.0510168
0.0520398
-0.00461786
-0.052446
0.00502401
0.00531937
0.055051
0.00230893
-0.00304859
-0.0506658
-0.000733811
0.0208978
0.000489461
-0.0104317
-0.0102218
-0.000880633
-0.00899474
-0.00978517
0.0502528
-0.00235602
-0.0501845
0.00228769
0.00479018
0.0517071
0.00417855
-0.00465704
-0.0505433
-0.0474061
8.50401e-05
0.0468678
0.00593017
-0.0510288
-0.00650646
-0.0500358
-0.00229038
0.0502891
0.00356179
-0.00429964
-0.10681
0.0551521
-0.0548067
0.00336938
-0.0514989
0.00392557
0.051978
0.0138415
0.00554253
-0.0273271
0.0138974
-0.0029439
-0.00301034
0.00495513
-0.0240967
-0.00537773
0.0245193
0.00535596
-0.0566638
0.110818
0.0057684
-0.109721
-0.00686619
-0.106181
-0.00770302
0.107338
0.00112201
-0.00125774
-0.108886
0.0564914
-0.0564693
0.000637327
0.00304858
0.0554672
0.0564665
0.00226067
-0.00245535
-0.0562718
0.0289258
-0.000779158
-0.0288681
0.00144952
-0.000728064
-0.0284465
-0.00248499
0.0023902
0.0285412
0.0147859
0.000480586
-0.0151664
-0.000100054
-0.0148185
0.0023216
-0.00254875
0.0150457
0.0016413
-0.0595497
0.113484
0.00226311
-0.113139
-0.00260814
-0.00603657
0.111793
-0.00146065
0.00188039
-0.108548
0.055354
-0.0556059
-0.00188263
0.000254258
0.0564864
0.0564676
-0.000911842
0.00106181
-0.0566176
0.0294315
0.00061596
-0.0295166
-0.00088918
0.00035829
-0.0295007
-0.000123744
0.000149485
0.029485
-9.9683e-06
0.0138382
2.54302e-05
-0.0138155
-4.81134e-05
-0.0138636
5.60238e-05
0.0138815
-7.38496e-05
-0.00230736
-0.0588711
0.112746
-0.00183709
-0.11322
0.00231103
-0.00131525
0.113613
-0.00283267
0.00343187
-0.10648
0.0530046
-0.0533009
-0.00281987
-0.00210347
0.0550879
0.0542295
-0.00287494
0.00320676
-0.0545613
0.0022597
0.0272631
-0.0273824
-0.00214037
-0.0282533
0.000980679
-0.00181543
0.0280845
0.00100352
0.0152344
-0.0019192
-0.0156086
0.00229339
-0.0144822
-0.000397605
6.04649e-05
0.0148194
-0.00433263
-0.0559789
0.109693
-0.00446806
-0.110578
0.00535279
0.00332848
0.112139
0.0263362
-0.00350972
-0.0264658
0.0018345
0.00180484
-0.0138039
-0.00173958
0.00177833
0.0137652
-0.0042477
-0.0527112
0.106252
-0.00500606
-0.107053
0.00580739
0.00574835
0.108809
0.0241599
-0.00247035
-0.024255
0.00256544
-0.0251602
-0.00316344
0.00330526
0.0250184
2.29699e-05
-0.000428113
-0.101394
-0.000917671
0.0451236
-0.0447374
0.000531528
0.000500291
0.0210422
-0.00150355
-0.0423424
-0.00306195
0.102806
-0.103201
0.00345779
0.00132183
0.0504642
-0.00255373
-0.0284014
0.00250866
-0.00369242
-0.0271848
0.00345785
0.0274193
-0.0535243
0.004492
0.0540631
-0.00503083
-0.0272596
0.0275316
-0.00200117
-0.00196329
0.0285132
-0.0285937
-0.0012506
-0.00122261
0.00373831
-0.0244985
0.0248329
-0.00407268
0.00380586
-0.00404871
-0.0270167
0.00206361
-0.0149122
-0.00196992
0.00276367
-0.00284481
0.0139226
-0.0547253
0.00677507
-0.00753153
0.0554817
-0.0275824
-0.00273056
0.0279269
0.00514973
0.0148782
0.0020644
-0.014879
-6.98075e-05
-0.029521
0.000287809
-0.000197784
-0.000791585
0.00139364
0.0291588
-0.000835064
0.00186255
0.0566239
-0.00201991
-0.0144002
0.0145198
-0.000911231
0.0150467
-9.20607e-05
-0.0150245
0.0143352
0.0143444
-0.00126934
-0.00138212
-0.000796694
-0.0143826
-1.84365e-05
-0.0139407
9.5519e-05
0.000768418
-0.000302001
0.0143195
-0.059303
0.00348851
0.059614
-0.00184375
-0.00195579
-0.0149225
0.0146362
0.00105467
0.0152201
0.000105409
-0.0153439
0.015049
0.0021508
0.000816893
-0.0152588
0.00403819
-0.0589451
-0.00214247
-0.00225356
0.000991062
-0.028414
-0.00173361
0.000903223
0.000581072
-0.00110191
0.0291404
0.000811981
-0.00125339
0.0562623
0.00145868
-0.0152235
0.0150367
0.00076783
0.0142664
0.00107058
-0.0143459
0.0149952
-7.22848e-05
0.000591377
-0.0151989
-0.000687341
-0.0140774
0.000282452
-6.90276e-06
0.0138495
-4.40383e-06
-0.060019
-0.00115526
0.0598126
0.000733814
0.000627831
-0.0152048
0.0152825
-8.45576e-05
0.0146558
-0.000937432
-0.0144058
0.015157
0.000119088
-6.18399e-05
-0.0151175
-0.000608446
-0.0601606
0.000430573
0.000319451
-0.0272487
-0.00227247
0.0271738
0.00113917
0.00120819
0.0262651
-0.00231783
0.002418
-0.0263653
0.0141447
0.0011024
-0.0273378
0.00117927
0.0011696
-0.001803
-0.0138901
0.00188915
-0.00209413
0.00265012
0.0146784
-0.0572916
-0.00422676
0.0568537
0.00234692
0.00231769
-0.0150336
0.0147081
-0.00176862
0.0276422
0.00178021
-0.00334497
-0.0278805
0.0149517
-0.000693499
-0.00168929
-0.0152635
-0.00398617
-0.0577178
0.00223202
0.00218034
-0.0254062
-0.0020344
0.0253179
0.00212274
0.0248076
-0.00167566
0.00174097
-0.0248729
-0.00231007
0.026198
0.00237724
-0.00208058
0.00218311
-0.0255087
-0.00320417
-0.0253198
0.00336377
-0.00350101
0.0261729
0.00184788
0.00181646
0.00172281
0.0275173
-0.0033375
0.0265069
-0.00336218
-0.0266545
0.0537278
-0.00500442
-0.0541543
0.00543087
-0.0243556
-0.000988951
0.0243143
0.00103024
0.0245344
7.21705e-05
-4.78713e-05
-0.0245587
-0.00160072
0.0247343
0.00167399
-0.00110611
0.00113403
-0.0243835
0.0242085
-0.000698198
-0.0245472
0.00103685
-0.00235144
0.00245334
0.024058
0.00459008
-0.00519116
-0.0529232
-0.0269403
0.00356145
-0.0248423
0.00348775
0.0250929
0.0128674
0.00382734
-0.0168834
0.000188625
0.0034736
-0.0111585
-0.00369638
0.0113813
-0.00270688
0.00315699
-0.104218
0.0510463
-0.0512322
-0.00227668
-0.00281714
0.0527116
0.0517393
-0.00295
0.00321985
-0.0520091
0.0254977
-0.0255895
-0.00198885
-0.0263244
-0.00221347
0.0262278
0.0118138
-0.0018268
-0.0119858
0.00199882
-0.0122233
-0.00199133
0.00215222
0.0120624
-0.00235134
-0.0506184
-0.00378577
0.104009
-0.104399
0.00417517
0.00555631
0.105524
-0.011384
0.00275046
0.0117062
-0.00307265
0.0133654
0.00302777
-0.00302521
-0.013368
-0.0245451
0.0248863
0.00461385
0.00522187
-0.0272618
0.00682914
-0.0538975
-0.00765692
-0.0264387
-0.00220351
-0.00216519
0.0271558
-0.00298303
0.0538991
0.00331346
-0.0117878
-0.000199504
0.0120369
-4.96697e-05
0.0126879
-0.000665847
0.000211281
-0.0122333
-0.0122335
-0.00113445
0.0121432
0.00122475
0.0123167
-0.00112549
0.00120474
-0.012396
-0.000481505
0.0130698
9.95878e-05
-0.00140185
0.0125125
0.00120582
-0.0123165
-0.00184393
-0.012071
0.00169162
-0.00246187
-0.0114154
0.00216499
0.0117123
-0.00494173
0.00538714
0.0532824
0.0263567
-0.00335071
0.0253746
-0.00305807
-0.0255207
-0.00104815
0.0121324
0.00123245
0.0119644
-0.000856339
0.000872487
-0.0119806
0.0252364
-0.00302529
0.0244255
-0.00239738
-0.0244985
0.0507599
-0.00369089
-0.0510536
0.00398456
9.73276e-05
-0.023856
0.000346641
0.023412
0.00208016
-0.0488178
0.0243362
0.0237221
-0.000793705
-0.000527014
0.00344061
-0.00372858
-0.0242105
0.00456112
-0.0237567
-0.00490116
0.00347436
-0.0476126
-0.00154148
-0.00213766
0.0234775
0.0243398
-0.0245692
0.0242093
0.000457245
0.00350878
0.00932226
3.63805e-05
-0.0259601
0.00569481
0.0264418
-0.00307316
-0.00310329
-0.0133879
0.01295
0.0039467
-0.011334
0.0114995
0.00330815
0.00401743
-0.013578
0.00562549
-0.0255012
-0.00608443
-0.0151094
0.00286012
-0.00387179
0.0161211
0.00248968
-0.0147429
-0.00285624
-0.0137704
-3.37592e-05
0.0137106
9.35761e-05
-2.00312e-05
-0.0137863
3.59223e-05
-0.0144948
-0.00220153
0.0026311
0.0140652
-0.00257035
-0.0155147
0.0035903
-0.0135019
-0.00346556
0.0268834
-0.0135391
0.00185968
0.00176348
0.0134972
-0.00134658
-0.0120949
-5.56803e-05
-0.00176035
-0.0135534
0.00181179
0.011307
-0.00145303
-0.0112978
0.00144384
-0.00177945
0.0019088
0.0116845
-0.0122004
0.0121039
-0.00189476
0.011817
-0.00172896
-0.0119148
0.0246015
-0.00288123
-0.0247375
0.00301718
0.00125278
-0.0127796
0.0115359
-9.0471e-06
0.0281147
0.00327003
-0.0279323
-0.00173107
-0.00172138
0.0115245
-0.0123834
0.000919183
-6.02629e-05
-0.0139929
0.0020317
0.013214
0.00253817
0.00898544
9.0371e-07
0.00316924
0.0284154
-0.00176772
-0.0017022
-0.00166628
-0.0144291
0.00210252
-0.00317303