/*--------------------------------*- C++ -*----------------------------------*\
| =========                 |                                                 |
| \\      /  F ield         | OpenFOAM: The Open Source CFD Toolbox           |
|  \\    /   O peration     | Version:  5.x                                   |
|   \\  /    A nd           | Web:      www.OpenFOAM.org                      |
|    \\/     M anipulation  |                                                 |
\*---------------------------------------------------------------------------*/
FoamFile
{
    version     2.0;
    format      ascii;
    class       volVectorField;
    location    "400";
    object      U;
}
// * * * * * * * * * * * * * * * * * * * * * * * * * * * * * * * * * * * * * //

dimensions      [0 1 -1 0 0 0 0];

internalField   nonuniform List<vector> 
6584
(
(45.0027 -0.00726296 1.72168e-25)
(45.002 -0.0160073 8.37144e-24)
(45.0026 -0.02186 7.72475e-29)
(45.0027 -0.0299503 -1.51885e-23)
(45.0031 -0.0386051 0)
(45.0032 -0.0482265 0)
(45.0028 -0.0578785 0)
(45.0011 -0.0643255 1.61748e-23)
(44.9983 -0.0649451 1.64664e-23)
(44.9934 -0.0529835 0)
(44.9883 -0.0198074 6.48907e-24)
(44.9847 0.0325253 -8.30087e-24)
(44.9856 0.0913289 -4.56275e-25)
(44.9909 0.137138 1.15043e-24)
(44.9972 0.157809 3.53851e-25)
(45.0038 0.153685 3.84319e-23)
(45.0069 0.135418 3.42824e-23)
(45.0079 0.112192 2.77831e-24)
(45.0074 0.0885885 2.38518e-23)
(45.0065 0.067628 1.71592e-23)
(45.0053 0.0504742 0)
(45.0046 0.0356308 0)
(45.0034 0.0252973 2.56673e-23)
(45.0043 0.0112378 1.57327e-23)
(45.0113 -0.0152389 -8.16e-24)
(45.0098 -0.0321955 -3.17453e-23)
(45.012 -0.0430958 -4.28569e-23)
(45.0131 -0.0594152 0)
(45.0151 -0.0768686 -6.03613e-24)
(45.0156 -0.0968195 -4.91056e-23)
(45.0141 -0.117853 -3.02816e-23)
(45.0056 -0.133073 5.15615e-23)
(44.9936 -0.137217 -2.40366e-24)
(44.961 -0.115412 -1.1684e-23)
(44.9218 -0.047937 -3.77408e-27)
(44.8961 0.0623392 0)
(44.9021 0.18812 2.20338e-23)
(44.9391 0.28469 1.30603e-23)
(44.9881 0.327373 -8.57004e-23)
(45.021 0.316409 -2.27318e-23)
(45.0344 0.274827 -5.27439e-23)
(45.0388 0.225015 -6.87176e-23)
(45.0361 0.175778 -1.76535e-22)
(45.031 0.133164 -1.45194e-22)
(45.0252 0.0991234 -1.00929e-23)
(45.0213 0.0695427 -4.2403e-24)
(45.0166 0.0503863 0)
(45.0178 0.0233422 1.3743e-23)
(45.0249 -0.0233221 -2.05739e-23)
(45.024 -0.0474932 0)
(45.0289 -0.0625508 -8.5603e-24)
(45.0326 -0.0870519 -5.57273e-23)
(45.038 -0.113736 -8.59109e-23)
(45.0406 -0.145867 0)
(45.038 -0.183241 0)
(45.0197 -0.212583 -1.41538e-23)
(44.9841 -0.244921 -4.73526e-24)
(44.9279 -0.169452 4.20631e-24)
(44.8624 -0.0873582 -7.54206e-24)
(44.8111 0.0568864 -1.08009e-23)
(44.8165 0.234034 0)
(44.883 0.374346 0)
(44.9689 0.439264 1.4525e-24)
(45.054 0.50931 -9.58322e-23)
(45.0907 0.423151 0)
(45.0997 0.338034 -3.08698e-23)
(45.091 0.258305 0)
(45.0767 0.192564 -2.31403e-23)
(45.0619 0.142208 -6.21918e-23)
(45.051 0.0987735 -3.7076e-23)
(45.0403 0.0727404 0)
(45.0389 0.0349835 1.0682e-23)
(45.0414 -0.0307442 -1.25497e-23)
(45.0428 -0.0605836 0)
(45.0516 -0.0788475 -1.14709e-23)
(45.0601 -0.110959 0)
(45.0715 -0.146857 0)
(45.0804 -0.193458 0)
(45.0807 -0.253197 -3.01568e-23)
(45.0572 -0.312524 1.63243e-22)
(44.9907 -0.389323 -1.02674e-23)
(44.8826 -0.31342 1.26571e-23)
(44.7404 -0.219874 -7.83988e-24)
(44.5956 0.0105762 1.88488e-24)
(44.581 0.349388 2.06412e-24)
(44.7383 0.61672 0)
(44.938 0.69835 -1.42215e-22)
(45.0808 0.639298 0)
(45.1989 0.58008 0)
(45.197 0.449366 2.23586e-22)
(45.1735 0.331156 1.46021e-22)
(45.1411 0.241039 -4.87004e-23)
(45.112 0.175804 -3.38081e-23)
(45.0899 0.120549 0)
(45.0711 0.0897617 1.55514e-23)
(45.0639 0.0446421 1.264e-23)
(45.0598 -0.0367435 -4.81711e-24)
(45.0649 -0.0701372 -2.98274e-25)
(45.0789 -0.0902133 -1.41225e-24)
(45.095 -0.128521 -2.18945e-24)
(45.1161 -0.172097 2.62028e-24)
(45.1396 -0.233793 1.20799e-22)
(45.1522 -0.32045 -2.24857e-22)
(45.1481 -0.417923 1.96251e-22)
(45.0145 -0.462182 1.13533e-23)
(44.8753 -0.522934 5.93839e-23)
(44.5984 -0.472488 -8.32639e-24)
(44.2082 -0.135201 1.13951e-23)
(44.1208 0.520728 -1.11887e-24)
(44.5198 1.01546 2.01152e-22)
(44.9556 1.07772 0)
(45.2035 0.910378 1.39706e-22)
(45.2833 0.686162 -3.11159e-23)
(45.3347 0.522966 -1.80489e-22)
(45.284 0.382959 -1.02077e-22)
(45.2222 0.270081 4.10004e-23)
(45.1732 0.195094 -2.39063e-24)
(45.1352 0.131566 -1.35638e-24)
(45.1061 0.0989781 1.76903e-23)
(45.0902 0.0509055 -6.66738e-24)
(45.0785 -0.040591 2.36447e-24)
(45.0889 -0.0748522 -6.32785e-24)
(45.1089 -0.0946301 -2.63645e-25)
(45.1353 -0.136247 0)
(45.1698 -0.182522 -2.70439e-23)
(45.2165 -0.256259 -1.69203e-23)
(45.2536 -0.347676 -8.90331e-23)
(45.2171 -0.454972 -1.84755e-23)
(45.1441 -0.616009 7.31424e-23)
(44.9967 -0.834565 3.33554e-22)
(44.4779 -0.865583 7.32255e-23)
(43.7316 -0.546068 1.17128e-26)
(43.3611 0.649618 -2.9928e-24)
(44.2258 1.58556 3.13072e-23)
(45.1372 1.65073 -3.16465e-22)
(45.4723 1.22377 0)
(45.514 0.861552 1.83854e-26)
(45.5145 0.560923 3.52076e-23)
(45.4171 0.402435 8.85518e-24)
(45.3156 0.272442 4.62966e-23)
(45.241 0.195118 -1.70595e-23)
(45.1831 0.128769 0)
(45.1421 0.0982036 -9.07589e-24)
(45.1152 0.0524786 -1.26412e-23)
(45.096 -0.0417309 1.61108e-26)
(45.1124 -0.0738517 -3.04951e-24)
(45.1387 -0.0907006 3.74465e-24)
(45.1767 -0.131601 9.53736e-25)
(45.2269 -0.173431 1.22899e-24)
(45.3015 -0.251734 -3.99115e-23)
(45.3763 -0.337641 -5.58277e-23)
(45.3711 -0.485962 -9.54094e-25)
(45.4014 -0.732729 -1.055e-23)
(45.3557 -1.1413 5.38763e-23)
(44.7631 -1.60117 0)
(43.1353 -1.78221 4.87316e-23)
(41.1001 0.879702 1.92307e-24)
(44.0845 3.25157 1.4178e-22)
(45.5465 2.30582 -1.40629e-24)
(45.9718 1.47371 0)
(45.8535 0.938917 9.59354e-23)
(45.7275 0.525892 1.92012e-23)
(45.562 0.372436 1.598e-23)
(45.4126 0.24024 -4.20152e-24)
(45.3082 0.171629 -3.68355e-23)
(45.2281 0.109987 0)
(45.1749 0.0859516 -8.27528e-24)
(45.1356 0.048385 -7.69778e-24)
(45.1106 -0.0399515 -2.76491e-24)
(45.1329 -0.067057 2.46039e-24)
(45.1647 -0.0782998 1.22277e-24)
(45.2136 -0.113789 5.82581e-25)
(45.2787 -0.142986 -1.96228e-24)
(45.3799 -0.212226 1.95994e-23)
(45.4984 -0.27027 6.53644e-27)
(45.5582 -0.432649 -1.0999e-23)
(45.7404 -0.694222 8.40978e-27)
(45.9808 -1.17985 -1.29416e-22)
(45.8747 -2.13748 -7.54987e-24)
(45.0257 -4.51964 2.85054e-24)
(45.92 5.77938 2.55407e-23)
(46.838 2.80924 -2.45863e-23)
(46.6979 1.45144 5.24001e-23)
(46.2724 0.842042 -1.04142e-23)
(45.9375 0.393278 3.40512e-23)
(45.6955 0.281716 3.4773e-23)
(45.4984 0.169494 2.43353e-23)
(45.365 0.123028 -1.11933e-23)
(45.264 0.0749107 0)
(45.1998 0.0620118 0)
(45.1482 0.038247 -1.07928e-28)
(45.121 -0.0355184 -4.80313e-25)
(45.1481 -0.0554361 -4.94243e-26)
(45.1832 -0.0590818 -2.48705e-25)
(45.2397 -0.0849725 2.08615e-24)
(45.3148 -0.0948677 3.07618e-24)
(45.4327 -0.141139 1.27478e-23)
(45.5835 -0.151737 3.50203e-23)
(45.7193 -0.282825 0)
(46.0391 -0.445272 0)
(46.5804 -0.737848 0)
(47.2723 -1.51169 -4.19707e-24)
(48.8287 -3.31313 6.67478e-25)
(50.53 4.90424 0)
(48.5191 2.08802 0)
(47.3911 0.961444 0)
(46.6475 0.521297 1.05706e-23)
(46.0893 0.16973 0)
(45.7865 0.134245 -3.74397e-23)
(45.5556 0.0653105 -2.44886e-23)
(45.4009 0.0526397 -2.24537e-24)
(45.2842 0.0261195 0)
(45.2126 0.0279331 3.9742e-25)
(45.1505 0.0224908 3.13212e-25)
(45.1264 -0.0291804 8.2297e-26)
(45.1565 -0.0409759 -1.27908e-25)
(45.1921 -0.0364854 1.34564e-25)
(45.2507 -0.0506834 6.73107e-25)
(45.3278 -0.0393094 -1.57423e-24)
(45.4459 -0.0554059 -9.92913e-26)
(45.6034 -0.0154931 -4.3406e-24)
(45.7885 -0.0764004 -1.50385e-25)
(46.1482 -0.0693472 0)
(46.7689 -0.0206716 -1.17263e-23)
(47.8042 -0.106062 1.82309e-29)
(49.962 -0.200748 -1.61044e-24)
(52.5782 1.00066 -4.16435e-24)
(49.4072 0.375938 -1.48594e-23)
(47.697 0.124694 -1.13397e-22)
(46.8288 0.0412113 0)
(46.1356 -0.0977415 -7.39067e-23)
(45.8096 -0.0459198 0)
(45.5707 -0.0569644 -4.64558e-25)
(45.4077 -0.030719 0)
(45.2842 -0.03077 3.10426e-26)
(45.21 -0.0129288 -8.80748e-26)
(45.1408 0.00241327 -1.58258e-24)
(45.1273 -0.0220123 0)
(45.1579 -0.0262143 -6.08011e-25)
(45.1911 -0.0147771 -5.17824e-25)
(45.2464 -0.0180517 -9.16689e-25)
(45.317 0.0108007 1.44587e-24)
(45.4196 0.0221287 6.86396e-24)
(45.5566 0.0979728 1.92869e-23)
(45.7438 0.114508 6.81106e-24)
(46.0312 0.268719 0)
(46.4809 0.589928 5.53529e-23)
(47.2939 1.12377 1.58626e-23)
(48.6994 2.44485 -9.37046e-25)
(51.5342 -2.83952 -1.84884e-24)
(49.0692 -1.35915 2.5039e-23)
(47.4986 -0.715608 4.79965e-24)
(46.7521 -0.446203 6.53539e-23)
(46.0646 -0.345658 3.25048e-22)
(45.7601 -0.22316 1.8099e-22)
(45.5399 -0.176337 -1.22057e-22)
(45.3832 -0.115187 -8.63141e-23)
(45.2626 -0.0884177 5.51712e-24)
(45.1913 -0.0560651 2.40885e-24)
(45.1192 -0.0200781 -5.56724e-24)
(45.1245 -0.0151326 1.10631e-25)
(45.1536 -0.0135184 5.95598e-25)
(45.1823 0.00233375 8.92711e-25)
(45.2303 0.0068565 -5.15846e-25)
(45.2888 0.0454541 -2.21379e-32)
(45.3671 0.0737547 1.01911e-23)
(45.4677 0.162296 2.99565e-23)
(45.6169 0.232211 5.85022e-24)
(45.774 0.449099 0)
(45.9448 0.852001 -1.75566e-23)
(46.2551 1.59578 -4.2142e-24)
(46.4251 3.16458 -1.92909e-24)
(48.8919 -4.59326 -7.50357e-25)
(47.9108 -2.36508 0)
(46.9517 -1.2714 -1.00985e-22)
(46.4718 -0.803085 8.21466e-23)
(45.9038 -0.526376 4.63432e-22)
(45.6536 -0.365801 3.05841e-22)
(45.4704 -0.274679 0)
(45.3321 -0.189588 -7.63424e-23)
(45.2222 -0.14001 -4.26476e-23)
(45.158 -0.0969312 3.61159e-24)
(45.0873 -0.0428864 -4.47423e-24)
(45.1196 -0.00942371 0)
(45.1457 -0.00444795 1.45834e-25)
(45.1692 0.0128244 -1.68443e-25)
(45.2083 0.0210268 -4.55034e-25)
(45.2532 0.0610467 0)
(45.307 0.0937638 -1.28745e-24)
(45.3705 0.17461 5.39663e-24)
(45.4651 0.261169 -1.59895e-25)
(45.5062 0.454688 1.8997e-24)
(45.4529 0.767465 8.05687e-24)
(45.3354 1.33867 1.53124e-24)
(44.6057 2.35089 0)
(46.1774 -4.37451 -1.22435e-24)
(46.6095 -2.48566 9.05964e-24)
(46.3203 -1.45211 4.67289e-23)
(46.1067 -0.971584 5.77845e-24)
(45.702 -0.623378 2.02477e-22)
(45.5178 -0.457374 2.15442e-22)
(45.3768 -0.342132 0)
(45.2627 -0.246485 -1.10597e-24)
(45.1681 -0.180748 1.73791e-23)
(45.1135 -0.132097 9.62353e-24)
(45.0475 -0.0641567 3.40824e-25)
(45.1142 -0.0053881 0)
(45.1367 0.00045358 0)
(45.1554 0.016528 0)
(45.1862 0.0246585 0)
(45.2198 0.0596286 8.14109e-26)
(45.2551 0.0870394 4.15035e-25)
(45.292 0.145798 -1.22543e-23)
(45.3117 0.223844 9.73167e-23)
(45.3194 0.347414 0)
(45.1682 0.504762 0)
(44.9088 0.731041 1.5589e-23)
(43.9953 0.801261 8.88595e-23)
(32.6727 -1.13453 -1.58076e-24)
(44.6951 -2.59101 -1.74557e-22)
(45.6978 -2.02421 -3.29523e-23)
(45.813 -1.34964 -2.29628e-25)
(45.7647 -0.977909 -1.2876e-24)
(45.5033 -0.648223 -5.67327e-23)
(45.3793 -0.498389 8.56146e-24)
(45.2749 -0.377994 1.44824e-25)
(45.1849 -0.283376 -7.85154e-23)
(45.1067 -0.208886 0)
(45.062 -0.159587 3.56035e-24)
(45.003 -0.0825925 -9.07717e-24)
(45.1096 -0.00314428 0)
(45.1285 0.00150806 -1.05186e-24)
(45.1436 0.01466 -5.78167e-26)
(45.1681 0.0202054 0)
(45.1942 0.0469364 0)
(45.219 0.0644646 -3.16221e-23)
(45.2431 0.102191 1.10462e-23)
(45.2544 0.138892 1.44094e-22)
(45.2286 0.20961 1.40794e-22)
(45.1073 0.242907 1.1902e-22)
(44.9031 0.247002 0)
(44.4762 -0.0663957 -6.72192e-24)
(38.4109 -0.960752 1.41963e-23)
(44.6746 -1.49898 -1.54485e-23)
(45.2712 -1.35269 1.58633e-23)
(45.4997 -1.12347 -1.6887e-23)
(45.4154 -0.798461 3.05481e-23)
(45.3365 -0.622973 -5.72079e-24)
(45.2545 -0.497965 -2.24906e-26)
(45.1765 -0.38748 -1.70092e-25)
(45.1077 -0.302064 0)
(45.0437 -0.224956 -3.41593e-23)
(45.0081 -0.178933 -4.0637e-23)
(44.9566 -0.0975715 -1.19262e-23)
(45.1068 -0.00253824 1.027e-26)
(45.1225 -0.000470413 -7.13329e-25)
(45.1354 0.00896648 2.17802e-24)
(45.1559 0.010709 1.88081e-28)
(45.1782 0.0284384 -6.5562e-24)
(45.1989 0.0356617 -2.12076e-23)
(45.2211 0.053265 -9.9181e-23)
(45.232 0.0659112 -1.75329e-22)
(45.2113 0.0882181 -2.94246e-23)
(45.1483 0.0541649 -5.28258e-24)
(45.0749 -0.0613819 0)
(44.8872 -0.263541 -4.68574e-24)
(39.4285 -0.807517 -3.38909e-23)
(44.9171 -0.923028 -5.79736e-24)
(45.1799 -1.00228 -4.9965e-24)
(45.3333 -0.904409 -8.78541e-24)
(45.2754 -0.697633 -1.41495e-22)
(45.2123 -0.577198 0)
(45.1515 -0.474899 -2.16149e-23)
(45.0893 -0.379495 -6.75178e-24)
(45.0353 -0.306104 -1.27424e-24)
(44.9828 -0.230867 6.13266e-24)
(44.9547 -0.190462 0)
(44.9108 -0.108816 0)
(45.1061 -0.00327488 2.25328e-26)
(45.1194 -0.00452651 1.28576e-25)
(45.1314 0.00111048 5.68095e-25)
(45.1497 -0.00115612 0)
(45.1714 0.00810696 -1.88016e-24)
(45.192 0.00696222 0)
(45.2188 0.00720563 -1.09414e-23)
(45.2389 0.00519456 -1.25257e-23)
(45.2625 -0.0330154 6.22066e-25)
(45.2193 -0.0583947 -3.69417e-24)
(45.239 -0.1787 1.68419e-23)
(45.1028 -0.430462 -1.25081e-23)
(41.6101 -0.709724 -3.51742e-23)
(45.0203 -0.744151 2.90454e-24)
(45.1713 -0.771705 1.34152e-23)
(45.248 -0.728867 4.6746e-24)
(45.1723 -0.603299 -6.97311e-23)
(45.1211 -0.517046 7.58404e-23)
(45.0685 -0.439555 0)
(45.0157 -0.360147 2.83321e-23)
(44.9712 -0.3 -2.62905e-24)
(44.9269 -0.229284 7.17991e-24)
(44.9041 -0.195676 0)
(44.867 -0.116678 0)
(45.1078 -0.00502048 -1.15042e-25)
(45.1193 -0.00977525 1.67131e-25)
(45.1313 -0.00757395 -1.10747e-24)
(45.1489 -0.0133726 -1.22788e-24)
(45.1721 -0.0112544 0)
(45.1951 -0.018014 0)
(45.2294 -0.0291342 8.05674e-23)
(45.2621 -0.0405023 -1.13133e-23)
(45.3093 -0.0865137 8.66614e-24)
(45.3119 -0.132897 -3.19008e-23)
(45.3506 -0.226975 0)
(45.0942 -0.377076 -8.76975e-24)
(41.9644 -0.660656 -9.76667e-23)
(45.1329 -0.558086 1.84754e-23)
(45.1809 -0.566247 4.55461e-23)
(45.1868 -0.540024 1.04463e-22)
(45.1112 -0.516495 6.06041e-23)
(45.0582 -0.452291 6.414e-23)
(45.0043 -0.399851 -9.72832e-24)
(44.9557 -0.334352 -6.30046e-24)
(44.916 -0.28737 -1.41693e-23)
(44.8773 -0.222458 -5.11041e-23)
(44.8578 -0.195868 4.07315e-25)
(44.8266 -0.121525 -2.59882e-24)
(45.1115 -0.0074689 -8.09783e-25)
(45.1219 -0.0155131 1.83187e-25)
(45.1346 -0.016169 -1.09795e-24)
(45.1523 -0.0246829 -2.19601e-24)
(45.1781 -0.0281754 0)
(45.2042 -0.037803 0)
(45.2465 -0.0563661 8.04291e-23)
(45.2878 -0.067373 1.21658e-24)
(45.359 -0.12309 -1.08328e-23)
(45.3665 -0.123473 -3.93752e-23)
(45.4586 -0.300266 0)
(44.0027 -0.114583 -4.86418e-23)
(43.4913 -0.556463 4.18535e-24)
(45.2683 -0.355656 9.66869e-24)
(45.1803 -0.504083 7.71379e-24)
(45.1788 -0.446339 -2.56137e-23)
(45.0779 -0.448726 -1.89586e-23)
(45.0157 -0.395393 1.09358e-23)
(44.9556 -0.361919 -3.14963e-24)
(44.9079 -0.306426 -4.9246e-23)
(44.8695 -0.271384 -1.58224e-23)
(44.8344 -0.21242 -6.65983e-23)
(44.8166 -0.192399 0)
(44.79 -0.123889 -9.4709e-24)
(45.1172 -0.010377 -7.72911e-25)
(45.1267 -0.0212569 -7.62349e-25)
(45.1406 -0.0241725 0)
(45.1587 -0.0345126 -1.52973e-24)
(45.1875 -0.042398 0)
(45.2165 -0.0525847 -4.74815e-23)
(45.266 -0.0772022 -5.34081e-24)
(45.3124 -0.0825174 8.0916e-24)
(45.3987 -0.149518 -9.78023e-24)
(45.4124 -0.121664 -1.13721e-23)
(45.4836 -0.306743 -7.81927e-24)
(44.0749 -0.128545 -8.78326e-23)
(43.5584 -0.461112 3.45396e-23)
(45.2743 -0.281307 -9.32909e-24)
(45.1912 -0.443201 -5.20741e-24)
(45.173 -0.368697 -1.6388e-24)
(45.0539 -0.394708 -1.02773e-23)
(44.9851 -0.345259 -1.2463e-23)
(44.9183 -0.327366 -2.78233e-23)
(44.8698 -0.278687 -6.84771e-24)
(44.8307 -0.254144 -4.18185e-24)
(44.7978 -0.200647 -2.19087e-23)
(44.7804 -0.186483 -9.41442e-24)
(44.7576 -0.124269 -4.22409e-24)
(45.1243 -0.0135715 0)
(45.1334 -0.0267144 -1.62014e-24)
(45.1485 -0.0313719 -9.22114e-25)
(45.1673 -0.042681 -1.01135e-24)
(45.1991 -0.0541 6.00628e-24)
(45.2302 -0.0630617 -5.11741e-23)
(45.2861 -0.0930412 0)
(45.3362 -0.0906547 -1.16759e-23)
(45.4313 -0.166091 0)
(45.4548 -0.119294 0)
(45.5123 -0.29739 -1.39344e-25)
(44.1257 -0.12748 -9.5874e-27)
(43.6114 -0.3982 1.41315e-23)
(45.2914 -0.231537 -6.22183e-24)
(45.2065 -0.39114 -2.9685e-24)
(45.1693 -0.307375 -2.26935e-24)
(45.0375 -0.350664 2.1782e-24)
(44.9627 -0.301122 -5.49288e-24)
(44.8893 -0.296581 -7.55575e-24)
(44.8395 -0.25223 1.25713e-23)
(44.7984 -0.23686 -4.21053e-24)
(44.7668 -0.188129 0)
(44.749 -0.17904 1.92401e-28)
(44.7291 -0.123093 0)
(45.1325 -0.0169395 0)
(45.1414 -0.0317309 -1.96304e-24)
(45.1578 -0.037721 -1.14344e-24)
(45.1771 -0.0492215 2.40428e-24)
(45.2118 -0.0635634 0)
(45.2446 -0.0700441 1.82502e-24)
(45.3056 -0.104643 -3.51853e-23)
(45.3589 -0.0941354 -2.27478e-23)
(45.459 -0.174948 -1.3026e-24)
(45.491 -0.114972 6.19161e-26)
(45.5364 -0.284118 1.47214e-23)
(44.1539 -0.122407 -1.06775e-23)
(43.6436 -0.350291 1.84526e-23)
(45.3089 -0.194593 -3.89814e-24)
(45.2207 -0.348982 5.25899e-24)
(45.1677 -0.259152 -6.4689e-25)
(45.0271 -0.314482 -4.4921e-24)
(44.9463 -0.262951 3.65586e-24)
(44.8668 -0.269675 9.60918e-24)
(44.8152 -0.227682 -1.85195e-28)
(44.7716 -0.220277 -2.02506e-24)
(44.7407 -0.175513 -1.37445e-23)
(44.7219 -0.170741 7.11243e-24)
(44.7044 -0.120714 6.53011e-24)
(45.1415 -0.0204162 -1.12293e-24)
(45.1502 -0.0362521 -2.19722e-24)
(45.168 -0.043276 -3.19524e-32)
(45.1876 -0.0543028 5.19295e-24)
(45.225 -0.071121 1.29102e-23)
(45.259 -0.0743564 1.14846e-24)
(45.3238 -0.112871 -3.35633e-23)
(45.3799 -0.0946869 -2.04911e-23)
(45.4822 -0.178866 1.13736e-23)
(45.5204 -0.110012 0)
(45.5545 -0.270013 2.94661e-24)
(44.1713 -0.115879 -3.70977e-24)
(43.6647 -0.312509 5.51763e-24)
(45.323 -0.165766 -3.04011e-24)
(45.2325 -0.314093 -1.91443e-29)
(45.167 -0.220591 -6.99995e-24)
(45.0204 -0.284471 -3.72603e-24)
(44.9339 -0.230248 -8.39878e-25)
(44.8493 -0.246381 5.22346e-24)
(44.7958 -0.205332 -7.57991e-24)
(44.7494 -0.204802 -1.17905e-23)
(44.7188 -0.163214 -5.82151e-24)
(44.6988 -0.162078 -6.14326e-24)
(44.683 -0.117417 5.69923e-24)
(45.1511 -0.0239681 -1.34698e-32)
(45.1596 -0.0402931 -1.16901e-24)
(45.1785 -0.0481414 1.30845e-24)
(45.1985 -0.0581605 2.67681e-24)
(45.238 -0.0771185 1.01082e-27)
(45.273 -0.0767238 0)
(45.3405 -0.11853 -7.3888e-25)
(45.3989 -0.0935076 -1.8426e-23)
(45.5019 -0.179578 9.58235e-24)
(45.5448 -0.104849 0)
(45.5686 -0.255944 -9.4595e-29)
(44.182 -0.108704 2.81587e-24)
(43.6791 -0.28235 -6.15621e-24)
(45.335 -0.142956 0)
(45.2426 -0.284981 7.21758e-25)
(45.1668 -0.189453 2.22559e-24)
(45.0159 -0.259361 0)
(44.9245 -0.202322 1.73562e-24)
(44.8354 -0.226288 1.71073e-24)
(44.7802 -0.185227 -1.94652e-23)
(44.7309 -0.190611 -4.9602e-24)
(44.7004 -0.151472 4.94713e-24)
(44.6789 -0.153373 -6.35461e-24)
(44.6644 -0.113423 0)
(45.1608 -0.0275854 1.21701e-24)
(45.1693 -0.0439052 -1.20105e-24)
(45.1892 -0.0524407 0)
(45.2093 -0.0610424 7.62933e-25)
(45.2506 -0.0818738 2.46276e-24)
(45.2863 -0.0777321 3.10772e-25)
(45.3557 -0.122264 0)
(45.4159 -0.0913491 -2.33595e-25)
(45.5187 -0.178232 8.01212e-24)
(45.5652 -0.0997759 0)
(45.5797 -0.242619 1.99664e-24)
(44.1877 -0.101448 1.18363e-24)
(43.6884 -0.257791 -4.09045e-24)
(45.3453 -0.124626 5.12963e-25)
(45.2513 -0.260619 -1.35757e-24)
(45.167 -0.164151 1.10781e-25)
(45.013 -0.23822 1.31214e-24)
(44.9171 -0.178526 -5.35664e-25)
(44.8243 -0.208976 8.33646e-26)
(44.7673 -0.167295 -7.05053e-24)
(44.7154 -0.177751 2.63384e-24)
(44.6849 -0.140418 2.87354e-24)
(44.6619 -0.14485 -1.02809e-24)
(44.6484 -0.10891 -5.34058e-25)
(45.1705 -0.0312685 -1.16137e-25)
(45.1789 -0.047159 -1.51659e-24)
(45.1996 -0.0562912 -2.46078e-25)
(45.2198 -0.0631777 0)
(45.2625 -0.0856634 2.36547e-23)
(45.2988 -0.0778383 0)
(45.3694 -0.124589 -1.33616e-23)
(45.4312 -0.0887109 0)
(45.5331 -0.175633 6.67627e-24)
(45.5822 -0.0950169 3.67354e-24)
(45.5877 -0.230311 0)
(44.1896 -0.0946208 9.39573e-25)
(43.6941 -0.237597 0)
(45.3539 -0.109783 4.13168e-25)
(45.2585 -0.240083 -3.67613e-25)
(45.1674 -0.143483 0)
(45.0111 -0.220326 0)
(44.9111 -0.158305 -4.43719e-25)
(44.8154 -0.19407 6.33368e-25)
(44.7567 -0.151421 0)
(44.7023 -0.166185 0)
(44.6716 -0.13011 2.45793e-24)
(44.6472 -0.136644 4.95282e-25)
(44.6344 -0.104018 -1.92e-24)
(45.18 -0.0350208 1.17896e-25)
(45.1882 -0.0501268 9.54498e-26)
(45.2097 -0.0597978 0)
(45.23 -0.0647689 -2.1623e-25)
(45.2738 -0.0887179 1.15061e-23)
(45.3105 -0.077386 -6.28466e-26)
(45.3817 -0.125912 -1.18223e-23)
(45.4449 -0.0859332 -3.13183e-25)
(45.5456 -0.172364 0)
(45.5966 -0.0905938 3.99446e-24)
(45.5932 -0.219152 0)
(44.1885 -0.0886183 0)
(43.6976 -0.22081 0)
(45.3614 -0.0975796 2.96082e-24)
(45.2647 -0.22263 4.48797e-24)
(45.1677 -0.126557 0)
(45.0097 -0.205125 -1.51842e-25)
(44.9061 -0.141185 0)
(44.808 -0.181243 0)
(44.7478 -0.137459 0)
(44.6911 -0.155843 0)
(44.6602 -0.120593 -2.33158e-24)
(44.6345 -0.128842 -1.8782e-24)
(44.6221 -0.0988765 3.31308e-29)
(45.1891 -0.0388423 0)
(45.1973 -0.052872 5.68344e-25)
(45.2193 -0.0630437 -1.01468e-24)
(45.2396 -0.0659759 1.20129e-24)
(45.2842 -0.091223 1.06635e-23)
(45.3213 -0.0766269 2.12794e-23)
(45.3928 -0.126555 0)
(45.4571 -0.0832487 0)
(45.5565 -0.168843 6.5337e-25)
(45.6087 -0.0866165 -5.41698e-25)
(45.5971 -0.209257 -1.17991e-31)
(44.1853 -0.0833769 2.37327e-24)
(43.6989 -0.206608 7.09998e-24)
(45.368 -0.0874455 2.44003e-24)
(45.2699 -0.207946 1.17766e-25)
(45.1679 -0.11263 0)
(45.0087 -0.192216 -3.31798e-24)
(44.9019 -0.126689 -4.24177e-24)
(44.8018 -0.170215 0)
(44.74 -0.125215 -4.1358e-24)
(44.6815 -0.146651 -3.54543e-39)
(44.6501 -0.111839 5.69852e-24)
(44.6232 -0.121504 3.5273e-24)
(44.611 -0.0935717 2.81716e-24)
(45.1977 -0.0427245 -1.21112e-24)
(45.2058 -0.0554413 4.58168e-25)
(45.2284 -0.0660868 -5.67843e-25)
(45.2487 -0.0669236 2.26592e-24)
(45.2938 -0.0933213 9.55497e-24)
(45.3313 -0.0757436 3.93133e-23)
(45.4028 -0.126756 0)
(45.468 -0.0807738 0)
(45.566 -0.165323 5.70607e-25)
(45.6192 -0.0831452 0)
(45.5997 -0.200561 0)
(44.1806 -0.0788954 0)
(43.6985 -0.194607 0)
(45.3738 -0.0790915 -1.99372e-24)
(45.2743 -0.195595 -3.06913e-24)
(45.1682 -0.101177 -2.76307e-24)
(45.0078 -0.181286 -5.38697e-24)
(44.8981 -0.114466 -3.60447e-24)
(44.7964 -0.160772 0)
(44.7332 -0.114546 -1.0082e-24)
(44.6729 -0.138537 0)
(44.6411 -0.10384 0)
(44.613 -0.114672 1.63829e-24)
(44.601 -0.0881887 1.28556e-24)
(45.2057 -0.0466459 -9.54632e-25)
(45.2138 -0.0578631 -6.22539e-25)
(45.2368 -0.0689602 -1.80185e-25)
(45.2571 -0.0677 1.09274e-25)
(45.3027 -0.0951166 -2.59028e-32)
(45.3404 -0.0748684 1.82006e-23)
(45.4118 -0.126695 0)
(45.4778 -0.0785735 -6.86087e-25)
(45.5744 -0.161963 8.11042e-25)
(45.6282 -0.080195 5.24795e-25)
(45.6013 -0.192989 3.70137e-24)
(44.1749 -0.0751599 1.63345e-24)
(43.6967 -0.184518 2.5267e-24)
(45.3789 -0.0722882 0)
(45.2781 -0.185248 0)
(45.1683 -0.0918137 3.06383e-26)
(45.0071 -0.172093 2.26088e-24)
(44.8947 -0.104237 1.31177e-29)
(44.7916 -0.152753 -1.94951e-24)
(44.727 -0.105332 0)
(44.6652 -0.131443 0)
(44.6328 -0.0965986 5.98762e-25)
(44.6037 -0.108384 0)
(44.5915 -0.0828123 0)
(45.213 -0.0505683 0)
(45.2212 -0.0601365 -9.41137e-25)
(45.2445 -0.07167 -6.55698e-25)
(45.265 -0.0683542 -1.0376e-24)
(45.3107 -0.0966809 0)
(45.3489 -0.0740813 0)
(45.4199 -0.126491 0)
(45.4866 -0.0767019 -1.07173e-24)
(45.5818 -0.158891 0)
(45.636 -0.077773 -1.23321e-25)
(45.6021 -0.18647 1.58949e-24)
(44.1683 -0.0721532 6.38629e-25)
(43.6939 -0.176114 2.10653e-24)
(45.3834 -0.0668621 2.5248e-24)
(45.2815 -0.176663 2.10093e-24)
(45.1684 -0.0842588 0)
(45.0064 -0.164454 -1.87356e-24)
(44.8916 -0.0957845 -2.04956e-24)
(44.7873 -0.14604 0)
(44.7212 -0.0974775 0)
(44.6581 -0.125338 0)
(44.625 -0.0901293 5.69177e-25)
(44.5949 -0.102687 0)
(44.5824 -0.077535 0)
(45.2195 -0.0544241 5.91707e-26)
(45.228 -0.062236 -7.0191e-25)
(45.2514 -0.0741887 1.5573e-25)
(45.2723 -0.068909 0)
(45.3181 -0.0980455 7.10272e-25)
(45.3569 -0.0733799 -2.92711e-25)
(45.4272 -0.126218 0)
(45.4948 -0.0751665 -4.90978e-25)
(45.5885 -0.156164 6.58699e-25)
(45.643 -0.0758606 4.10864e-25)
(45.6022 -0.180943 -8.32438e-26)
(44.1611 -0.0698416 4.69334e-25)
(43.6902 -0.16923 3.45437e-24)
(45.3874 -0.0626883 3.14107e-26)
(45.2844 -0.169669 -2.24447e-26)
(45.1683 -0.0783044 1.40911e-24)
(45.0058 -0.158235 2.85097e-26)
(44.8885 -0.0889383 -1.31736e-25)
(44.7833 -0.14054 0)
(44.7157 -0.0909147 -1.36742e-24)
(44.6514 -0.120205 -1.21776e-24)
(44.6174 -0.0844636 0)
(44.5864 -0.0976443 1.49451e-24)
(44.5734 -0.0724653 5.48535e-25)
(45.225 -0.0581027 0)
(45.2341 -0.0641016 -4.52869e-25)
(45.2576 -0.0764661 -2.09376e-25)
(45.2792 -0.0693817 -3.16494e-26)
(45.3248 -0.0992231 0)
(45.3643 -0.0727902 7.3383e-24)
(45.4337 -0.125945 -1.53257e-24)
(45.5023 -0.0739629 -4.28167e-25)
(45.5944 -0.153829 -5.62485e-25)
(45.6494 -0.0744298 -2.93598e-25)
(45.6018 -0.17636 1.03434e-24)
(44.1536 -0.0681847 6.2098e-25)
(43.6859 -0.163769 1.37112e-24)
(45.3911 -0.0596708 2.52919e-26)
(45.2871 -0.164149 -1.34405e-24)
(45.168 -0.0737945 -1.04728e-24)
(45.0052 -0.153344 5.58844e-26)
(44.8854 -0.0835775 -1.32092e-25)
(44.7796 -0.136205 0)
(44.7102 -0.0856138 -9.47698e-25)
(44.6451 -0.11606 -9.70667e-25)
(44.6099 -0.0796677 0)
(44.5782 -0.09335 4.47919e-25)
(44.5642 -0.0677496 -6.58188e-25)
(45.2296 -0.0614522 -3.01301e-25)
(45.2398 -0.0656555 3.72062e-25)
(45.2632 -0.0784283 -8.31248e-25)
(45.286 -0.0697311 -2.2695e-26)
(45.3308 -0.100202 5.04367e-25)
(45.3717 -0.0723127 7.1664e-24)
(45.4397 -0.12571 -7.19077e-25)
(45.5098 -0.073063 -2.25871e-25)
(45.5997 -0.151895 -4.6354e-25)
(45.6555 -0.0733769 -5.02019e-25)
(45.601 -0.172615 -9.01024e-25)
(44.1457 -0.0671074 -1.7085e-25)
(43.6813 -0.159743 -1.01061e-24)
(45.3943 -0.0577721 0)
(45.2897 -0.160025 -9.94688e-25)
(45.1674 -0.0705912 -7.20432e-25)
(45.0047 -0.1497 2.582e-26)
(44.882 -0.0795908 0)
(44.7761 -0.132981 7.26295e-26)
(44.7044 -0.081541 1.09535e-25)
(44.6389 -0.112903 -7.22435e-25)
(44.6019 -0.0758083 -8.95409e-25)
(44.5697 -0.0898933 3.04262e-25)
(44.5542 -0.063563 0)
(45.2329 -0.0641024 -1.82038e-25)
(45.2446 -0.0667197 3.32127e-25)
(45.2675 -0.0798778 -2.8073e-25)
(45.2919 -0.0699044 0)
(45.3355 -0.100911 0)
(45.3784 -0.0719585 -1.64482e-24)
(45.4443 -0.125545 5.29219e-25)
(45.5164 -0.0724772 -2.11321e-25)
(45.6039 -0.150511 -6.53617e-25)
(45.6608 -0.0727302 -8.67167e-26)
(45.5998 -0.169931 6.3584e-25)
(44.1385 -0.0665347 0)
(43.6769 -0.157153 0)
(45.397 -0.0568015 0)
(45.2921 -0.157334 0)
(45.1665 -0.0686258 -3.20465e-26)
(45.0045 -0.147351 0)
(44.8786 -0.07701 0)
(44.7733 -0.130922 6.14892e-26)
(44.6991 -0.0788178 0)
(44.6337 -0.110844 0)
(44.5945 -0.0731166 0)
(44.5623 -0.0875081 2.72141e-25)
(44.5448 -0.0603111 0)
(45.2358 -0.0660607 0)
(45.2521 -0.0674015 -3.94446e-26)
(45.2722 -0.0809019 -1.17216e-25)
(45.3019 -0.0699752 -5.94196e-27)
(45.3407 -0.101438 1.26817e-25)
(45.3898 -0.071721 -2.91873e-24)
(45.4492 -0.125442 -1.77608e-26)
(45.5278 -0.0720466 1.30756e-28)
(45.608 -0.149386 4.91746e-32)
(45.6693 -0.0716578 -1.26206e-29)
(45.5973 -0.166987 7.08039e-25)
(44.1295 -0.0660398 0)
(43.6712 -0.156983 3.45834e-26)
(45.3991 -0.0574086 -2.37763e-25)
(45.2961 -0.155806 -3.5687e-25)
(45.1635 -0.0675215 -2.62685e-25)
(45.0056 -0.145917 0)
(44.8719 -0.0754104 0)
(44.7706 -0.129675 0)
(44.6893 -0.0770831 0)
(44.6269 -0.109564 0)
(44.5819 -0.071325 0)
(44.5514 -0.0859484 1.9057e-25)
(44.5287 -0.0579378 0)
(48.5041 -3.65281 9.25235e-25)
(50.3049 5.77937 3.25842e-24)
(45.508 6.45708 1.44675e-23)
(49.9566 -0.607668 -1.5798e-24)
(52.962 1.65593 -6.10421e-25)
(50.8257 5.359 -2.70932e-24)
(48.9515 2.21365 -8.68305e-25)
(52.132 -2.62346 -6.84658e-24)
(53.0599 1.06451 -2.02161e-24)
(46.706 3.17115 -2.73315e-24)
(49.2961 -4.82976 1.05463e-23)
(51.8255 -3.03109 0)
(44.7789 2.51021 2.82223e-28)
(46.2994 -4.83064 -7.50688e-24)
(48.9061 -4.95331 6.5846e-24)
(43.9909 0.983282 0)
(36.2996 -0.483415 -1.22327e-24)
(32.1797 -1.22773 3.25949e-24)
(44.5043 -3.06992 3.62602e-23)
(45.9703 -4.68666 -1.14195e-23)
(44.5117 -4.29169 7.36628e-24)
(41.1083 -0.00823725 1.90533e-24)
(44.8559 6.10098 2.05004e-23)
(43.2437 2.88176 4.50026e-23)
(46.975 -1.78009 -5.24203e-24)
(48.2815 -3.25108 2.64296e-25)
(45.3701 -4.03051 -9.97502e-24)
(48.2323 10.7159 0)
(42.5384 9.93159 -1.16428e-23)
(50.0609 5.26866 0)
(48.3954 2.93246 5.22222e-25)
(46.779 3.32976 -6.15165e-23)
(47.7773 -0.477904 5.79088e-24)
(49.6401 -0.544006 -1.44583e-24)
(48.579 -2.94968 3.03511e-25)
(49.5453 -2.20095 -2.76812e-25)
(50.9823 -2.68236 2.54681e-25)
(50.0827 -4.5565 -2.81886e-25)
(53.7837 5.131 2.6982e-24)
(52.1838 7.82724 1.15004e-24)
(52.4921 1.54311 2.44959e-25)
(49.7852 1.08418 -1.77862e-23)
(48.8652 2.57434 6.74059e-24)
(47.4984 0.875302 1.17747e-23)
(48.7842 1.96098 7.66878e-25)
(49.6509 -0.171055 -2.21398e-27)
(49.7327 0.970517 9.74664e-29)
(51.0962 1.62647 -1.52276e-24)
(51.4811 -0.323621 -2.081e-26)
(54.445 -2.0695 1.08297e-25)
(54.7736 1.51767 -2.26772e-24)
(51.7935 -2.4643 -8.19297e-24)
(49.669 -1.09595 2.4389e-24)
(49.8992 0.51531 -1.8314e-23)
(46.526 1.55542 -1.03874e-23)
(46.7327 2.88591 1.39615e-24)
(48.5567 2.17993 0)
(47.868 2.93754 0)
(48.1754 4.18172 -5.28247e-25)
(49.5798 3.49033 -7.25301e-26)
(50.7536 -5.90247 -2.24613e-25)
(52.7088 -4.39982 2.28973e-24)
(49.251 -4.4809 4.53538e-28)
(48.4218 -2.51846 3.31576e-23)
(49.4319 -1.54969 2.86164e-23)
(46.8082 -6.86297 -8.77873e-25)
(48.6699 -6.6677 -1.0588e-25)
(46.4853 -4.50726 4.80474e-24)
(46.8673 -2.86518 0)
(48.0293 -2.70276 0)
(43.2708 -5.04967 8.35209e-25)
(44.6934 -6.28986 0)
(44.3274 0.0393405 0)
(38.911 -0.255468 1.70437e-23)
(36.5836 -0.552652 9.4079e-28)
(36.8615 -1.13632 5.03537e-24)
(44.334 -1.65254 0)
(44.4247 -2.82025 0)
(49.912 -4.83133 2.09404e-25)
(47.9768 -6.6789 1.40159e-24)
(47.2445 -4.45916 8.59636e-24)
(48.0938 -7.10217 3.94723e-25)
(50.0714 -5.03039 9.53392e-25)
(43.1604 -7.56103 1.65665e-23)
(47.6627 -7.40168 1.785e-24)
(52.0402 8.00896 -1.36553e-25)
(48.6071 10.535 -1.69292e-25)
(48.419 6.73126 -3.00665e-24)
(48.7568 9.88612 -3.00119e-25)
(51.8756 7.77202 8.04663e-26)
(51.4623 -0.595868 2.32496e-25)
(51.0697 -2.41875 0)
(49.7048 -1.80835 3.80372e-25)
(51.1546 -2.58954 9.12447e-27)
(51.5542 -0.496359 7.80446e-28)
(50.2603 -4.73602 -4.62023e-25)
(51.1131 -2.7247 9.91383e-27)
(54.7223 1.79558 -3.27141e-24)
(53.8689 4.93804 6.02914e-24)
(52.3489 3.36582 -5.06322e-25)
(53.8154 4.65031 -8.09624e-25)
(54.7437 2.07623 1.54172e-24)
(52.0291 7.60212 1.04085e-24)
(53.727 4.84869 2.94794e-24)
(52.0454 3.90081 -4.94395e-25)
(49.7605 3.347 0)
(50.9592 1.88263 -1.28607e-24)
(49.58 1.32737 2.86639e-25)
(51.1006 2.09303 -1.07029e-25)
(49.752 3.53259 1.16194e-26)
(51.5664 -0.346674 -7.38368e-28)