/*--------------------------------*- C++ -*----------------------------------*\
| =========                 |                                                 |
| \\      /  F ield         | OpenFOAM: The Open Source CFD Toolbox           |
|  \\    /   O peration     | Version:  5.x                                   |
|   \\  /    A nd           | Web:      www.OpenFOAM.org                      |
|    \\/     M anipulation  |                                                 |
\*---------------------------------------------------------------------------*/
FoamFile
{
    version     2.0;
    format      ascii;
    class       volScalarField;
    location    "500";
    object      massFlux;
}
// * * * * * * * * * * * * * * * * * * * * * * * * * * * * * * * * * * * * * //

dimensions      [0 0 0 0 0 0 0];

internalField   nonuniform List<scalar> 
6584
(
0.0241652
0.0241651
0.0241651
0.0241652
0.0241652
0.0241652
0.0241652
0.0241652
0.0241652
0.0241652
0.0241652
0.0241652
0.0241652
0.0241652
0.0241652
0.0241652
0.0241652
0.0241652
0.0241652
0.0241652
0.0241651
0.0241651
0.0241651
0.0241651
0.0241388
0.0241388
0.0241388
0.0241388
0.0241388
0.0241389
0.0241389
0.024139
0.024139
0.024139
0.024139
0.024139
0.024139
0.024139
0.024139
0.024139
0.024139
0.0241389
0.0241389
0.0241389
0.0241388
0.0241388
0.0241388
0.0241387
0.0241124
0.0241124
0.0241124
0.0241124
0.0241124
0.0241125
0.0241126
0.0241127
0.0241128
0.0241259
0.0241259
0.0241259
0.0241259
0.0241259
0.0241259
0.0241128
0.0241127
0.0241126
0.0241126
0.0241125
0.0241125
0.0241125
0.0241124
0.0241124
0.024086
0.0240861
0.0240861
0.0240861
0.0240861
0.0240862
0.0240863
0.0240864
0.0240865
0.0240996
0.0240996
0.0240995
0.0240995
0.0240996
0.0240996
0.0240997
0.0240864
0.0240863
0.0240863
0.0240862
0.0240862
0.0240861
0.0240861
0.024086
0.0240597
0.0240597
0.0240598
0.0240598
0.0240598
0.0240599
0.0240599
0.0240599
0.0240732
0.0240733
0.0240731
0.024073
0.024073
0.0240731
0.0240733
0.0240733
0.0240733
0.0240602
0.02406
0.0240599
0.0240599
0.0240598
0.0240597
0.0240597
0.0240334
0.0240334
0.0240334
0.0240335
0.0240335
0.0240336
0.0240337
0.0240467
0.0240467
0.0240466
0.0240531
0.0240528
0.0240528
0.0240531
0.0240469
0.0240471
0.0240471
0.0240341
0.0240338
0.0240337
0.0240336
0.0240335
0.0240334
0.0240334
0.0240071
0.0240071
0.0240071
0.0240072
0.0240073
0.0240073
0.0240075
0.0240205
0.0240203
0.0240202
0.024026
0.0240287
0.0240284
0.024026
0.0240272
0.0240211
0.0240211
0.0240081
0.0240077
0.0240075
0.0240074
0.0240073
0.0240072
0.0240071
0.0239808
0.0239808
0.0239808
0.0239809
0.023981
0.0239812
0.0239814
0.0239943
0.0239942
0.0239942
0.0239995
0.0240006
0.024002
0.0240012
0.0239954
0.0239953
0.0239823
0.0239817
0.0239814
0.0239812
0.023981
0.0239809
0.0239808
0.0239545
0.0239545
0.0239546
0.0239547
0.0239548
0.023955
0.0239554
0.0239683
0.0239683
0.0239687
0.0239738
0.023975
0.023977
0.0239762
0.0239702
0.0239697
0.0239565
0.0239557
0.0239553
0.023955
0.0239548
0.0239546
0.0239545
0.0239282
0.0239282
0.0239283
0.0239285
0.0239287
0.0239289
0.0239294
0.0239424
0.0239426
0.0239433
0.0239489
0.0239509
0.023954
0.023952
0.0239452
0.0239443
0.0239308
0.0239298
0.0239292
0.0239289
0.0239286
0.0239284
0.0239282
0.0239019
0.023902
0.0239021
0.0239022
0.0239025
0.0239028
0.0239034
0.0239164
0.0239169
0.0239179
0.0239241
0.0239271
0.0239313
0.0239279
0.0239203
0.0239189
0.023905
0.0239039
0.0239032
0.0239027
0.0239023
0.0239021
0.0239019
0.0238756
0.0238757
0.0238758
0.023876
0.0238763
0.0238767
0.0238774
0.0238905
0.0238911
0.0238924
0.0238989
0.0239025
0.0239077
0.0239033
0.0238952
0.0238935
0.0238792
0.0238779
0.0238771
0.0238765
0.0238761
0.0238758
0.0238756
0.0238493
0.0238494
0.0238496
0.0238498
0.0238501
0.0238506
0.0238513
0.0238645
0.0238653
0.0238666
0.0238733
0.0238769
0.0238825
0.0238781
0.0238697
0.0238678
0.0238533
0.0238518
0.0238509
0.0238503
0.0238498
0.0238495
0.0238493
0.023823
0.0238232
0.0238233
0.0238236
0.0238239
0.0238244
0.0238251
0.0238256
0.0238391
0.0238403
0.0238467
0.0238493
0.0184158
0.0238523
0.0238521
0.0238439
0.023842
0.0238273
0.0238258
0.0238248
0.023824
0.0238235
0.0238231
0.0238229
0.0237967
0.0237969
0.0237971
0.0237974
0.0237977
0.0237982
0.0237988
0.0237991
0.0238125
0.0238137
0.0238201
0.0238193
0.0226074
0.0238257
0.0238187
0.0238177
0.0238021
0.0238009
0.0237994
0.0237984
0.0237978
0.0237972
0.0237968
0.0237965
0.0237704
0.0237706
0.0237708
0.0237711
0.0237715
0.0237719
0.0237725
0.0237728
0.0237862
0.0237874
0.0237873
0.0237927
0.0226879
0.0237926
0.0237923
0.0237915
0.0237759
0.0237746
0.023773
0.023772
0.0237713
0.0237707
0.0237703
0.02377
0.0237441
0.0237443
0.0237445
0.0237448
0.0237452
0.0237456
0.0237461
0.0237466
0.0237473
0.0237612
0.023761
0.023742
0.0232525
0.0237661
0.023766
0.0237652
0.0237495
0.0237483
0.0237466
0.0237456
0.0237448
0.0237442
0.0237438
0.0237435
0.0237178
0.023718
0.0237182
0.0237185
0.0237189
0.0237193
0.0237198
0.0237204
0.0237211
0.0237217
0.0237348
0.0237055
0.0232395
0.0237397
0.0237266
0.0237247
0.0237231
0.0237219
0.0237202
0.0237191
0.0237183
0.0237177
0.0237173
0.0237169
0.0236915
0.0236917
0.0236919
0.0236923
0.0236926
0.023693
0.0236936
0.0236942
0.0236949
0.0236955
0.0236923
0.0230385
0.0234621
0.0237005
0.0237002
0.0236984
0.0236967
0.0236955
0.0236938
0.0236926
0.0236918
0.0236912
0.0236908
0.0236903
0.0236652
0.0236654
0.0236656
0.023666
0.0236664
0.0236667
0.0236674
0.023668
0.0236688
0.0236693
0.0236636
0.0230161
0.0234374
0.0236742
0.0236739
0.023672
0.0236703
0.023669
0.0236673
0.0236661
0.0236653
0.0236646
0.0236642
0.0236637
0.0236389
0.0236391
0.0236393
0.0236397
0.0236401
0.0236405
0.0236412
0.0236419
0.0236427
0.0236432
0.023635
0.0229934
0.0234124
0.0236479
0.0236475
0.0236457
0.0236439
0.0236426
0.0236408
0.0236396
0.0236387
0.023638
0.0236376
0.0236371
0.0236126
0.0236128
0.0236131
0.0236134
0.0236139
0.0236143
0.0236151
0.0236157
0.0236166
0.023617
0.0236065
0.0229705
0.0233873
0.0236216
0.0236213
0.0236194
0.0236175
0.0236161
0.0236143
0.0236131
0.0236122
0.0236115
0.023611
0.0236105
0.0235863
0.0235865
0.0235868
0.0235872
0.0235876
0.0235881
0.0235889
0.0235896
0.0235905
0.0235909
0.0235781
0.0229475
0.023362
0.0235953
0.023595
0.0235931
0.0235911
0.0235897
0.0235878
0.0235866
0.0235856
0.0235849
0.0235844
0.0235839
0.02356
0.0235602
0.0235605
0.0235609
0.0235614
0.0235619
0.0235628
0.0235635
0.0235644
0.0235648
0.0235499
0.0229243
0.0233367
0.0235691
0.0235687
0.0235667
0.0235647
0.0235632
0.0235613
0.02356
0.0235591
0.0235583
0.0235578
0.0235573
0.0235337
0.0235339
0.0235342
0.0235347
0.0235352
0.0235357
0.0235366
0.0235374
0.0235384
0.0235387
0.0235218
0.022901
0.0233112
0.0235428
0.0235424
0.0235404
0.0235383
0.0235367
0.0235348
0.0235335
0.0235325
0.0235317
0.0235312
0.0235307
0.0235074
0.0235077
0.023508
0.0235084
0.023509
0.0235095
0.0235105
0.0235113
0.0235123
0.0235126
0.0234935
0.0228778
0.0232858
0.0235166
0.0235162
0.0235141
0.0235119
0.0235103
0.0235083
0.0235069
0.0235059
0.0235051
0.0235046
0.023504
0.0234812
0.0234814
0.0234817
0.0234822
0.0234827
0.0234833
0.0234843
0.0234852
0.0234863
0.0234866
0.0234652
0.0228548
0.0232604
0.0234905
0.02349
0.0234879
0.0234856
0.0234839
0.0234818
0.0234804
0.0234794
0.0234786
0.023478
0.0234775
0.0234549
0.0234551
0.0234555
0.0234559
0.0234565
0.0234571
0.0234582
0.0234591
0.0234603
0.0234605
0.0234369
0.0228316
0.0232351
0.0234643
0.0234638
0.0234616
0.0234592
0.0234575
0.0234554
0.0234539
0.0234528
0.023452
0.0234515
0.0234509
0.0234286
0.0234289
0.0234292
0.0234297
0.0234303
0.0234309
0.0234321
0.023433
0.0234343
0.0234344
0.0234087
0.0228084
0.0232096
0.0234381
0.0234376
0.0234354
0.0234329
0.0234311
0.0234289
0.0234274
0.0234263
0.0234254
0.0234249
0.0234243
0.0234023
0.0234026
0.023403
0.0234035
0.0234041
0.0234048
0.023406
0.023407
0.0234083
0.0234084
0.0233806
0.0227852
0.0231842
0.023412
0.0234114
0.0234091
0.0234065
0.0234047
0.0234024
0.0234009
0.0233998
0.0233989
0.0233983
0.0233977
0.0233761
0.0233764
0.0233767
0.0233772
0.0233779
0.0233786
0.0233799
0.023381
0.0233823
0.0233823
0.0233525
0.0227619
0.0231587
0.0233858
0.0233852
0.0233829
0.0233802
0.0233783
0.0233759
0.0233744
0.0233732
0.0233723
0.0233717
0.0233712
0.0233498
0.0233501
0.0233505
0.023351
0.0233517
0.0233525
0.0233538
0.0233549
0.0233563
0.0233562
0.0233244
0.0227385
0.0231332
0.0233596
0.0233591
0.0233566
0.0233539
0.0233518
0.0233495
0.0233479
0.0233466
0.0233457
0.0233451
0.0233446
0.0233236
0.0233239
0.0233243
0.0233248
0.0233255
0.0233264
0.0233278
0.0233289
0.0233304
0.0233302
0.0232963
0.0227151
0.0231077
0.0233335
0.0233329
0.0233304
0.0233275
0.0233254
0.023323
0.0233214
0.0233201
0.0233191
0.0233185
0.023318
0.0232973
0.0232976
0.023298
0.0232986
0.0232994
0.0233003
0.0233017
0.0233029
0.0233044
0.0233041
0.0232683
0.0226918
0.0230822
0.0233073
0.0233067
0.0233041
0.0233012
0.023299
0.0232965
0.0232948
0.0232935
0.0232926
0.0232919
0.0232914
0.0232711
0.0232714
0.0232718
0.0232724
0.0232732
0.0232742
0.0232756
0.0232769
0.0232784
0.023278
0.0232401
0.0226684
0.0230566
0.0232812
0.0232805
0.0232779
0.0232748
0.0232726
0.02327
0.0232683
0.0232669
0.023266
0.0232653
0.0232647
0.0232449
0.0232452
0.0232456
0.0232462
0.023247
0.023248
0.0232496
0.0232509
0.0232525
0.023252
0.023212
0.0226451
0.0230312
0.023255
0.0232543
0.0232516
0.0232485
0.0232461
0.0232435
0.0232418
0.0232404
0.0232394
0.0232387
0.0232381
0.023978
0.0239796
0.0240013
0.0239539
0.0239568
0.0239767
0.0239301
0.0239343
0.023954
0.0239057
0.0239108
0.0239314
0.0238802
0.0238859
0.0239078
0.0238527
0.0176529
0.018131
0.0238595
0.0238827
0.0240041
0.0240283
0.0240047
0.024029
0.0239802
0.0239785
0.0240013
0.0239884
0.0240005
0.0239799
0.0239819
0.0240007
0.0239551
0.0239541
0.0239754
0.0239659
0.0239569
0.023973
0.0239489
0.0239727
0.0239568
0.0239579
0.0239758
0.0239303
0.0239301
0.0239511
0.023942
0.0239105
0.0239246
0.0237664
0.0238617
0.0239342
0.023934
0.0239519
0.0239053
0.0239056
0.0239271
0.023918
0.0238978
0.0239025
0.0238733
0.0238042
0.0239107
0.0239098
0.0239281
0.0238884
0.0238972
0.0238857
0.0238849
0.0239037
0.0238693
0.0238793
0.0238259
0.0194324
0.0176872
0.0215291
0.0238323
0.0238559
0.023975
0.0239869
0.0239875
0.0239864
0.0239718
0.0240003
0.023988
0.0239739
0.0239876
0.0239886
0.0239873
0.0239758
0.0239277
0.0239536
0.0239629
0.0239327
0.0238525
0.0239686
0.0239369
0.0238677
0.0239477
0.0239653
0.0239557
0.0239286
0.0239747
0.0239568
0.0239681
0.0239032
0.0239094
0.0239391
0.023823
0.0238458
0.0238487
0.0238222
0.0238017
0.0237609
0.0239428
0.0239118
0.0239089
0.0239277
0.0239128
0.0239456
0.0238215
0.0238417
0.0238476
0.0238179
0.023897
0.023877
0.0239198
0.0239097
0.0239058
0.0239087
0.0239097
0.0239227
0.0238544
0.0238548
0.0238439
0.0238537
0.0238805
0.0238877
0.0239046
0.0238956
0.0238986
0.0238484
0.0238261
0.0238544
0.0238495
0.0238554
0.0238676
0.0239907
0.0239886
0.0240009
0.0239915
0.0239992
0.0238798
0.02388
0.0239025
0.0238931
0.0238839
0.0238909
0.0236579
0.0235393
0.0238593
0.0238592
0.0238785
0.0239994
0.0239917
0.0240011
0.0239889
0.0239917
0.0238918
0.0238971
0.0239149
0.0169947
0.0182625
0.0219102
0.0224118
0.0183378
0.0198219
0.0235157
0.0232874
0.0238954
0.0238942
0.0238838
0.0224714
0.0227698
0.0238823
0.0238709
0.0238729
0.0240151
0.0240137
0.0240022
0.0240024
0.0240138
0.0240152
0.0239906
0.0239934
0.023991
0.0239997
0.0239919
0.0239951
0.0239585
0.0239627
0.0238201
0.0238251
0.0238508
0.0238425
0.02389
0.0232935
0.0238965
0.0237432
0.0236708
0.0236877
0.023754
0.0238752
0.023893
0.0239813
0.0237053
0.0239537
0.0236511
0.0239793
0.0239612
0.0239912
0.0239931
0.0239893
0.023919
0.0239806
0.0239815
0.0238886
0.0238836
0.0239585
0.0239563
0.0239014
0.0239059
0.023935
0.0239605
0.0239648
0.0239549
0.0239591
0.0239343
0.0239669
0.023972
0.0239765
0.0239662
0.0239706
0.023965
0.023834
0.0238352
0.0238281
0.0238261
0.023696
0.0237049
0.0239043
0.0239385
0.0239426
0.023933
0.0239371
0.0239036
0.0239211
0.0239494
0.0239535
0.0239439
0.023948
0.0239202
0.0171042
0.0238313
0.0184422
0.0170459
0.0200001
0.0185324
0.0238342
0.0238024
0.017181
0.0238062
0.0238926
0.0238913
0.0239092
0.0239274
0.0239316
0.0239218
0.023926
0.0239097
0.0211484
0.021802
0.0238493
0.021232
0.0201062
0.0220942
0.0213555
0.0238507
0.0199712
0.0210419
0.023884
0.0235499
0.0236745
0.023322
0.0235241
0.023885
0.0232298
0.0227484
0.0228507
0.018566
0.0228034
0.0227073
0.019665
0.0237376
0.0237496
0.0239975
0.0238536
0.0238529
0.0238767
0.023867
0.0238634
0.0238727
0.0211504
0.0238348
0.0238499
0.0239974
0.0238737
0.0238827
0.0238899
0.0181596
0.0184006
0.0169436
0.0227222
0.0227043
0.0186218
0.0190135
0.0236956
0.0237338
0.014416
0.0240066
0.0240071
0.0240005
0.0240004
0.0240072
0.0240067
0.0239646
0.0239694
0.0239648
0.0239514
0.0239539
0.0239683
0.023915
0.0239453
0.0239409
0.0239512
0.0239467
0.0239169
0.0237915
0.0238468
0.0238639
0.0238103
0.0227087
0.0224756
0.0238737
0.0237607
0.023803
0.0237932
0.0237841
0.0191701
0.0239949
0.0239925
0.024
0.0239767
0.0239652
0.023957
0.0239826
0.0239841
0.0239889
0.023978
0.0239826
0.023981
0.0239383
0.0239572
0.0239527
0.0239633
0.0239587
0.023942
0.0239134
0.0231451
0.0236255
0.0227869
0.0228709
0.0238649
0.0236738
0.0237273
0.0239461
0.023882
0.0239209
0.0239444
0.0239613
0.0239628
0.0239519
0.0239542
0.0239311
0.0239394
0.0239351
0.0239064
0.0238288
0.022584
0.0222961
0.0238385
0.0226653
0.0227628
0.0222433
0.0222993
0.0238215
0.0237604
0.0237279
0.0239082
0.0239384
0.0239403
0.0239297
0.0239327
0.0239071
0.023925
0.023949
0.0239512
0.0239409
0.0239429
0.0239161
0.0238957
0.0236895
0.0237356
0.0236298
0.0235988
0.0238844
0.0239101
0.023916
0.0239204
0.02391
0.0239146
0.0239091
0.0238553
0.0225994
0.02217
0.0230528
0.0229226
0.0238554
0.0201366
0.0203299
0.0238528
0.0231952
0.0230928
0.0199041
0.0200804
0.0229857
0.0227686
0.0239945
0.0239974
0.0239957
0.0224704
0.0236149
0.0226285
0.0227374
0.0227097
0.0235997
0.0239961
0.0239947
0.0239981
0.0239933
0.023995
0.0171594
0.0175748
0.0182932
0.0181887
0.022152
0.018985
0.0188195
0.0194106
0.019037
0.0222167
0.0187421
0.0190286
0.0234323
0.0233939
0.0226211
0.0199809
0.0196063
0.0190559
0.0192582
0.0239876
0.0239899
0.0239928
0.023986
0.023989
0.0239864
0.0239523
0.0239672
0.0237968
0.0238417
0.0238617
0.0238146
0.023345
0.0237521
0.0237197
0.0237852
0.0237622
0.0233351
0.0236431
0.0236109
0.0237094
0.0236612
0.0237182
0.0230762
0.0232059
0.0228333
0.0230108
0.0237076
0.022346
0.0224168
0.0238278
0.0239744
0.0239641
0.0239847
0.0239774
0.0238596
0.0239076
0.0238875
0.023957
0.0239161
0.0239836
0.0239895
0.0239861
0.0239812
0.0239745
0.0239759
0.0239673
0.0239777
0.023971
0.0239811
0.023985
0.023973
0.0239797
0.0239842
0.0239814
0.0239771
0.0229853
0.023072
0.0239062
0.0222681
0.0219032
0.0232186
0.0223461
0.0213708
0.0210311
0.0217904
0.0215169
0.0238695
0.0229007
0.0229633
0.0236398
0.0235484
0.0238771
0.0237132
0.0234315
0.0233241
0.0235307
0.0234596
0.0239488
0.0237396
0.0237736
0.0238868
0.0239182
0.023958
0.0239604
0.0239399
0.0239319
0.0239549
0.0239572
0.0226587
0.0226332
0.0238304
0.020657
0.0206635
0.0191652
0.0204806
0.0205372
0.0209804
0.0206351
0.020549
0.0225233
0.0226331
0.0238355
0.0204833
0.020129
0.0209492
0.0205915
0.0194533
0.0190885
0.0199908
0.0196222
0.0238225
0.0223527
0.02248
0.0237313
0.0237208
0.0239358
0.0239377
0.0239072
0.0239053
0.0239333
0.0239352
0.0239463
0.0239483
0.023924
0.0239171
0.0239436
0.0239456
0.0172432
0.0176773
0.0227481
0.0229277
0.0225075
0.0226835
0.0171947
0.0194306
0.0231616
0.0228905
0.0229763
0.0231179
0.0191254
0.0216699
0.0217854
0.0212329
0.0216266
0.0175698
0.0222654
0.0224578
0.0218481
0.022163
0.0175563
0.023649
0.0236782
0.0238952
0.0235183
0.0235815
0.0235957
0.023515
0.0235811
0.023886
0.02358
0.0236239
0.0214163
0.0180485
0.0181201
0.0186942
0.0180835
0.0215106
0.0183067
0.0203926
0.0181423
0.0205694
0.0234286
0.0238106
0.0237922
0.0238316
0.0238165
0.023446
0.0231388
0.0231738
0.0204183
0.0206298
0.0194057
0.0198278
0.0231309
0.0230349
0.0240054
0.0240071
0.0240267
0.0238696
0.0238678
0.0238573
0.0240027
0.0240031
0.023999
0.0239984
0.024003
0.0240028
0.024015
0.0240144
0.024003
0.0239756
0.0239709
0.0239669
0.0239498
0.023925
0.023921
0.0237725
0.0238566
0.0239277
0.0239233
0.0239004
0.023703
0.0236873
0.023806
0.0237456
0.0237682
0.0238972
0.0239803
0.0239819
0.0239771
0.0239364
0.0239501
0.0239746
0.0239858
0.0239826
0.0239851
0.0239662
0.0238729
0.0239304
0.0238725
0.0239168
0.0239124
0.0239449
0.023942
0.0239428
0.0239294
0.0239645
0.023966
0.0239595
0.0239055
0.0239336
0.0239292
0.0227832
0.0226647
0.0238405
0.0237966
0.0237244
0.0237177
0.0237553
0.0239108
0.0239298
0.0239304
0.0239268
0.0239406
0.0239413
0.023931
0.0239317
0.0239139
0.0237954
0.0229631
0.0228427
0.0239078
0.0239272
0.0239285
0.0239009
0.0239038
0.0239084
0.0183332
0.0183411
0.023301
0.0232252
0.023852
0.0183348
0.0183309
0.023806
0.0238116
0.0238627
0.0239923
0.0239922
0.0169151
0.0171207
0.0171999
0.0181576
0.0184197
0.0169595
0.0170365
0.0182783
0.0180577
0.0196215
0.0230981
0.0230581
0.0233235
0.0202797
0.0200474
0.0226618
0.0240081
0.0240075
0.0240009
0.0239892
0.0239896
0.0239904
0.0239915
0.0239834
0.0239846
0.0239938
0.0239968
0.0239951
0.0239451
0.0239428
0.0239554
0.0239648
0.0239589
0.0239552
0.023809
0.0238301
0.0237381
0.023749
0.0238561
0.023832
0.0236901
0.0237154
0.0233875
0.0233926
0.0235308
0.023512
0.023293
0.0234048
0.023419
0.0238971
0.0237772
0.0238015
0.0238692
0.0237642
0.0239046
0.0238876
0.0239732
0.023966
0.0239381
0.0234571
0.0233865
0.0238449
0.0237241
0.0235514
0.0239922
0.0239904
0.0239865
0.0239869
0.0239803
0.0239843
0.0239394
0.0239787
0.0239816
0.0237845
0.0238395
0.0239646
0.0232943
0.0232075
0.0238969
0.0239104
0.0239708
0.0239724
0.0239704
0.0239605
0.0239676
0.0239692
0.0238391
0.0226515
0.0226514
0.0236963
0.0237101
0.0239363
0.023937
0.0239221
0.0239191
0.0239349
0.0239356
0.0172091
0.0183289
0.0202602
0.0203814
0.0189408
0.0190466
0.0169192
0.0230479
0.0229854
0.0237989
0.0175248
0.0173577
0.0183622
0.0183866
0.0173215
0.0188299
0.0188815
0.0172243
0.0172634
0.0239248
0.023926
0.0239078
0.0239099
0.0239222
0.0239235
0.0206965
0.0230774
0.0231358
0.0229536
0.0230156
0.0205047
0.0236082
0.0238182
0.0238354
0.0238274
0.0238231
0.0236274
0.0233661
0.0235801
0.0235549
0.0231667
0.023113
0.0232379
0.018733
0.0188471
0.0189111
0.0183869
0.0228926
0.0207207
0.0203939
0.0209991
0.0207994
0.0226631
0.022235
0.0222573
0.0232401
0.0233456
0.023765
0.0239965
0.0239975
0.0239955
0.0181563
0.0182266
0.020406
0.0203864
0.0166908
0.0188381
0.0184866
0.0184648
0.0184251
0.0184644
0.0189518
0.014533
0.0230737
0.0231262
0.0240039
0.0240033
0.023999
0.0239327
0.0239289
0.0239506
0.0239472
0.0239574
0.0239652
0.0239529
0.0239555
0.0237832
0.0238517
0.023621
0.0236396
0.0236398
0.02362
0.0238077
0.0236761
0.0236694
0.0226573
0.0222656
0.0222619
0.0223364
0.0223206
0.0225916
0.0239628
0.0239705
0.0239714
0.0239681
0.0239695
0.0239602
0.0238772
0.023938
0.0239076
0.0238965
0.0239303
0.0239435
0.0239443
0.0237244
0.0237285
0.0237853
0.023739
0.0239286
0.0239292
0.0239094
0.0239391
0.0239398
0.0239259
0.023915
0.0239323
0.023933
0.0236306
0.0236919
0.0236672
0.023712
0.0237045
0.0236241
0.0183585
0.0184007
0.0183729
0.0183468
0.0199664
0.0190354
0.0189876
0.0223433
0.0223427
0.0229201
0.0224651
0.0225599
0.0222906
0.0223654
0.0228431
0.023994
0.0239933
0.0239935
0.023994
0.0239966
0.0239969
0.0239981
0.0239949
0.0239957
0.0239958
0.022593
0.0231685
0.0231363
0.0232571
0.0232113
0.0226299
0.0228534
0.0230151
0.0229475
0.0231102
0.0230762
0.0227948
0.0239955
0.0239961
0.023995
0.0239898
0.0239869
0.0239936
0.0239925
0.0169249
0.017962
0.0172483
0.0172098
0.0182611
0.0182244
0.0198339
0.0199306
0.0188906
0.0169839
0.0169156
0.0185414
0.0175403
0.0175558
0.0174702
0.0193464
0.0176665
0.0172603
0.0231303
0.0231901
0.0234657
0.0229658
0.0229837
0.0229184
0.0229314
0.0233562
0.0230414
0.0230666
0.0190981
0.0183362
0.0183808
0.0183056
0.0182976
0.0191583
0.0239885
0.0239894
0.0239887
0.0239843
0.0239856
0.0239876
0.0239311
0.0239536
0.0239399
0.0239364
0.0239467
0.0239499
0.0239396
0.0239433
0.0238023
0.0238354
0.0236633
0.0236689
0.0236474
0.0236556
0.0238593
0.0237546
0.0237584
0.0236668
0.023674
0.0238219
0.0236686
0.0234398
0.0234008
0.0233127
0.0234961
0.0234756
0.0236298
0.0234385
0.023433
0.0235008
0.023465
0.0236204
0.0236971
0.0235297
0.0235496
0.0234554
0.0234944
0.0236805
0.023423
0.0228925
0.0233288
0.0232972
0.0223015
0.0223379
0.0238145
0.0239197
0.0239122
0.0237962
0.0238866
0.0239477
0.0239311
0.0235708
0.0235113
0.0237767
0.0237904
0.0238947
0.0236939
0.0236336
0.0239609
0.0239701
0.0239842
0.0239772
0.0239484
0.0239133
0.0239472
0.0239741
0.0239769
0.0239782
0.0239727
0.0239746
0.0239689
0.0239625
0.0239686
0.0239822
0.02398
0.0239784
0.0239838
0.0239812
0.0239835
0.0239748
0.0239766
0.0239728
0.0239764
0.0221724
0.0220303
0.0229764
0.0218498
0.0219812
0.0215713
0.0224158
0.0212418
0.0211287
0.0216918
0.0216076
0.0235945
0.0231814
0.0232825
0.022973
0.0230748
0.0235679
0.0238581
0.02371
0.0237544
0.0233422
0.0236055
0.0238127
0.0231249
0.0229608
0.0234029
0.0223054
0.0224105
0.0221247
0.0222136
0.0233711
0.0235124
0.0227968
0.0228803
0.0225276
0.0226569
0.0234871
0.0238924
0.0239146
0.0207073
0.0193443
0.0195335
0.0189538
0.0191404
0.0206905
0.0195237
0.0196271
0.0196096
0.0200399
0.0206014
0.0179286
0.0181178
0.0182883
0.0179525
0.020749
0.0206072
0.0186262
0.0187829
0.0183201
0.0184848
0.0205798
0.0203932
0.0202878
0.0208636
0.0207181
0.0193029
0.0191673
0.0198724
0.0197733
0.0237087
0.0237152
0.023923
0.0239377
0.0239384
0.0239336
0.0239343
0.0239181
0.0172777
0.0198277
0.0200854
0.018115
0.0169202
0.0192364
0.0195184
0.0178777
0.0176967
0.0217047
0.0195309
0.0195446
0.021435
0.0192737
0.0188115
0.0195408
0.0194727
0.021558
0.0182782
0.0180704
0.018523
0.0187332
0.0174658
0.0175524
0.0180658
0.0236622
0.0237801
0.0237713
0.0237927
0.0237867
0.0236702
0.0235398
0.0235697
0.0235669
0.0235128
0.023512
0.0235351
0.0235777
0.0237295
0.0237192
0.0237587
0.0237437
0.0235964
0.018069
0.0188628
0.0189503
0.0187345
0.0187984
0.0180934
0.0184626
0.0195053
0.0196969
0.0190884
0.0192854
0.0182283
0.0182683
0.0176034
0.0177207
0.017558
0.0175672
0.0181485
0.0185004
0.0186479
0.0179547
0.0182294
0.0181073
0.0236178
0.0236016
0.023406
0.0231325
0.0232138
0.0185037
0.0186745
0.0195728
0.0186176
0.0184156
0.0189246
0.0188168
0.019721
0.018419
0.0184026
0.0222632
0.0222801
0.0240598
0.0240597
0.0240731
0.0240596
0.0240595
0.0240729
0.0240595
0.0240596
0.024073
0.0240597
0.02406
0.0240732
0.0240333
0.0240331
0.0240464
0.0240328
0.0240325
0.024053
0.0240322
0.0240319
0.0240527
0.024032
0.0240325
0.0240528
0.0240328
0.0240333
0.0240533
0.0240337
0.0240339
0.0240469
0.0240072
0.0240066
0.0240264
0.0240061
0.0240047
0.0240256
0.0240181
0.0240178
0.0240286
0.0240171
0.0240176
0.0240284
0.0240191
0.0240195
0.0240261
0.0240076
0.0240082
0.024021
0.0239814
0.0239806
0.024
0.023993
0.0239928
0.0239993
0.0239973
0.023997
0.0240004
0.0239922
0.0239936
0.0240032
0.0239823
0.0239831
0.0239956
0.023956
0.0239554
0.0239743
0.0239676
0.0239675
0.0239738
0.0239719
0.0239719
0.0239749
0.0239682
0.0239693
0.0239782
0.023958
0.0239584
0.0239707
0.0239306
0.0239304
0.0239492
0.0239427
0.0239429
0.0239491
0.023948
0.023948
0.023951
0.0239455
0.0239459
0.0239546
0.0239339
0.0239337
0.0239461
0.0239052
0.0239053
0.0239242
0.0239178
0.0239182
0.0239244
0.0239241
0.0239242
0.0239273
0.0239226
0.0239223
0.0239312
0.0239095
0.0239089
0.0239214
0.0238795
0.0238797
0.023899
0.0238994
0.0238996
0.0239027
0.0238984
0.0238975
0.0239068
0.0238845
0.0238837
0.0238964
0.0238536
0.0238537
0.0238733
0.0238726
0.0238725
0.023879
0.0238587
0.0238581
0.023871
0.0238269
0.0238264
0.0238397
0.0238267
0.0238261
0.023846
0.0238392
0.0238339
0.023844
0.0192267
0.0236186
0.0236425
0.0238324
0.0238329
0.0238527
0.023832
0.0238322
0.0238452
0.0238006
0.0238002
0.0238133
0.0238005
0.0237996
0.0238195
0.0237993
0.0209973
0.0209209
0.0226704
0.0238054
0.0238256
0.0238056
0.0238064
0.0238259
0.0238055
0.0238058
0.0238189
0.0237742
0.0237737
0.0237869
0.0237615
0.0223699
0.021019
0.0232582
0.0237777
0.0237986
0.0237794
0.02378
0.0237931
0.023978
0.0239811
0.0239811
0.0239826
0.0239836
0.0239789
0.0240011
0.0239979
0.0239981
0.0239539
0.0239569
0.0239569
0.0239596
0.0239597
0.0239555
0.0239773
0.0239728
0.0239738
0.0239302
0.0239332
0.0239331
0.0239371
0.0239376
0.0239334
0.0239541
0.02395
0.0239512
0.0239058
0.023909
0.0239088
0.0239138
0.0239147
0.0239103
0.023932
0.0239278
0.0239286
0.0238891
0.0238889
0.0238857
0.0239073
0.0239043
0.0239048
0.0238474
0.0238601
0.0238635
0.016678
0.0200011
0.0200319
0.0220909
0.0220967
0.0146218
0.0238825
0.0238792
0.0238794
0.0240028
0.0240141
0.0240145
0.0239994
0.0239994
0.0239983
0.0240284
0.0240174
0.024017
0.0239994
0.0239996
0.0240081
0.0240079
0.0240044
0.0240289
0.0240181
0.0240184
0.0239801
0.0239864
0.0239865
0.023988
0.0239862
0.0239799
0.023999
0.0239925
0.0239913
0.0239901
0.0239897
0.0239868
0.0240001
0.0239982
0.0239986
0.0239813
0.0239905
0.0239891
0.0239881
0.0239881
0.0239821
0.0240005
0.0239943
0.0239943
0.0239552
0.0239614
0.0239613
0.0239631
0.0239614
0.0239553
0.0239737
0.0239675
0.0239661
0.0239659
0.0239689
0.0239689
0.0239597
0.0239641
0.0239622
0.0239744
0.0239727
0.0239711
0.0239701
0.0239669
0.0239712
0.0239575
0.0239663
0.0239654
0.0239638
0.0239642
0.0239583
0.0239761
0.0239701
0.0239698
0.0239306
0.0239368
0.0239365
0.0239391
0.023937
0.0239309
0.0239492
0.0239431
0.0239421
0.0239421
0.0239451
0.023945
0.0239118
0.0239348
0.0239334
0.0239444
0.0239426
0.0239217
0.0239342
0.023943
0.0239427
0.02394
0.0239407
0.0239348
0.0239525
0.0239466
0.023946
0.0239057
0.023912
0.0239116
0.0239149
0.0239124
0.0239061
0.0239248
0.0239186
0.023918
0.0239182
0.0239212
0.023921
0.0238997
0.0239217
0.0239173
0.0239215
0.0239202
0.0239018
0.0238695
0.0237757
0.0237877
0.02391
0.0239192
0.0239196
0.023916
0.0239168
0.0239107
0.0239288
0.0239228
0.023922
0.023889
0.0238297
0.0238418
0.0238748
0.0238766
0.0238973
0.0238853
0.0238916
0.0238953
0.0238912
0.023892
0.0238857
0.0239045
0.0238983
0.0238975
0.0238708
0.0238641
0.0238631
0.0238681
0.0238677
0.0238779
0.0238228
0.0238306
0.0238326
0.0192332
0.0237807
0.0237685
0.0227128
0.0227233
0.0178584
0.0238223
0.0238317
0.0212532
0.023839
0.0238399
0.0238306
0.0238538
0.0238432
0.0238457
0.0239768
0.0239777
0.023976
0.0239884
0.0239835
0.023982
0.0239843
0.0239842
0.0239874
0.0239848
0.0239823
0.0239865
0.0239985
0.0239982
0.024
0.0239876
0.0239893
0.0239897
0.0239749
0.0239729
0.0239718
0.0239874
0.0239865
0.0239868
0.0239884
0.0239853
0.0239855
0.0239858
0.0239862
0.0239878
0.0239769
0.0239784
0.0239777
0.0239311
0.0239482
0.0239463
0.0239603
0.0239583
0.0239498
0.0239599
0.0239599
0.0239629
0.0239275
0.0238782
0.0238923
0.0237151
0.023722
0.0238564
0.0239016
0.0239084
0.0239403
0.0239654
0.0239612
0.0239625
0.0239541
0.0239589
0.0239601
0.0239714
0.0239739
0.0239754
0.023961
0.0239619
0.0239577
0.023971
0.0239713
0.0239669
0.0239039
0.0239241
0.0239228
0.0239321
0.0239307
0.0239084
0.0239361
0.0239362
0.0239392
0.023825
0.0236635
0.0236575
0.0237223
0.0237167
0.0238438
0.0238451
0.0237024
0.0237087
0.0236535
0.0236512
0.0238211
0.0239431
0.023939
0.02394
0.0239241
0.0239244
0.0239089
0.0239484
0.0239486
0.0239445
0.0238249
0.0233824
0.0233119
0.02365
0.0236358
0.0238394
0.0238493
0.0237335
0.0237281
0.0232895
0.0232107
0.0238142
0.0238967
0.0238701
0.0238726
0.0238005
0.0238111
0.0238802
0.0239206
0.0239162
0.0239168
0.0239094
0.0239171
0.0239184
0.0239089
0.0239103
0.0239069
0.0239083
0.0239232
0.0239237
0.0239197
0.023921
0.0239098
0.0239257
0.0239264
0.0239221
0.0238548
0.023753
0.0237461
0.0237826
0.0237788
0.0238551
0.0238459
0.0236763
0.0236634
0.0237385
0.0237302
0.0238529
0.0238817
0.0238682
0.0238682
0.0238451
0.0238535
0.0238869
0.0239034
0.023906
0.0239075
0.0238976
0.0239022
0.0238996
0.0239017
0.0239013
0.0238982
0.0238447
0.0233726
0.0233223
0.0232628
0.0233458
0.0238421
0.023854
0.0237891
0.023786
0.0238608
0.0238114
0.0238086
0.0239905
0.0239938
0.0239939
0.0239937
0.023995
0.02399
0.0240001
0.0239967
0.0239955
0.0239987
0.0239975
0.023998
0.0238897
0.0238871
0.0238806
0.0238998
0.0238935
0.0238929
0.0238932
0.0238964
0.0238962
0.0238871
0.0238956
0.0238924
0.0239017
0.0238987
0.0238881
0.0236439
0.0234773
0.0235025
0.0233049
0.0233463
0.0235621
0.0238595
0.0238661
0.0238693
0.0239983
0.023998
0.0239992
0.0239904
0.023992
0.0239929
0.0239957
0.0239972
0.0240024
0.0239905
0.0239955
0.0239939
0.0239949
0.0239947
0.0239915
0.0238942
0.0239096
0.0239048
0.0239157
0.0239112
0.023895
0.0239119
0.023912
0.0239151
0.0220014
0.0210044
0.0209065
0.0215232
0.0214238
0.0223466
0.023492
0.0232286
0.023264
0.0238951
0.023892
0.0238923
0.0238899
0.0238913
0.0238959
0.0238849
0.0238896
0.0238884
0.0225275
0.0217139
0.0216216
0.0221037
0.0220452
0.0227351
0.0238775
0.0238786
0.0238818
0.0238721
0.0238753
0.0238758
0.0238762
0.023876
0.0238727
0.0240153
0.0240092
0.0240088
0.0240098
0.0240096
0.0240155
0.0240012
0.0240075
0.0240079
0.0240043
0.024004
0.0240021
0.0240156
0.0240096
0.02401
0.0240089
0.0240093
0.0240153
0.0239936
0.0239906
0.0239917
0.0239962
0.0239977
0.0239997
0.0239925
0.0239935
0.0239929
0.0239968
0.0239964
0.0239946
0.0238076
0.0238247
0.0238896
0.0238967
0.0238832
0.0238841
0.023736
0.0236296
0.0236425
0.0235255
0.0235454
0.0236824
0.0237214
0.0238341
0.0238311
0.0238388
0.0238367
0.0237304
0.0238766
0.0238672
0.0238666
0.0239745
0.0239806
0.0239831
0.0239771
0.023955
0.0239713
0.0239677
0.0239806
0.0239772
0.023992
0.0239909
0.0239897
0.0239914
0.023991
0.0239927
0.0239797
0.0239786
0.0239797
0.0239824
0.0239816
0.0239807
0.0237781
0.0237881
0.0238939
0.0238788
0.0237608
0.0237691
0.0239421
0.0239466
0.0239607
0.0239539
0.0239331
0.0239376
0.0239484
0.0239494
0.023936
0.0239619
0.0239612
0.0239597
0.0239641
0.0239626
0.0239633
0.0239563
0.0239555
0.023954
0.0239583
0.0239569
0.0239577
0.0239335
0.0239467
0.0239475
0.0239691
0.0239701
0.0239683
0.0239735
0.023973
0.0239715
0.023976