/*--------------------------------*- C++ -*----------------------------------*\
| =========                 |                                                 |
| \\      /  F ield         | OpenFOAM: The Open Source CFD Toolbox           |
|  \\    /   O peration     | Version:  5.x                                   |
|   \\  /    A nd           | Web:      www.OpenFOAM.org                      |
|    \\/     M anipulation  |                                                 |
\*---------------------------------------------------------------------------*/
FoamFile
{
    version     2.0;
    format      ascii;
    class       volScalarField;
    location    "500";
    object      p;
}
// * * * * * * * * * * * * * * * * * * * * * * * * * * * * * * * * * * * * * //

dimensions      [0 2 -2 0 0 0 0];

internalField   nonuniform List<scalar> 
6584
(
20.9987
19.1742
17.3493
15.5246
13.7
11.8755
10.051
8.22699
6.4032
4.57933
2.75484
0.929168
-0.898072
-2.72673
-4.55621
-6.38583
-8.21509
-10.0439
-11.8723
-13.7003
-15.5281
-17.3551
-19.1813
-21.0064
21.0002
19.1785
17.3549
15.5306
13.7062
11.8807
10.0539
8.22834
6.40437
4.58077
2.75656
0.931067
-0.896238
-2.7252
-4.55508
-6.38551
-8.21612
-10.0464
-11.8767
-13.706
-15.534
-17.3612
-19.1861
-21.0077
21.0006
19.1818
17.3615
15.5387
13.7148
11.8893
10.0603
8.23133
6.40608
5.03823
3.21537
1.39096
-0.435927
-2.26538
-4.09638
-6.38928
-8.22442
-10.0567
-11.887
-13.7155
-15.5423
-17.3675
-19.1889
-21.0087
21.0006
19.1824
17.3638
15.5439
13.7215
11.8973
10.0686
8.23817
6.41026
5.04057
3.21944
1.39677
-0.429943
-2.26199
-4.1016
-5.94039
-8.24047
-10.0709
-11.8986
-13.725
-15.5494
-17.371
-19.1904
-21.0095
21.0002
19.1822
17.364
15.5457
13.7258
11.9032
10.0778
8.25306
6.87547
5.04546
3.22517
1.40511
-0.420954
-2.26589
-4.12094
-5.96444
-7.79737
-10.0838
-11.9089
-13.7326
-15.5536
-17.3729
-19.1915
-21.0102
20.9999
19.1819
17.3637
15.5457
13.7273
11.9073
10.0863
8.72031
6.89704
5.07325
3.47075
1.64799
-0.173932
-2.04988
-4.14516
-5.98356
-7.81159
-10.0946
-11.9174
-13.7376
-15.5563
-17.3746
-19.1926
-21.0108
20.9994
19.1815
17.3633
15.5452
13.7269
11.9081
10.0886
8.72262
6.90358
5.08815
3.50492
1.80281
-0.0134952
-2.07313
-3.93924
-6.00325
-7.82622
-10.1044
-11.9236
-13.7411
-15.5586
-17.376
-19.1937
-21.0114
20.999
19.181
17.3628
15.5445
13.726
11.907
10.0881
8.72292
6.90085
5.08011
3.49303
1.80994
-2.02833
-3.97691
-6.02347
-7.83933
-10.1108
-11.9278
-13.7439
-15.5605
-17.3773
-19.1945
-21.0118
20.9987
19.1806
17.3623
15.5438
13.7249
11.9054
10.0855
8.72027
6.89439
5.06424
3.45933
1.7211
-2.1459
-4.01751
-6.03931
-7.8465
-10.1128
-11.9294
-13.7456
-15.5618
-17.3781
-19.195
-21.012
20.9985
19.1802
17.3619
15.5432
13.7242
11.9044
10.0837
8.717
6.88768
5.0527
3.4384
1.68327
-2.19733
-4.03902
-6.04578
-7.84839
-10.1108
-11.9271
-13.7447
-15.562
-17.3783
-19.1951
-21.0119
20.9983
19.1799
17.3615
15.5427
13.7237
11.9039
10.0831
8.71543
6.88555
5.05156
3.43964
1.69781
-2.1719
-4.02865
-6.03804
-7.84229
-10.1046
-11.9211
-13.74
-15.56
-17.3779
-19.1947
-21.0114
20.9983
19.1799
17.3614
15.5427
13.7238
11.9043
10.0836
8.71573
6.88787
5.05892
3.45657
1.7394
-2.10014
-3.99396
-6.0185
-7.82892
-10.0942
-11.9122
-13.7324
-15.5545
-17.3756
-19.1939
-21.0107
20.9984
19.1799
17.3616
15.543
13.7243
11.9054
10.0852
8.71776
6.89264
5.06931
3.47687
1.78266
-2.02317
-3.95056
-5.99301
-7.81085
-10.0803
-11.9008
-13.7227
-15.5466
-17.3714
-19.1926
-21.0098
20.9986
19.1801
17.3618
15.5434
13.725
11.9066
10.0868
8.2647
6.89679
5.07474
3.48283
1.77824
0.0667997
-2.0681
-3.9108
-5.96473
-7.79039
-10.0638
-11.8872
-13.7112
-15.5383
-17.3655
-19.1894
-21.0085
20.9987
19.1803
17.3621
15.5437
13.7254
11.907
10.0862
8.26025
6.89255
5.05862
3.46094
1.64903
-0.170965
-2.03288
-4.10677
-5.94121
-8.22605
-10.0523
-11.8782
-13.7029
-15.5307
-17.3578
-19.1827
-21.0057
20.9989
19.1804
17.3621
15.5437
13.7254
11.9065
10.0835
8.25202
6.87659
5.05024
3.22981
1.63656
-0.192985
-2.25811
-4.09799
-5.93268
-8.21919
-10.0464
-11.8724
-13.7003
-15.5263
-17.3521
-19.1772
-21.0028
20.9989
19.1804
17.362
15.5435
13.7248
11.9048
10.0791
8.24676
6.41622
5.04828
3.22513
1.4002
-0.425321
-2.26024
-4.096
-5.92772
-8.21277
-10.0396
-11.8668
-13.6948
-15.5219
-17.3483
-19.1757
-21.0013
20.9989
19.1802
17.3617
15.5429
13.7237
11.9017
10.0737
8.24213
6.4145
4.59069
3.22188
1.39757
-0.432835
-2.26253
-4.55098
-6.38076
-8.20886
-10.036
-11.8633
-13.6907
-15.5176
-17.3444
-19.1718
-20.9991
20.9988
19.18
17.3612
15.5422
13.7225
11.8983
10.0684
8.23881
6.41261
4.58842
2.76058
0.937119
-0.890394
-2.72276
-4.54969
-6.37901
-8.20649
-10.0337
-11.8606
-13.6878
-15.5146
-17.3417
-19.1686
-20.9971
20.9987
19.1797
17.3606
15.5414
13.7213
11.8955
10.0649
8.23704
6.41121
4.58683
2.75954
0.934919
-0.89242
-2.72247
-4.54895
-6.37772
-8.20469
-10.0319
-11.8585
-13.6855
-15.5125
-17.3395
-19.1661
-20.9954
20.9985
19.1793
17.3599
15.5404
13.72
11.8936
10.0627
8.23575
6.4102
4.58558
2.7586
0.933098
-0.893977
-2.72242
-4.5486
-6.37678
-8.20338
-10.0304
-11.8569
-13.6837
-15.5107
-17.3376
-19.1641
-20.9941
20.9983
19.1789
17.3592
15.5394
13.7186
11.8921
10.0612
8.23473
6.4091
4.58457
2.75776
0.932021
-0.89478
-2.72248
-4.54845
-6.37616
-8.20243
-10.0294
-11.8557
-13.6823
-15.5092
-17.336
-19.1624
-20.993
20.998
19.1784
17.3585
15.5384
13.7174
11.8908
10.06
8.23353
6.40815
4.58378
2.75719
0.931315
-0.895309
-2.72252
-4.54836
-6.37569
-8.20173
-10.0286
-11.8547
-13.6813
-15.508
-17.3346
-19.1609
-20.992
20.9978
19.1779
17.3577
15.5374
13.7161
11.8895
10.0589
8.23242
6.4073
4.58294
2.75674
0.930814
-0.895691
-2.72256
-4.5483
-6.37531
-8.20122
-10.0279
-11.8538
-13.6804
-15.507
-17.3335
-19.1597
-20.9911
20.9975
19.1774
17.3569
15.5364
13.7149
11.8884
10.0578
8.23139
6.40634
4.58212
2.75637
0.930428
-0.895957
-2.72257
-4.54825
-6.37504
-8.2008
-10.0274
-11.8532
-13.6797
-15.5061
-17.3325
-19.1587
-20.9904
20.9972
19.1769
17.3562
15.5355
13.7137
11.8872
10.0569
8.23043
6.40538
4.58135
2.75554
0.929734
-0.896517
-2.72284
-4.54844
-6.37501
-8.2007
-10.0272
-11.853
-13.6794
-15.5056
-17.3318
-19.1578
-20.9898
20.9969
19.1764
17.3555
15.5346
13.7126
11.8862
10.056
8.22958
6.40446
4.57991
2.7541
0.928366
-0.897723
-2.72389
-4.54945
-6.37585
-8.20148
-10.0279
-11.8537
-13.6799
-15.5058
-17.3319
-19.1578
-20.9896
20.9966
19.1759
17.3548
15.5337
13.7116
11.8852
10.0552
8.22875
6.40318
4.57813
2.75238
0.926623
-0.899434
-2.72551
-4.55102
-6.37729
-8.20285
-10.0291
-11.8548
-13.681
-15.5068
-17.3329
-19.1587
-20.9899
20.9963
19.1755
17.3542
15.5329
13.7107
11.8842
10.0544
8.22754
6.40151
4.57642
2.75068
0.924924
-0.901105
-2.72711
-4.55257
-6.37872
-8.20423
-10.0304
-11.856
-13.6821
-15.5079
-17.3339
-19.1596
-20.9902
20.996
19.175
17.3536
15.5322
13.7097
11.8833
10.0532
8.22585
6.39986
4.57472
2.74901
0.92326
-0.90274
-2.72866
-4.55412
-6.38015
-8.20562
-10.0317
-11.8573
-13.6833
-15.509
-17.3349
-19.1606
-20.9906
20.9958
19.1746
17.353
15.5314
13.7087
11.8819
10.0513
8.22415
6.39821
4.57303
2.74737
0.921624
-0.904348
-2.7302
-4.55563
-6.38159
-8.20702
-10.033
-11.8585
-13.6845
-15.5101
-17.336
-19.1616
-20.991
20.9955
19.1742
17.3524
15.5307
13.7072
11.8794
10.0492
8.22246
6.39658
4.57138
2.74574
0.920008
-0.905934
-2.73173
-4.55714
-6.38299
-8.20841
-10.0343
-11.8598
-13.6857
-15.5112
-17.3371
-19.1627
-20.9914
20.9953
19.1738
17.3519
15.5297
13.7047
11.8765
10.0472
8.22076
6.39495
4.56971
2.74413
0.918414
-0.907502
-2.73324
-4.55861
-6.38442
-8.20978
-10.0356
-11.8611
-13.6869
-15.5124
-17.3382
-19.1637
-20.9918
20.9951
19.1735
17.3514
15.5281
13.7017
11.8737
10.0452
8.21906
6.39333
4.56807
2.7425
0.916837
-0.909058
-2.73472
-4.56009
-6.38582
-8.21117
-10.0369
-11.8623
-13.6881
-15.5136
-17.3393
-19.1648
-20.9921
20.995
19.1732
17.351
15.5266
13.6989
11.871
10.0432
8.21736
6.39167
4.5664
2.74087
0.915282
-0.910597
-2.73617
-4.56156
-6.38718
-8.21256
-10.0383
-11.8636
-13.6893
-15.5148
-17.3404
-19.1659
-20.9925
20.9948
19.1729
17.3507
15.5255
13.697
11.8686
10.0412
8.21568
6.39009
4.56476
2.73923
0.913744
-0.912142
-2.73762
-4.56301
-6.38859
-8.21396
-10.0396
-11.865
-13.6906
-15.516
-17.3416
-19.1671
-20.993
1.72981
-1.91745
-1.79662
1.68487
-1.98369
-1.93089
1.69384
-1.96298
-1.9859
1.73358
-1.88949
-1.95558
1.77813
-1.80564
-1.87893
1.79121
0.193687
0.0715632
-1.73503
-1.79579
1.81919
0.216831
-1.77928
-1.71044
3.46748
1.96391
2.03253
-1.03926
-0.894005
-2.13404
-3.56212
-3.52245
3.44149
1.92139
1.95597
1.70024
0.923161
0.951529
-1.21081
-1.16804
-2.19494
-3.59647
-3.5736
3.43741
1.92749
1.91986
1.68335
0.908382
0.904967
-1.24753
-1.25286
-2.17891
-3.59275
-3.59928
3.45152
1.96259
1.931
1.71174
0.959602
0.935588
-1.13408
-1.18735
-2.1099
-3.55701
-3.58605
-1.00599
-1.08241
-2.03236
-3.50831
-3.54529
-0.904252
-0.946857
1.6531
0.166081
0.183712
-0.0619029
-1.56533
-1.72681
0.956456
1.00691
1.7615
0.88832
0.835684
0.995717
0.89818
-1.16461
-1.08018
-1.87053
-1.16027
-1.21776
0.905593
0.919695
1.69514
0.830645
0.81331
0.831113
0.831961
-1.24845
-1.21618
-1.96888
-1.27062
-1.28883
-1.22058
-1.26678
-1.96145
0.932174
0.911178
1.68509
0.818442
0.844388
0.813733
0.816101
-1.19283
-1.24346
-1.98012
-1.283
-1.24908
-1.29187
-1.28664
-1.98369
0.847312
0.87605
0.846832
0.843499
-1.08577
-1.13267
-1.9196
-1.18777
-1.16959
-1.24461
-1.18978
-1.92932
0.918247
0.941093
0.880131
0.914089
-0.953294
-0.999446
-1.16324
-1.11792
-1.84685
0.966752
0.942482
0.943593
0.96449
-0.85154
-0.899817
1.77355
1.01709
1.10306
-0.546256
-0.392817
3.47209
2.00288
1.96784
1.75714
1.02585
0.994208
-0.494137
-0.519654
-1.9655
-3.46233
-3.496
0.619068
0.495763
-1.01618
-1.14596
-1.85235
0.990212
0.963344
1.71694
0.427661
0.446043
0.513329
0.523199
0.443569
0.465329
-0.52361
-0.547552
-1.83644
-1.11145
-1.06673
0.525364
0.537811
-1.06061
-1.01938
-1.7674
0.222848
0.95476
1.00775
-0.875223
-0.74754
0.0951623
-0.573877
-0.981603
-0.624355
-0.463013
-0.605491
-0.960412
-1.18969
-1.19146
-1.26164
-1.26145
-1.16288
-1.16064
-1.02516
-0.633078
-1.0578
-0.468601
-0.491545
-0.577977
-0.553376
-0.927595
0.428749
0.860958
0.465204
0.485452
0.467094
0.853368
0.488605
0.548066
0.93743
0.481337
0.427764
-1.12997
-1.12552
0.816535
0.81667
0.844378
0.843272
-1.22214
-1.21905
-1.26201
-1.61191
-1.60173
-1.6228
-1.61484
-1.26511
-1.24124
-1.57764
-1.55816
-1.59769
-1.58302
-1.24184
0.83121
0.833126
0.812142
0.812882
-1.20541
-1.21011
-1.25214
-1.60982
-1.62045
-1.59125
-1.6055
-1.24787
-1.30025
-1.62771
-1.62466
-1.62317
-1.62745
-1.30027
0.431556
0.858867
0.483573
0.462577
0.501518
0.481868
0.862955
0.827725
0.466229
0.831446
-1.10874
-1.11114
-1.21701
-1.56959
-1.58562
-1.54716
-1.56414
-1.21577
0.500454
0.512116
0.894371
0.52219
0.501307
0.554268
0.526279
0.899408
0.46917
0.498771
-0.972853
-0.603921
-0.581541
-0.625776
-0.603585
-0.9796
-0.541256
0.527301
0.541004
0.200093
0.539607
0.523653
-0.011771
-0.414912
-0.465952
-0.0549468
3.48669
2.13134
2.00705
1.79456
1.12835
1.11278
-0.0258414
-0.739461
-0.786612
0.432134
1.05272
1.02982
1.76281
0.285278
0.280577
0.17792
0.526867
0.509704
0.291042
0.309958
-0.362948
-0.399806
0.0358165
0.310935
0.623094
0.631504
-0.370784
-0.275185
0.175846
0.933072
1.29349
1.28242
-1.19401
-1.03196
-1.17636
0.904805
1.26686
1.26841
1.26736
1.26555
0.904408
-1.25623
-1.25764
-1.14696
-1.16682
-0.227499
-0.231455
-0.921441
-0.550406
-0.557651
0.885423
0.875478
0.204751
0.952184
0.560265
0.669686
-1.14775
-0.99125
-1.02507
-1.20002
-1.51495
-1.48077
-1.55065
-1.52405
-1.21064
0.908667
1.27192
1.26705
1.28064
1.2726
0.910177
0.821963
0.62714
0.654582
0.623612
0.622727
0.815008
0.65735
0.657196
0.837117
-1.23947
-1.20993
-1.26657
-1.42418
-1.3965
-1.4457
-1.43971
-1.2802
1.2707
1.27503
0.920352
0.824479
0.647705
0.6245
0.812372
0.623116
0.623891
0.619799
0.618563
0.813977
-1.19104
-1.23113
-1.27123
-1.43518
-1.44105
-1.37502
-1.4107
-1.24832
-1.29709
-1.45025
-1.44601
-1.44395
-1.44758
-1.29496
-1.09509
-0.922205
-0.920434
-0.987152
-0.968381
-1.12483
-1.19607
-1.52387
-1.54136
-1.50051
-1.51787
-1.18991
0.929078
0.566034
0.556237
0.606544
0.599059
0.932127
0.328266
0.331791
0.952697
0.620144
0.610325
0.326237
0.327792
-0.221338
-0.221099
-0.4914
-0.162174
-0.467226
-0.274312
-0.506151
-0.334506
-0.310501
-0.346108
-0.510954
0.559652
0.385131
0.486361
0.362694
0.540084
0.420041
0.431116
0.301665
0.289523
0.516855
0.343213
0.349925
0.344864
0.340355
0.517539
0.439906
0.445583
-0.531657
-0.532527
0.531136
0.364124
0.353279
0.308012
0.303794
-0.669268
-0.822318
-0.782135
-0.865008
-0.834076
-0.689829
-1.18927
-1.18112
-1.25841
-1.26034
-1.15274
-1.16104
-0.667142
-0.819215
-0.829548
-0.806096
-0.817334
-0.662187
-0.839316
-0.862059
-0.834362
-0.835902
-0.47833
-0.296535
-0.288908
-0.317497
-0.298364
-0.481053
-0.237411
-0.269112
0.456303
0.652794
0.643312
0.675909
0.657386
0.457154
0.621303
0.622879
0.638716
0.622781
0.514374
0.701635
0.68143
0.455944
0.450866
-0.973767
-0.984285
-1.14413
-0.931762
-0.895873
-0.87469
-0.920917
-0.902686
-1.10728
-0.953516
-0.966544
0.61981
0.621845
0.820514
0.561105
0.55973
0.599347
0.563478
0.563117
0.564644
0.56079
0.563982
0.814736
0.622813
0.620607
0.597154
0.590376
0.622844
0.605822
0.596974
0.600903
0.591625
0.595457
0.837879
0.656696
0.655614
-1.23664
-1.21174
-1.43031
-1.42441
-1.26187
-1.27714
-1.43885
-1.43141
0.654789
0.650516
0.826986
0.596435
0.597258
0.552968
0.591366
0.589605
0.601385
0.59614
0.591646
0.621628
0.623023
0.812926
0.563943
0.561853
0.565158
0.563934
0.557848
0.554649
0.561413
0.559417
0.812939
0.619552
0.62112
-1.19211
-1.225
-1.4243
-1.43177
-1.26604
-1.24377
-1.41354
-1.42076
-1.45184
-1.44985
-1.29886
-1.297
-1.44975
-1.45058
0.431351
0.467527
0.650376
0.6566
0.639285
0.647101
0.454854
0.495177
0.670043
0.645803
0.658744
0.666877
0.487623
0.618272
0.617286
0.610468
0.617789
0.474762
0.63221
0.63784
0.618097
0.629411
0.469369
-0.947033
-0.928722
-1.09908
-0.879486
-0.906328
-0.866124
-0.869893
-0.910605
-1.12027
-0.958836
-0.941351
0.503288
0.328608
0.341431
0.347771
0.325117
0.505039
0.303567
0.481303
0.344509
0.486984
-0.624193
-0.794177
-0.802652
-0.779652
-0.790582
-0.615984
-0.563426
-0.574457
0.335265
0.349545
0.308235
0.324823
-0.196014
-0.219676
-2.01391
-3.50954
-3.47842
-1.75885
-1.06907
-1.03575
0.361678
0.494613
0.483552
-0.025234
0.0196939
0.29235
-1.74335
-1.00235
-0.999442
1.31067
1.29638
0.936929
-1.2049
-1.16308
-1.1699
-1.25195
-1.25445
1.2877
1.29532
0.945225
-1.14636
-1.1385
-1.18078
-0.917689
-0.900576
-1.07158
0.974139
1.33264
1.31482
0.682927
0.685936
0.840519
-0.924788
-0.947224
-1.10177
0.853581
0.668109
0.68172
-1.24492
-1.17718
-1.18326
-1.21973
-1.34543
-1.34298
-1.28578
-1.39192
-1.38567
-1.25227
0.923067
1.27795
1.2844
0.662504
0.653638
0.838948
-1.19672
-1.15865
-1.15257
-1.23961
-1.2794
-1.33817
-1.34111
-1.29382
-1.34949
-1.34766
-1.34403
-1.34665
-1.29024
0.82167
0.675047
0.667344
-1.22835
-1.36619
-1.37221
-1.14365
-1.47662
-1.49452
0.216637
0.215896
0.633704
0.623556
0.955291
0.218473
0.217351
-0.551757
-0.533076
-0.883573
-0.533643
-0.484153
0.423797
0.394153
0.397874
0.447035
0.440732
0.385274
0.389822
0.408879
0.40381
0.461221
-0.500769
-0.491537
-0.543319
0.364283
0.363918
0.532557
-0.832137
-0.420859
-0.442976
-0.593089
-0.636663
-0.689461
-0.674602
-0.767805
-0.751438
-0.769158
-0.729381
-0.547405
-1.13364
-1.13696
-1.18732
-1.19011
-1.13643
-1.13866
-1.2631
-1.26156
-1.10903
-1.1068
-1.16198
-1.15754
-1.10468
-1.10373
-0.710082
-0.719162
-0.687847
-0.694553
-0.642735
-0.728937
-0.737767
-1.06807
-0.896821
-0.890032
0.430387
0.46306
0.520558
0.520756
0.549528
0.543058
0.481113
0.502357
0.50566
0.517669
0.500986
0.461475
0.701708
0.70748
0.521858
0.469358
0.404347
0.407599
0.430159
-0.797055
-0.785734
0.655477
0.662235
0.851684
0.508182
0.510573
-1.22635
-1.21616
-1.36994
-1.36418
-1.23254
-1.2479
-1.37955
-1.37455
0.836977
0.653576
0.654691
-1.19969
-1.21458
-1.3548
-1.35466
-1.30018
-1.30042
-1.35454
-1.35467
0.434891
0.484079
0.538739
0.539874
0.518191
0.516885
0.458351
0.679009
0.676569
0.824402
0.501299
0.497823
0.508765
0.515368
0.469891
0.52205
0.520397
0.493951
0.491215
-1.3542
-1.35961
-1.22333
-1.20546
-1.34277
-1.34904
0.508026
0.65919
0.665514
0.648583
0.652936
0.503544
-0.592836
-0.738906
-0.776566
-0.726266
-0.732905
-0.590429
-0.623746
-0.684344
-0.684315
-0.544513
-0.505827
-0.589811
0.192885
0.22826
0.241229
0.219098
0.548799
0.378305
0.367609
0.384369
0.380254
0.520603
-0.057752
-0.0871476
-0.284074
-0.280017
-0.45518
0.403161
0.43198
0.369548
0.281355
0.279084
0.332288
0.333249
0.171661
0.306719
0.262275
0.255959
0.259283
0.261836
0.310242
0.10702
-0.147983
-0.184721
-0.332484
-0.0718547
-0.115811
-1.15148
-1.15692
-1.19926
-1.03568
-1.06392
-1.06723
-1.07516
-1.06855
-1.25498
-1.25569
-1.03259
-1.04025
-1.01837
-1.02444
-1.17362
-1.12992
-1.12177
-0.235188
-0.180651
-0.169927
-0.193391
-0.189239
-0.239232
-1.00148
-1.04588
-1.03869
-1.06331
-1.055
-1.01347
-1.24175
-1.21847
-1.18504
-1.18461
-1.28286
-1.3406
-1.33809
-1.16944
-1.16426
-1.19663
-1.23676
-1.33146
-1.33502
-1.2759
-1.35226
-1.35086
-1.29536
-1.29303
-1.34889
-1.35056
-0.983204
-1.02277
-1.01673
-1.0141
-1.0201
-0.975905
0.214819
0.213741
0.221373
0.21902
0.326863
0.270954
0.271864
-0.117672
-0.119304
-0.219522
-0.156161
-0.165241
-0.161218
-0.155587
-0.21838
-0.439043
-0.456244
-0.514156
-0.382378
-0.199839
-0.278967
-0.23842
-0.34534
-0.320811
-0.252053
-0.323477
-0.38031
-0.388722
-0.373978
-0.375177
-0.314978
-0.361059
-0.396738
-0.400488
-0.397701
-0.403175
-0.356402
0.39882
0.466179
0.436335
0.382295
0.376945
0.399139
0.391694
0.420268
0.445008
0.399762
0.395007
0.297935
0.293775
0.403371
0.403674
0.348748
0.377259
0.380747
0.438777
0.357217
0.357988
0.349934
0.454192
0.385565
0.376574
-0.469526
-0.475805
-0.531549
-0.428857
-0.434146
-0.408778
-0.419028
-0.536867
-0.48151
-0.473204
0.305482
0.251828
0.255811
0.244709
0.247783
0.303479
-0.719165
-0.703556
-0.647829
-0.707559
-0.742357
-0.733861
-1.1074
-1.18619
-1.13971
-1.14566
-1.08981
-1.08275
-1.10307
-1.09713
-1.26112
-1.26194
-1.06453
-1.07156
-1.04854
-1.05683
-1.15802
-1.10098
-1.09391
-1.1144
-1.10812
-1.15753
-1.0765
-0.700631
-0.703234
-0.652955
-0.701986
-0.706401
-0.846271
-0.795706
-0.785656
-0.815645
-0.806453
-0.854667
-0.836951
-0.781438
-0.77744
-0.778209
-0.775572
-0.836282
-0.742627
-0.312315
-0.370607
-0.374086
-0.247163
-0.258707
0.424713
0.519666
0.519145
0.458995
0.464894
0.533439
0.524623
0.494405
0.49825
0.561728
0.559343
0.622226
0.494232
0.492278
0.400799
0.399947
0.460231
0.368668
0.434971
0.395113
0.401218
-0.979771
-1.03207
-1.02709
-1.03579
-1.0346
-0.979043
-0.951259
-0.942144
-0.888421
-0.83765
-0.851904
-0.825593
-0.829742
-0.882345
-0.910964
-0.863572
-0.871028
-0.903567
0.559906
0.55895
0.593945
0.543167
0.544808
0.531598
0.568414
0.563564
0.564154
0.561829
0.562949
0.591506
0.529865
0.533015
0.531493
0.529821
0.589838
0.620968
0.563682
0.563476
0.539978
0.559731
0.615843
0.510972
0.502751
0.598481
0.54237
0.540412
0.546082
0.544217
0.59987
0.593217
0.536075
0.533416
0.538319
0.53651
0.594161
-1.23094
-1.21243
0.59824
0.546641
0.548722
0.542506
0.544251
0.598184
0.556433
0.547695
0.539755
0.573651
0.589373
0.528041
0.531425
0.528213
0.525917
0.593204
0.594869
0.538847
0.540744
0.534632
0.537105
0.593484
0.564036
0.563735
0.565649
0.56408
0.557087
0.555936
0.561034
0.561118
-1.19459
-1.21959
-1.30002
-1.3544
-1.35345
-1.35222
-1.35358
-1.29904
0.43651
0.533394
0.537385
0.48181
0.454754
0.518745
0.525295
0.507831
0.504614
0.617949
0.559654
0.561932
0.614757
0.5596
0.543848
0.563139
0.562884
0.616432
0.5147
0.511063
0.519904
0.522208
0.473161
0.491251
0.505766
-0.943592
-0.998593
-1.0008
-0.987786
-0.993658
-0.93668
-0.889794
-0.89853
-0.860536
-0.828852
-0.824258
-0.862891
-0.94976
-1.00097
-1.00687
-0.999723
-0.998502
-0.943279
0.333038
0.386411
0.384141
0.391586
0.389215
0.337322
0.333759
0.396061
0.401442
0.384317
0.388754
0.324769
0.298727
0.363559
0.36416
0.359822
0.362314
0.346568
0.390227
0.392504
0.366294
0.376131
0.342089
-0.680891
-0.684347
-0.629302
-0.552805
-0.584446
0.214239
0.217777
0.315661
0.254468
0.244831
0.271888
0.268734
0.321741
0.224401
0.223912
-0.100026
-0.111071
3.23148
2.0958
2.31501
1.64273
0.278119
0.493422
-0.179401
-1.57192
-1.33916
-2.04332
-3.20629
-3.1951
5.08597
3.95459
4.16246
3.50053
2.13578
2.10154
1.68102
0.207434
0.283957
-0.0219776
-1.58788
-1.57945
-2.06206
-3.47135
-3.44711
-3.93265
-5.0777
-5.0661
5.08546
3.9509
3.95671
3.49916
2.04039
2.14742
1.82848
1.16373
1.1285
0.0165092
-0.745308
-0.751398
-1.97407
-2.55932
-2.5461
-3.96701
-5.10261
-5.08912
5.07265
3.92576
3.94611
3.48525
3.03012
3.04042
1.79894
1.5751
1.58858
-2.07551
-2.75039
-2.72159
-4.00835
-5.12765
-5.11513
5.05732
3.90378
3.91911
3.45209
2.98883
2.99749
1.71322
1.47718
1.48568
-2.17382
-2.8193
-2.79666
-4.03672
-5.14604
-5.1384
5.05077
3.8992
3.90105
3.43667
2.97186
2.97336
1.68241
1.44492
1.4456
-2.19696
-2.83819
-2.83645
-4.03424
-5.14703
-5.14912
5.05452
3.90994
3.90082
3.44284
2.98163
2.97725
1.70208
1.46911
1.46419
-2.14737
-2.80382
-2.82004
-4.00416
-5.12906
-5.14009
5.06407
3.92673
3.91402
1.74533
1.51749
1.51064
-2.07047
-2.74312
-2.76695
-3.9615
-5.09988
-5.11523
5.07375
3.93983
3.93076
-1.9965
-2.57196
-2.58714
-3.92014
-5.06785
-5.08386
5.06897
4.15235
4.16242
3.4622
2.10431
2.11909
1.77051
1.09869
1.10612
0.034645
-0.305305
-0.348802
-2.03363
-3.42399
-3.45211
-4.11813
-5.03477
-5.05186
5.05231
4.14168
4.14475
3.23174
2.09457
2.10176
1.63922
0.268961
0.288041
-0.188943
-1.56904
-1.56683
-2.02884
-3.17995
-3.41843
-4.10046
-5.02039
-5.0248
3.22725
2.31693
2.31955
1.40118
0.492173
0.264062
-0.421955
-1.34399
-1.56998
-2.25868
-3.17894
-3.17776
1.49527
1.5061
1.73955
-1.90213
-1.63238
-1.65639
-1.56182
-1.5828
-1.81486
1.4472
1.44978
1.68746
-1.98005
-1.718
-1.72443
-1.66334
-1.68229
-1.94255
1.45957
1.45537
1.6904
-1.96959
-1.70732
-1.69601
-1.72546
-1.72707
-1.98666
1.50412
1.49806
1.72788
-1.89931
-1.62741
-1.6676
-1.69143
-1.67684
-1.94746
-1.81574
-1.58978
-1.57918
-1.65744
-1.64576
-1.86813
1.11026
1.13325
1.79728
0.16647
0.301025
0.294519
-0.060285
-0.0908694
0.105127
-1.5687
-1.55804
-1.78595
1.11343
1.17384
1.82943
0.421408
0.455411
0.481546
0.900214
0.941071
0.26373
0.258833
0.352826
-1.765
-1.52538
-1.54152
-0.994347
-0.994856
-1.73461
3.00758
3.01872
3.47635
1.99247
2.56206
2.54801
2.58986
2.57658
2.00275
-1.02206
-0.886063
-0.915811
-0.768828
-0.793779
-0.914974
-2.78925
-2.75993
-2.09124
-3.54937
-3.09956
-3.11584
-3.06589
-3.08243
-3.53594
2.97667
2.98185
3.44614
1.93156
2.51653
2.51058
2.53541
2.52483
1.93628
1.46327
1.46974
1.70635
0.926366
1.04643
1.04317
1.07151
1.0665
0.947026
-1.11933
-1.11946
-1.17046
-2.83617
-2.82323
-2.18076
-3.59102
-3.15239
-3.15914
-3.13047
-3.14283
-3.58344
2.97401
2.97212
3.43641
1.92047
2.50652
2.50932
2.50699
2.50569
1.91905
1.44649
1.44523
1.68252
0.906621
1.02814
1.0296
1.02652
1.02601
0.904535
-2.82605
-2.83487
-2.19416
-3.59732
-3.16058
-3.15505
-3.16276
-3.16323
-3.59965
2.99285
2.98694
3.44692
1.94779
2.52633
2.5338
2.51376
2.51953
1.94308
1.48002
1.47444
1.70681
0.948802
1.2988
1.30742
1.05303
1.05598
0.938376
-1.13693
-1.0751
-1.07332
-2.77513
-2.7963
-2.13835
-3.56793
-3.12513
-3.11211
-3.147
-3.13695
-3.57776
-1.01253
-0.873967
-0.864013
-1.02712
-1.02351
-1.07896
-2.60347
-2.6186
-2.06092
-3.52069
-3.06993
-3.05574
-3.09828
-3.08405
-3.53312
-0.90978
-0.794663
-0.788973
-0.833374
-0.826701
-0.940355
1.20099
1.0956
1.65576
0.19441
0.871295
0.862591
0.506436
0.501334
0.151933
-0.74637
-0.73861
-0.0355838
-1.57018
-0.97607
-1.09698
-1.02367
-0.983901
-1.70054
0.961712
1.08215
1.07661
1.3602
1.33836
0.981295
1.75002
1.51809
1.53145
0.877917
0.720954
0.736844
0.981986
0.87273
0.889893
0.778009
0.790531
0.909742
-1.15958
-1.1096
-1.11605
-1.02839
-1.037
-1.08891
-1.64994
-1.66927
-1.8874
-1.17515
-1.28077
-1.26698
-1.34166
-1.33372
-1.22948
0.906424
1.02816
1.02717
1.04012
1.03705
0.915749
1.69079
1.45329
1.45781
0.827513
0.767061
0.770595
0.750629
0.750867
0.814277
0.772886
0.774573
0.834259
-1.7053
-1.71552
-1.9751
-1.27298
-1.3198
-1.31666
-1.22912
-1.35749
-1.35025
-1.31448
-1.31014
-1.26192
-1.9527
-1.68744
-1.70161
0.92885
1.04683
1.04986
1.03161
1.0338
0.91463
1.68739
1.4517
1.44872
0.82002
0.758558
0.755143
0.784704
0.782287
0.842616
0.812806
0.750338
0.750599
0.752497
0.750994
0.815423
-1.71983
-1.71109
-1.97537
-1.2989
-1.30198
-1.2521
-1.98589
-1.72633
-1.72238
0.851354
0.706405
0.699546
0.759519
0.756063
0.872103
0.848778
0.789106
0.787211
0.697676
0.692052
0.839823
-1.08865
-1.03245
-1.03008
-1.07536
-1.07729
-1.13134
-1.65018
-1.63335
-1.9096
-1.1803
-1.31788
-1.32367
-1.28013
-1.28637
-1.17599
-1.23949
-1.29027
-1.29445
-1.32941
-1.33586
-1.20062
-1.93866
-1.67157
-1.65576
0.922139
0.811089
0.807064
0.830037
0.827051
0.93807
0.884633
0.76891
0.763839
0.802737
0.797796
0.909514
-0.95981
-0.846754
-0.840048
-0.860654
-0.851211
-0.992872
-1.1566
-1.26742
-1.27383
-1.45279
-1.47054
-1.13734
-1.85743
-1.63424
-1.62299
0.974465
0.649418
0.637608
0.616699
0.645306
0.971318
0.946833
0.835918
0.832917
-0.878715
-0.522978
-0.494252
1.54581
1.56059
1.78624
1.05275
1.39164
1.36762
1.3697
1.35321
1.06579
-0.316816
-0.348022
-0.41738
1.9888
2.55766
2.56508
2.5417
2.54974
1.98371
1.53083
1.52426
1.75128
1.01231
1.29752
1.30502
1.28198
1.28975
1.00764
-0.497254
-0.437265
-0.434555
-0.459921
-0.458735
-0.516905
-2.54424
-2.55786
-1.9884
0.599605
0.549518
0.572919
0.426274
0.437843
0.508688
-1.07385
-1.41761
-1.38238
-1.46913
-1.43069
-1.09365
-1.83359
-1.60541
-1.62806
0.978646
1.3241
1.27564
1.31103
1.32042
0.974855
1.72229
1.49182
1.48584
0.515002
0.458822
0.457604
0.465312
0.462247
0.520681
-0.528388
-0.471174
-0.4644
-1.61181
-1.60074
-1.82603
-1.09198
-1.42908
-1.44693
-1.35207
-1.42344
-1.08558
0.527648
0.47139
0.46855
0.481139
0.479341
0.535769
-1.04193
-1.32993
-1.34153
-1.3088
-1.31897
-1.03609
-1.77647
-1.54785
-1.53824
0.571589
0.609797
0.28534
1.02435
0.712177
0.677134
0.708501
0.721053
1.02449
-0.85908
-0.726964
-0.746362
-0.427303
-0.415923
-0.822488
0.153073
-0.275438
-0.298827
-0.838465
-0.875203
-1.0024
-0.526347
-0.668028
-0.639201
-0.658345
-0.641643
-0.587344
-0.938126
-0.820295
-0.84445
-0.886171
-0.876379
-1.01904
-1.06156
-1.00613
-1.00304
-0.472351
-0.413304
-0.409844
-0.432623
-0.429527
-0.488454
-0.568514
-0.71264
-0.719383
-0.698911
-0.705762
-0.564582
-0.933954
-0.820037
-0.8134
0.705598
0.716648
0.868899
0.846274
0.68815
0.7014
0.495045
0.561081
0.554761
0.613631
0.60284
0.537411
0.92302
0.805406
0.819977
-1.07833
-1.08313
-1.13574
-1.119
-1.06732
-1.07304
0.752118
0.752771
0.817938
0.815546
0.751687
0.751938
0.782691
0.784511
0.847013
0.840944
0.780055
0.781394
-1.32224
-1.31944
-1.25954
-1.60869
-1.50412
-1.50723
-1.49757
-1.50018
-1.6053
-1.62039
-1.5152
-1.51724
-1.51006
-1.51278
-1.61782
-1.26892
-1.32866
-1.32529
-1.29425
-1.29113
-1.23925
-1.57163
-1.46812
-1.47399
-1.45461
-1.46167
-1.56524
-1.59305
-1.48903
-1.4936
-1.47922
-1.4842
-1.58824
-1.24268
-1.29694
-1.29467
0.772521
0.771349
0.830238
0.834073
0.774738
0.77374
0.749389
0.749649
0.812816
0.812392
0.749332
0.749411
-1.31567
-1.31957
-1.25653
-1.61371
-1.50407
-1.4998
-1.51171
-1.50811
-1.61738
-1.59624
-1.48872
-1.48694
-1.4956
-1.49201
-1.60109
-1.24399
-1.30793
-1.31169
-1.62718
-1.52071
-1.52084
-1.51888
-1.52008
-1.62625
-1.62517
-1.51731
-1.51485
-1.5203
-1.51919
-1.62672
0.743524
0.708823
0.855384
0.500711
0.556382
0.558189
0.540534
0.541442
0.480548
0.867478
0.751472
0.746899
0.835742
0.68954
0.680565
-1.0546
-1.05173
-1.10633
-1.11323
-1.05811
-1.0564
-1.27065
-1.27142
-1.2177
-1.57488
-1.46759
-1.46188
-1.48072
-1.47392
-1.58025
-1.55288
-1.44496
-1.43907
-1.45641
-1.4508
-1.55862
-1.21361
-1.26745
-1.26884
0.50153
0.445465
0.445774
0.455812
0.452878
0.510242
0.780154
0.774494
0.889451
0.518125
0.5774
0.581101
0.559327
0.560515
0.500888
0.544126
0.685883
0.691461
0.671901
0.678955
0.539347
0.904541
0.79206
0.786014
0.472914
0.414454
0.411827
0.444977
0.442685
0.496368
-0.860004
-0.853459
-0.966254
-0.601142
-0.658536
-0.66139
-0.639093
-0.642837
-0.585438
-0.663196
-0.665587
-0.604085
-0.986316
-0.873108
-0.866707
0.531621
0.391355
0.385565
0.405472
0.394646
0.536451
0.542108
0.485184
0.483147
-0.423248
-0.278241
-0.26158
-0.40666
-0.403654
-0.462206
2.13423
2.5827
2.58347
2.57185
2.57786
2.0181
1.12311
1.34508
1.34967
1.33529
1.3402
1.11758
-0.262321
-0.257974
-0.0191214
-0.749558
-0.498333
-0.497968
-0.485981
-0.513558
-0.768576
1.04366
1.32458
1.33015
1.31208
1.31859
1.04054
1.76824
1.54306
1.53712
0.226596
0.236194
0.202561
0.519646
0.409778
0.387752
0.402578
0.406081
0.513764
-0.373964
-0.24145
-0.220306
-0.251037
-0.254624
-0.383518
0.118645
-0.0156088
-0.0447741
0.423407
0.486869
0.334404
0.633158
0.539139
0.52359
0.513773
0.534271
0.63293
-0.351811
-0.270187
-0.290747
-0.126404
-0.0716398
-0.281127
0.265967
0.0144808
0.0268286
1.05345
1.04977
0.929582
1.28888
1.16971
1.17353
1.16315
1.16648
1.28655
-1.1728
-1.11912
-1.1206
1.02634
1.02701
0.905487
1.26644
1.14711
1.1466
1.14943
1.14826
1.26825
1.26578
1.14621
1.14688
1.14606
1.14617
1.26657
0.904363
1.02586
1.02589
-1.08668
-1.08018
-1.14152
-0.806848
-0.800565
-0.915425
-0.56983
-0.685797
-0.692284
-0.673547
-0.679546
-0.563807
0.883642
0.662947
0.613933
0.652828
0.657818
0.879717
0.213655
0.433009
0.427787
0.836533
0.85452
0.967265
0.602642
0.743339
0.720971
0.786218
0.766061
0.619375
-1.09525
-1.10213
-1.15422
-1.30453
-1.29312
-1.18825
-1.50334
-1.39788
-1.40915
-1.37349
-1.38623
-1.49317
-1.54259
-1.43835
-1.44672
-1.41949
-1.42937
-1.53398
-1.22023
-1.32461
-1.31495
1.03071
1.02927
0.907427
1.26932
1.1497
1.15138
1.14745
1.14863
1.26914
1.27697
1.15748
1.16039
1.15297
1.15523
1.27572
0.912404
1.03448
1.03233
0.758555
0.762672
0.825317
0.636116
0.699453
0.693424
0.711598
0.706809
0.648413
0.623296
0.687265
0.687277
0.687302
0.68721
0.62294
0.813943
0.750936
0.751264
0.657863
0.715554
0.714295
0.716592
0.716142
0.65765
0.835034
0.775657
0.776834
-1.31863
-1.32023
-1.27161
-1.42212
-1.37413
-1.37345
-1.44308
-1.38895
-1.39085
-1.38535
-1.38736
-1.44252
1.27135
1.15294
1.15122
1.15716
1.15512