/*--------------------------------*- C++ -*----------------------------------*\
| =========                 |                                                 |
| \\      /  F ield         | OpenFOAM: The Open Source CFD Toolbox           |
|  \\    /   O peration     | Version:  5.x                                   |
|   \\  /    A nd           | Web:      www.OpenFOAM.org                      |
|    \\/     M anipulation  |                                                 |
\*---------------------------------------------------------------------------*/
FoamFile
{
    version     2.0;
    format      ascii;
    class       volScalarField;
    location    "500";
    object      p_rgh;
}
// * * * * * * * * * * * * * * * * * * * * * * * * * * * * * * * * * * * * * //

dimensions      [0 2 -2 0 0 0 0];

internalField   nonuniform List<scalar> 
6584
(
0.00505009
0.00545105
0.00593112
0.00664679
0.00755755
0.00872361
0.0101231
0.0117609
0.0134435
0.0150319
0.0160065
0.015819
0.0140907
0.0109506
0.0069928
0.00291404
-0.000746742
-0.00384431
-0.00630588
-0.0082055
-0.00961681
-0.010663
-0.0113427
-0.0118828
0.00490907
0.00534821
0.00580032
0.00651067
0.00740248
0.00857237
0.0099953
0.0117274
0.0135531
0.0153693
0.0165784
0.0165448
0.0147558
0.0113551
0.00710109
0.00271171
-0.00108379
-0.00422676
-0.00666153
-0.00851271
-0.00986463
-0.0108752
-0.0115011
-0.0120775
0.00460625
0.00505409
0.00545354
0.00612876
0.00697169
0.00813663
0.00961979
0.0116184
0.0137786
0.0157632
0.0182277
0.0192086
0.0177887
0.0138877
0.00866789
0.00200675
-0.00211332
-0.00533356
-0.00767295
-0.00936448
-0.0105513
-0.0114371
-0.0119471
-0.0124947
0.00420835
0.0046248
0.00494642
0.00554275
0.00628824
0.00738757
0.00890967
0.0111868
0.0142063
0.0171035
0.0212195
0.0238599
0.0226041
0.0168691
0.00942538
0.00276229
-0.00386711
-0.00716003
-0.00926686
-0.0106553
-0.0115707
-0.0122403
-0.0125819
-0.0130264
0.00374611
0.00409104
0.00430471
0.00475988
0.00533022
0.00622974
0.00763604
0.00997764
0.0128559
0.0181562
0.0248674
0.0310476
0.030454
0.0207426
0.00900578
0.000254148
-0.00523623
-0.00997228
-0.0115664
-0.012368
-0.012874
-0.0132187
-0.0133409
-0.0136132
0.00324663
0.00347989
0.0035532
0.00379067
0.00407754
0.00451908
0.00550517
0.00701844
0.010864
0.016878
0.0267627
0.0431345
0.0485587
0.0290652
0.00573566
-0.00530844
-0.0103413
-0.0136775
-0.0144364
-0.0144172
-0.0143828
-0.0143008
-0.0141602
-0.0141977
0.00274969
0.00283826
0.00274934
0.00270635
0.00262615
0.00243262
0.00270038
0.00359004
0.00548127
0.0103653
0.023511
0.0547136
0.0947391
0.0300494
-0.00274047
-0.0159558
-0.0177181
-0.0184087
-0.0177423
-0.0166589
-0.0159636
-0.0153778
-0.0149506
-0.0147074
0.00230069
0.00222797
0.00197656
0.00162721
0.00113271
0.000202883
-0.000628436
-0.000879275
-0.00238829
-0.00325418
0.00122696
0.0226895
-0.0149875
-0.0323207
-0.0322788
-0.0272835
-0.0235744
-0.0210871
-0.0188219
-0.0174165
-0.0163089
-0.0156056
-0.0150651
0.00194211
0.00171537
0.00133043
0.000708529
-0.000161825
-0.00174977
-0.00371407
-0.00549643
-0.0108634
-0.0200753
-0.0335752
-0.0694498
-0.12865
-0.0726626
-0.0496657
-0.0366174
-0.0280267
-0.0237809
-0.0205079
-0.0184903
-0.0169382
-0.0160163
-0.0152018
0.0017055
0.00135824
0.000899046
0.000106241
-0.000987466
-0.00291864
-0.005587
-0.00853239
-0.0160931
-0.029983
-0.053204
-0.107015
-0.17997
-0.0964215
-0.0594318
-0.0421012
-0.0304065
-0.025096
-0.0213168
-0.0189497
-0.0171293
-0.0160918
-0.0150685
0.00160347
0.00118916
0.000731877
-8.94748e-05
-0.00118696
-0.00302807
-0.00569392
-0.00892222
-0.0159328
-0.0283074
-0.0488038
-0.0897538
-0.158097
-0.0914833
-0.0572125
-0.0415954
-0.0299217
-0.0246454
-0.021031
-0.0186671
-0.0168102
-0.0157852
-0.014648
0.00162602
0.00120464
0.000820127
0.000106526
-0.000791558
-0.00217725
-0.00420397
-0.00682265
-0.0111696
-0.0177907
-0.0279621
-0.0437495
-0.0935997
-0.0654388
-0.0454143
-0.0357558
-0.026818
-0.0225805
-0.0197038
-0.0176757
-0.0160012
-0.0151081
-0.0139614
0.00174372
0.00136732
0.00110207
0.000585894
8.12095e-06
-0.000752713
-0.00182867
-0.00333532
-0.00450575
-0.00479581
-0.00392792
0.00454647
-0.0284777
-0.0341692
-0.0301497
-0.027205
-0.0221584
-0.0194919
-0.0176272
-0.0161474
-0.0148109
-0.0141264
-0.0130618
0.00191684
0.00162002
0.00148841
0.00119772
0.000957241
0.000792305
0.00058398
0.00133488
0.00124211
0.00533897
0.0117844
0.0327977
0.0937206
0.012371
-0.0104881
-0.0168907
-0.0187272
-0.0171794
-0.0160753
-0.0151939
-0.0143234
-0.0133805
-0.0129393
-0.0120197
0.00210555
0.00190301
0.00189192
0.00180406
0.00184174
0.00210173
0.00252731
0.00373164
0.0049673
0.00979569
0.0168836
0.0307189
0.0404685
0.0180017
-0.000169104
-0.00820029
-0.0114583
-0.0127054
-0.0128566
-0.0127499
-0.012427
-0.0118548
-0.0116506
-0.0109081
0.00227712
0.00216741
0.00224817
0.00231497
0.00254158
0.00304656
0.00378822
0.005324
0.00676728
0.0105988
0.016222
0.0212052
0.0205292
0.012767
0.00350514
-0.0034557
-0.00773607
-0.00933641
-0.0101583
-0.0105319
-0.0106229
-0.0103608
-0.0103525
-0.00979518
0.00240948
0.00238109
0.00252049
0.00269002
0.0030158
0.00363106
0.00442708
0.0060091
0.00779475
0.00964042
0.0125651
0.0143287
0.016336
0.0103889
0.00394674
-0.00110529
-0.0048691
-0.00682743
-0.00797259
-0.00863209
-0.00899882
-0.00896568
-0.00910603
-0.0087211
0.0024908
0.00252784
0.0026953
0.00292293
0.00327365
0.00389877
0.00459556
0.00590866
0.00727013
0.00934014
0.0098291
0.0122175
0.00939309
0.00741556
0.00272961
-0.000661047
-0.00295922
-0.00505837
-0.006257
-0.00706758
-0.00758967
-0.00771573
-0.00795399
-0.0077181
0.00251771
0.00260406
0.00277563
0.00302926
0.00335576
0.00393837
0.00447346
0.0055413
0.00618527
0.00799188
0.00630839
0.00908419
0.0087823
0.00305833
0.00260954
-0.000492699
-0.00209097
-0.0039152
-0.00497675
-0.0058232
-0.00640143
-0.00662875
-0.00691989
-0.00680679
0.00249265
0.00261449
0.00277412
0.00303509
0.00331195
0.00384156
0.00420467
0.00513309
0.00530044
0.00695788
0.00581554
0.00717253
0.0066201
0.0027504
0.00238519
-0.000378315
-0.00148767
-0.00311214
-0.00401051
-0.00483952
-0.00541182
-0.00569943
-0.00600958
-0.00599405
0.00242142
0.00256806
0.00270627
0.00296531
0.0031811
0.00366242
0.00386782
0.00469402
0.00458683
0.0059303
0.00496688
0.00523841
0.00472448
0.00220937
0.00197119
-0.00032862
-0.00107058
-0.00253225
-0.00326766
-0.00405878
-0.00459059
-0.00491244
-0.00521807
-0.0052783
0.00231133
0.00247503
0.00258697
0.0028403
0.00299213
0.00343136
0.00350299
0.00423085
0.00395522
0.00500148
0.00412067
0.00400201
0.00358786
0.00167618
0.00154847
-0.000339073
-0.000817677
-0.00211831
-0.0026964
-0.00343884
-0.00391049
-0.00424969
-0.00453538
-0.00465331
0.00217019
0.00234566
0.00242988
0.00267684
0.00276792
0.00317174
0.00313874
0.00378015
0.00341361
0.00424591
0.00347036
0.00314241
0.00279666
0.00127059
0.00120123
-0.000365398
-0.0006632
-0.0018151
-0.00225399
-0.00294415
-0.00334678
-0.00369252
-0.00394898
-0.00411015
0.0020056
0.00218948
0.00224683
0.00248836
0.00252558
0.00290061
0.00279065
0.00335941
0.00295227
0.00362363
0.0029423
0.00247786
0.00218731
0.000944971
0.000914471
-0.000393868
-0.000565175
-0.00158451
-0.00190619
-0.00254489
-0.0028774
-0.00322307
-0.0034456
-0.00363859
0.00182454
0.00201476
0.00204747
0.00228504
0.00227675
0.00262853
0.00246473
0.00297229
0.00255469
0.00310187
0.00250497
0.00195869
0.00171618
0.000679697
0.000677033
-0.000420385
-0.000501618
-0.00140337
-0.00162805
-0.00221793
-0.00248344
-0.00282491
-0.00301199
-0.0032279
0.00163324
0.00182848
0.00183947
0.00207449
0.00202924
0.00236224
0.00216302
0.00261931
0.00221015
0.00266195
0.00213668
0.00154652
0.00134939
0.000467763
0.000484176
-0.000441511
-0.00045832
-0.00125633
-0.00140157
-0.00194545
-0.00214921
-0.00248377
-0.00263597
-0.00286782
0.00143703
0.00163636
0.00162874
0.00186223
0.00178799
0.00210563
0.00188533
0.00229905
0.0019101
0.00229186
0.00182617
0.00122055
0.00106506
0.000298405
0.000329009
-0.000456168
-0.000426126
-0.00113226
-0.0012127
-0.00171392
-0.00186192
-0.00218782
-0.00230674
-0.00254864
0.00124051
0.00144302
0.00141976
0.0016522
0.00155592
0.00186069
0.00163025
0.00200899
0.00164611
0.00197743
0.00156532
0.000959454
0.000834371
0.000156858
0.000205474
-0.000461974
-0.00039662
-0.00102163
-0.00104949
-0.00151114
-0.00160997
-0.00192564
-0.00201388
-0.00226108
0.00104757
0.00125207
0.00121583
0.00144697
0.00133463
0.001628
0.00139556
0.00174608
0.00141139
0.00170561
0.00134151
0.000742348
0.00064613
4.44139e-05
0.000109257
-0.000459432
-0.000366596
-0.000919597
-0.000904319
-0.00132886
-0.00138458
-0.00168857
-0.00174875
-0.0019972
0.000861544
0.00106637
0.0010194
0.00124821
0.00112457
0.00140711
0.00117828
0.00150558
0.00120075
0.00146792
0.00114728
0.000560285
0.000491728
-4.37125e-05
3.60617e-05
-0.000448136
-0.000333443
-0.000821926
-0.000771176
-0.00116027
-0.00117832
-0.00146887
-0.00150351
-0.00174935
0.000685313
0.000887943
0.000832093
0.00105656
0.000925575
0.00119738
0.000975211
0.0012818
0.00100788
0.00125583
0.000975651
0.000406196
0.000364377
-0.000111069
-1.71537e-05
-0.000427258
-0.000295177
-0.000724875
-0.000645069
-0.00099974
-0.000985157
-0.00125994
-0.00127157
-0.00151058
0.000521698
0.000718395
0.000655417
0.000871978
0.000737486
0.000996835
0.000784371
0.00107111
0.000828119
0.00106194
0.000820399
0.00027476
0.0002586
-0.00015985
-5.28698e-05
-0.000396151
-0.000250765
-0.000625664
-0.000522868
-0.000842831
-0.000800592
-0.0010565
-0.00104763
-0.00127495
0.000372981
0.000557837
0.000489936
0.000693246
0.000558826
0.000800394
0.000602049
0.000866637
0.000655345
0.0008772
0.000674396
0.000162601
0.000171141
-0.00018901
-7.17504e-05
-0.000352403
-0.000199462
-0.00052082
-0.000401993
-0.000684686
-0.000620552
-0.000852441
-0.000826035
-0.00103502
0.000243325
0.000408692
0.000338955
0.000521865
0.000392418
0.000609117
0.000430095
0.000667029
0.000488997
0.000697152
0.000531723
6.78139e-05
9.76492e-05
-0.000198704
-7.65955e-05
-0.000296331
-0.00014379
-0.000410426
-0.000284498
-0.00052552
-0.000446969
-0.00064832
-0.00060856
-0.000791284
0.00012976
0.000257139
0.000193921
0.000337033
0.000227352
0.000397467
0.000253586
0.000440386
0.000306308
0.00048329
0.000367312
-1.87981e-06
4.27489e-05
-0.000170495
-6.0621e-05
-0.00021191
-8.04323e-05
-0.000276861
-0.000163385
-0.000344291
-0.000266612
-0.000418968
-0.000374613
-0.000512269
5.81494e-05
0.000148826
9.77798e-05
0.000202041
0.000117885
0.000242624
0.000136941
0.000275354
0.000181561
0.000322575
0.000212185
-5.50647e-05
-2.19915e-05
-0.000140551
-5.11752e-05
-0.000142739
-3.8634e-05
-0.000172186
-7.99505e-05
-0.000206108
-0.0001393
-0.000246166
-0.000205561
-0.000300883
-0.06066
-0.127026
-0.0106921
-0.10557
-0.192338
-0.140117
-0.0942039
-0.174287
-0.194643
-0.0501918
-0.107213
-0.167498
-0.000596163
-0.0340649
-0.0977331
0.0313227
0.10404
0.0977088
0.0155494
-0.0259863
0.0332208
0.095592
0.00485584
0.041109
-0.0254634
-0.0533363
0.0182342
-0.101266
0.0381417
-0.117071
-0.071124
-0.0325583
-0.0506114
-0.0956184
-0.0613291
-0.090467
-0.131791
-0.102538
-0.238286
-0.199972
-0.177441
-0.106677
-0.0826306
-0.0519595
-0.0869879
-0.0969758
-0.106231
-0.143728
-0.148591
-0.26883
-0.273481
-0.164458
-0.10732
-0.110214
-0.0340166
-0.0476061
-0.0829928
-0.07436
-0.0916795
-0.11709
-0.17316
-0.215583
-0.102223
-0.0792777
-0.102218
-0.0712071
-0.116402
-0.0358663
-0.0420067
-0.0700557
0.0193106
-0.017525
0.0336832
0.0320406
0.095466
0.0335593
0.0255385
0.017791
-0.0973804
-0.0458104
-0.0283407
-0.050974
-0.104647
0.061397
-0.0408351
-0.196182
-0.113234
-0.0813194
-0.108098
-0.192299
-0.147887
-0.134859
-0.095546
-0.139459
-0.154052
-0.109692
-0.138546
-0.270892
-0.240289
-0.177557
-0.240457
-0.2582
-0.195363
-0.238558
-0.170208
-0.120435
-0.141279
-0.104178
-0.146983
-0.122908
-0.153755
-0.148909
-0.217936
-0.266618
-0.189918
-0.253032
-0.21994
-0.259692
-0.255061
-0.193104
-0.0906471
-0.0602277
-0.120751
-0.0948489
-0.119792
-0.16925
-0.134422
-0.165814
-0.119038
-0.217265
-0.169031
-0.143314
-0.015487
0.00961922
-0.0557773
-0.0199239
-0.0232769
-0.0651322
-0.112917
-0.0708366
-0.0693227
0.0382862
0.0572316
0.0124473
0.0357243
0.0465523
0.0229385
-0.0158928
-0.0353312
0.0547371
-0.053767
0.106073
-0.00951869
-0.00238388
-0.0417404
-0.0241141
-0.0208766
-0.0545931
0.0106867
-0.0128157
0.0102067
-0.0117796
-0.0332508
0.114926
-0.0100394
0.0298557
-0.0942471
-0.0637752
-0.0588907
-0.0876834
-0.0686033
-0.0853245
-0.0699047
0.00268103
0.0156192
-0.0676475
-0.0465664
-0.0165392
-0.0405702
-0.0602288
-0.064885
-0.0247784
0.0171197
0.0298841
-0.0194152
0.015676
-0.00405387
0.158203
0.106429
0.0751004
0.0550802
0.0975923
0.15792
-0.0721791
-0.0452824
-0.0687854
0.0949732
-0.0509007
-0.0249971
-0.227536
-0.224523
-0.275598
-0.275629
-0.194679
-0.197534
-0.0894076
-0.0739813
-0.0932428
0.0363929
0.01368
-0.0136297
0.00907914
-0.000672664
-0.0860874
-0.0788417
-0.111298
-0.0823416
-0.113507
-0.0862031
-0.0767044
-0.0162032
-0.000309063
-0.0238339
-0.0805414
-0.163811
-0.159228
-0.1489
-0.149034
-0.124008
-0.12541
-0.263033
-0.263072
-0.249239
-0.216841
-0.206389
-0.226959
-0.219625
-0.249938
-0.217498
-0.182904
-0.163756
-0.202453
-0.188302
-0.220855
-0.138123
-0.135853
-0.155027
-0.154046
-0.250368
-0.251835
-0.237968
-0.215669
-0.225224
-0.197579
-0.211641
-0.236168
-0.262574
-0.231583
-0.228673
-0.227661
-0.231396
-0.262487
-0.0872677
-0.0785287
-0.0879041
-0.103278
-0.069433
-0.0854352
-0.0740755
-0.11067
-0.105182
-0.106317
-0.141961
-0.145357
-0.195839
-0.177161
-0.192212
-0.155844
-0.171893
-0.191695
-0.0107543
0.00224501
-0.0407259
-0.0456953
-0.066697
-0.0136382
-0.0411996
-0.0354481
-0.0414134
-0.0128395
-0.0409611
-0.0416736
-0.01708
-0.070509
-0.0441892
-0.04714
-0.043308
0.0488885
0.0653652
0.0790744
0.0317046
0.0442879
0.093393
0.0579147
0.0387922
0.203235
0.00921936
0.0235593
0.00235464
0.0182405
0.0303287
0.0127681
0.0645763
0.0458461
0.0487477
0.167347
0.00857721
-0.0166012
-0.0178306
0.00981185
0.0139387
0.0814083
0.0651066
0.0787353
0.0173745
0.0242323
0.0701105
0.0624491
0.0841233
0.239073
0.17252
0.129106
0.12637
0.171644
0.240955
-0.121139
-0.100685
-0.111857
-0.23388
-0.220468
-0.21222
-0.148287
-0.126913
-0.124967
-0.126732
-0.128326
-0.148933
-0.272863
-0.274142
-0.183171
-0.20695
0.0459265
0.0387397
0.00462522
0.012035
0.0314602
0.0584846
0.0517431
0.0657464
0.015044
-0.00413694
0.107561
-0.183441
-0.207377
-0.218755
-0.147602
-0.12165
-0.0885055
-0.156453
-0.130539
-0.158456
-0.144126
-0.122286
-0.127083
-0.113639
-0.121619
-0.142397
-0.144884
-0.158973
-0.15083
-0.166684
-0.165524
-0.151841
-0.149041
-0.144902
-0.132981
-0.268739
-0.24954
-0.245587
-0.228325
-0.227205
-0.247204
-0.242642
-0.255299
-0.122555
-0.117773
-0.133566
-0.144055
-0.152562
-0.157016
-0.155236
-0.168376
-0.166983
-0.160712
-0.165804
-0.151615
-0.231817
-0.261374
-0.247318
-0.238787
-0.243004
-0.206849
-0.215922
-0.228544
-0.261404
-0.250469
-0.247105
-0.245446
-0.248
-0.259445
-0.129454
-0.132219
-0.123344
-0.179917
-0.168409
-0.158224
-0.14507
-0.133999
-0.150375
-0.112399
-0.128408
-0.13837
-0.00372624
-0.000629496
-0.0115421
0.0134561
0.00408275
-0.000361667
0.050273
0.0590609
0.0226582
0.0274884
0.0169311
0.03964
0.0475256
0.0560284
0.0491738
0.00855213
0.150031
0.0336505
0.0134731
0.000377292
0.00200611
0.0157745
-0.000781773
-0.00302791
0.0552738
0.0547111
0.157818
0.0278901
0.0365559
-0.0812183
-0.0760511
0.00611312
0.00882582
0.00775237
0.00790626
0.00432244
0.0161833
0.00918461
0.00937029
-0.0597532
-0.0554819
-0.0262679
-0.029687
0.0218527
0.0232648
0.0191134
0.0261266
0.0311576
-0.108596
-0.0868885
-0.0477142
-0.127502
-0.0979304
-0.118921
-0.232535
-0.215691
-0.274156
-0.275796
-0.18606
-0.204337
-0.0881136
-0.0840761
-0.0941709
-0.0708019
-0.080764
-0.0830615
-0.109383
-0.118916
-0.0973846
-0.105932
0.0266477
0.0346535
0.0429906
0.0168833
0.0302697
0.0238057
0.0296843
0.0173894
-0.100828
-0.0844745
-0.096313
-0.0636544
-0.0799517
-0.0970062
-0.112263
-0.119113
-0.0998679
-0.109774
-0.0541074
-0.0380748
-0.0581904
-0.055196
-0.0629401
-0.182057
-0.204311
-0.180047
-0.193796
-0.159721
-0.13665
-0.190166
-0.165955
-0.140374
-0.160536
-0.177778
-0.162282
-0.15977
-0.145371
-0.160737
-0.165671
-0.154453
-0.160509
-0.169901
-0.170781
-0.16626
-0.16789
-0.151862
-0.16448
-0.162785
-0.133909
-0.140663
-0.121433
-0.131103
-0.149683
-0.15289
-0.142588
-0.148332
-0.13189
-0.143346
-0.137646
-0.268307
-0.259584
-0.236079
-0.229533
-0.247352
-0.254341
-0.242355
-0.236717
-0.14726
-0.153705
-0.142335
-0.156311
-0.15014
-0.169602
-0.157335
-0.141793
-0.129483
-0.148173
-0.142994
-0.168513
-0.168342
-0.154636
-0.172898
-0.173704
-0.17101
-0.173036
-0.170988
-0.168515
-0.173085
-0.171317
-0.153047
-0.166375
-0.168146
-0.241078
-0.25806
-0.230444
-0.23601
-0.24451
-0.230461
-0.2197
-0.227429
-0.251583
-0.249868
-0.262321
-0.260674
-0.249924
-0.250334
-0.093281
-0.0938363
-0.0874304
-0.0830671
-0.0985445
-0.0894409
-0.100219
-0.0718373
-0.0685711
-0.0651182
-0.0803365
-0.0713036
-0.0749116
-0.124619
-0.11722
-0.12641
-0.127183
-0.109661
-0.106981
-0.101495
-0.114395
-0.106829
-0.111793
-0.145016
-0.135584
-0.132903
-0.141656
-0.150187
-0.122228
-0.137875
-0.156096
-0.154801
-0.165287
-0.150063
-0.00370825
-0.00110769
-0.00509199
0.00384617
-0.00061999
-0.00145997
0.00548979
-0.0232688
-0.00724998
-0.0184603
-0.0584644
-0.0582034
-0.0675476
-0.0449083
-0.0551767
-0.0549548
-0.0575039
-0.0604789
0.0625218
0.0750084
0.033676
0.0377402
0.0737487
0.0584716
-0.00194591
-0.0206395
0.00254085
0.00197697
0.0204553
0.036932
0.319655
0.247166
0.21889
0.224398
0.259533
0.325348
0.0329971
0.0780133
0.0448768
-0.0832642
-0.0977422
-0.117035
-0.236453
-0.248664
-0.250371
-0.271425
-0.273633
-0.104137
-0.0957933
-0.106692
-0.227416
-0.224432
-0.212906
-0.120334
-0.110422
-0.106659
-0.0792016
-0.0609343
-0.0790366
-0.115731
-0.107958
-0.099007
-0.129592
-0.153517
-0.134686
-0.11511
-0.12683
-0.118111
-0.269581
-0.252932
-0.255369
-0.242323
-0.259077
-0.257912
-0.256974
-0.223313
-0.218795
-0.232454
-0.130509
-0.114675
-0.107636
-0.128499
-0.137183
-0.128461
-0.22049
-0.231964
-0.229269
-0.264714
-0.251166
-0.25368
-0.25532
-0.260355
-0.261067
-0.260188
-0.257052
-0.25858
-0.257141
-0.11809
-0.124677
-0.127062
-0.209071
-0.200458
-0.204757
-0.0946241
-0.0905576
-0.106891
0.0511995
0.0540811
0.0420982
0.0311512
0.0255973
0.0457094
0.0482648
0.0368716
0.0514537
0.0355545
-0.0427429
-0.037905
-0.0835413
-0.0695049
-0.0714334
-0.0722443
-0.065516
-0.0657759
-0.0675739
-0.048583
-0.0529062
-0.0491954
-0.0414977
-0.0385305
-0.0373904
0.0312711
0.0253008
0.023583
0.0886098
0.146383
0.113236
-0.0857088
-0.0863498
-0.0752008
-0.0596906
-0.143163
-0.13445
-0.0348418
0.00483636
0.0111224
-0.232713
-0.242473
-0.230227
-0.221583
-0.222847
-0.225807
-0.277315
-0.276034
-0.193975
-0.190352
-0.191838
-0.199747
-0.208835
-0.201118
-0.0936016
-0.0963771
-0.070854
-0.0740591
-0.0770125
-0.0990936
-0.102451
-0.103355
-0.106743
-0.0961727
-0.090254
-0.107012
-0.103398
-0.106841
-0.0748126
-0.0804737
-0.0872577
-0.124428
-0.126885
-0.10957
-0.114764
-0.117034
-0.00796086
-0.0320803
-0.0457913
-0.0352137
-0.0382502
-0.0353519
-0.0735325
-0.160835
-0.152659
-0.135712
-0.129409
-0.116716
-0.129578
-0.131491
-0.264036
-0.262978
-0.202546
-0.196517
-0.208541
-0.230195
-0.213837
-0.20836
-0.1308
-0.139394
-0.145205
-0.247684
-0.253317
-0.263361
-0.263378
-0.262737
-0.262868
-0.263233
-0.263197
-0.0892099
-0.0903129
-0.0894088
-0.0871153
-0.102739
-0.100265
-0.102201
-0.114761
-0.122106
-0.114908
-0.12343
-0.121872
-0.132415
-0.130161
-0.106955
-0.107196
-0.104845
-0.121089
-0.120486
-0.189099
-0.195016
-0.205998
-0.181442
-0.176472
-0.182785
-0.0535821
-0.0489327
-0.0435891
-0.0608678
-0.055028
-0.0572107
-0.0309952
-0.0329952
-0.0416271
-0.0204243
-0.0270102
-0.027384
-0.0649199
-0.0648919
-0.0675987
-0.0500255
-0.046141
-0.068824
0.0695533
0.069833
0.0777469
0.0352106
0.0405895
0.0370139
0.0334448
0.0467103
0.0389326
0.0404875
0.0896543
0.0708285
0.0463133
0.0540617
0.0491422
0.130043
0.21998
0.086073
0.0107259
0.0118868
0.0722793
0.0988931
0.10613
0.0202965
0.0214408
0.0185487
0.0257123
0.023626
0.0221432
0.104244
0.0946019
0.0768813
0.15742
0.231856
0.198164
-0.247353
-0.247674
-0.235057
-0.225229
-0.216077
-0.209173
-0.229516
-0.225505
-0.272822
-0.273512
-0.188283
-0.190183
-0.180286
-0.184713
-0.209841
-0.220857
-0.21764
0.0424096
0.045008
0.0482909
0.0388212
0.0426745
0.0398624
-0.210701
-0.19872
-0.195468
-0.206018
-0.202326
-0.214595
-0.268703
-0.243941
-0.255833
-0.260126
-0.255972
-0.256914
-0.255844
-0.246124
-0.236266
-0.223306
-0.264238
-0.250081
-0.252004
-0.249697
-0.262256
-0.261596
-0.260734
-0.258582
-0.259857
-0.260738
-0.17358
-0.166952
-0.172613
-0.160886
-0.163621
-0.170012
0.0565344
0.0586183
0.0401978
0.0422193
0.0420728
0.041472
0.0392497
0.05858
0.0563835
0.0544143
0.0569822
0.0578043
0.0508324
0.0532007
0.0521067
-0.000546214
-0.0151563
-0.0158881
0.01179
0.120831
0.102232
0.139559
0.0404615
0.0590314
0.0810177
0.00513171
0.00628806
0.00243771
0.0136049
0.010263
0.00863389
-0.00730819
-0.00543196
-0.0119946
-0.00113123
-0.00401331
-0.00378291
0.0711162
0.0776288
0.0495382
-0.0061941
-0.0213876
0.0205048
0.0122641
-0.08266
-0.0736912
-0.0732083
-0.0755632
0.0068524
0.00780087
0.00410302
0.0051913
0.00543452
-0.063244
-0.0643204
-0.0631502
-0.0531886
-0.0487925
-0.058017
-0.0516087
-0.0593773
-0.0622991
-0.0246143
-0.0222881
-0.0236664
-0.0226054
-0.0272074
-0.0158066
-0.0191774
-0.033672
-0.0353376
-0.0314255
0.0277177
0.0288917
0.0275084
0.030503
0.0298761
0.0292491
-0.101659
-0.0890592
-0.0960485
-0.131552
-0.125891
-0.112629
-0.243436
-0.231016
-0.244144
-0.24634
-0.233043
-0.232065
-0.236672
-0.234566
-0.276046
-0.276768
-0.198165
-0.202281
-0.192685
-0.195396
-0.188881
-0.18718
-0.184238
-0.214808
-0.21173
-0.202005
-0.210343
-0.0839452
-0.0904141
-0.0797614
-0.0772825
-0.0804376
-0.112779
-0.117923
-0.114216
-0.122993
-0.121037
-0.115984
-0.100403
-0.0992232
-0.0960275
-0.110142
-0.103189
-0.102975
-0.107877
0.0202641
0.0190604
0.0156979
0.024806
0.0207376
-0.0957845
-0.0965808
-0.100202
-0.104007
-0.0937265
-0.0867275
-0.0920161
-0.120976
-0.122647
-0.124043
-0.121883
-0.116775
-0.115567
-0.118956
-0.0572781
-0.0493408
-0.0465003
-0.0339866
-0.0712331
-0.0726786
-0.0648548
-0.186837
-0.183125
-0.177723
-0.192872
-0.18864
-0.195282
-0.206086
-0.19751
-0.152897
-0.16284
-0.171176
-0.143229
-0.153929
-0.145504
-0.185008
-0.176246
-0.181971
-0.175042
-0.162432
-0.164847
-0.155407
-0.161915
-0.160687
-0.167187
-0.165273
-0.1703
-0.170501
-0.166877
-0.167395
-0.136635
-0.138934
-0.136056
-0.143402
-0.141357
-0.138775
-0.123952
-0.128053
-0.126138
-0.136617
-0.129987
-0.126675
-0.133321
-0.137758
-0.150935
-0.154896
-0.153502
-0.157438
-0.156324
-0.152071
-0.144367
-0.147098
-0.145587
-0.152198
-0.15053
-0.146645
-0.265425
-0.26096
-0.154166
-0.155146
-0.155315
-0.152448
-0.154297
-0.152065
-0.167834
-0.156344
-0.158364
-0.15978
-0.139379
-0.143876
-0.144423
-0.141188
-0.143357
-0.134843
-0.146273
-0.148725
-0.150536
-0.145311
-0.146723
-0.144437
-0.172623
-0.172585
-0.171148
-0.172962
-0.169713
-0.168884
-0.172341
-0.171069
-0.244321
-0.255469
-0.262919
-0.263374
-0.262848
-0.261785
-0.262643
-0.262023
-0.0908873
-0.0883593
-0.0891233
-0.0915771
-0.101669
-0.0964921
-0.0915739
-0.127095
-0.125232
-0.122184
-0.123897
-0.125734
-0.128002
-0.131091
-0.133255
-0.128085
-0.130206
-0.128985
-0.129094
-0.128735
-0.1104
-0.10958
-0.108478
-0.119717
-0.111976
-0.141761
-0.142931
-0.145838
-0.1366
-0.139858
-0.138811
-0.144887
-0.14694
-0.126731
-0.132093
-0.126478
-0.133763
-0.161411
-0.154526
-0.157796
-0.148493
-0.151228
-0.157242
-0.00206408
-0.00410318
-0.00255947
-0.00760881
-0.00574827
-0.00352796
0.00240835
0.00407867
0.0042806
-0.000598146
0.00197299
8.55922e-05
0.00394564
-0.0257031
-0.020654
-0.0413596
-0.0327743
-0.00864319
-0.011014
-0.00962496
-0.0169888
-0.0132805
-0.0105671
-0.0593085
-0.0624352
-0.061766
-0.0540508
-0.0639356
0.0610337
0.0641607
0.035963
0.0345039
0.0315435
0.0374319
0.0361985
0.0369013
0.0370998
0.0388101
0.064197
0.0597144
0.0266271
0.0360343
0.0282322
0.039638
0.0441925
0.0320383
0.0430965
0.0327489
0.0265028
0.0274053
0.0148945
0.0147829
0.0142842
0.0210587
0.0217634
0.0257641
0.0455181
0.0386161
0.0555281
0.0863539
0.0497489
0.0855238
0.0444488
0.0354399
0.0317278
0.00687304
0.0124569
0.0013543
-0.00578454
-0.000720501
0.0044743
0.0061344
0.0188261
0.00892315
0.0271641
0.045854
0.0553315
0.0881294
0.0754615
0.136266
0.0940781
0.0764604
0.0286056
0.012463
0.0187268
-0.0229603
-0.0220896
-0.012614
-0.0119168
-0.0217524
-0.000148288
-0.0074934
-0.00812218
0.00306886
0.0106663
0.0138793
0.0284337
-0.060021
-0.0540945
-0.0267833
-0.0633356
-0.0464453
-0.0338028
-0.0263842
-0.042746
-0.0283103
-0.0406785
-0.0496621
-0.0410869
-0.0774142
-0.0868345
-0.078225
-0.15624
-0.122183
-0.099489
-0.0933165
-0.0670263
-0.0581131
-0.0305641
-0.0446168
-0.0449676
-0.0543028
-0.0649674
-0.0640957
-0.10769
-0.118767
-0.118251
-0.180437
-0.143088
-0.140178
-0.0954527
-0.0724846
-0.0719748
-0.023782
-0.0302337
-0.0420949
-0.0446616
-0.0516467
-0.0570129
-0.084991
-0.0917088
-0.0971222
-0.135772
-0.114453
-0.128222
-0.0731605
-0.0615906
-0.0687487
-0.0111985
-0.00981874
-0.0252229
-0.0371916
-0.0387894
-0.0462574
-0.0677829
-0.0633731
-0.0831568
-0.0416996
-0.0417658
-0.0521796
0.00077227
0.00643188
-0.00507383
-0.0082328
-0.0185396
-0.029684
-0.0151508
-0.0222125
-0.031483
0.00813855
0.0117757
0.00874405
0.0168894
0.0285612
0.0273975
0.0351379
0.0470018
0.0512303
0.0644597
0.0703024
0.0685538
0.0186159
0.00281268
-0.00672729
-0.00386911
-0.00859989
-0.0145942
0.0105557
0.0139671
0.01345
0.0173389
0.0219055
0.0269262
0.0233463
0.0242863
0.0407463
0.0245023
0.0176619
0.0234043
0.0151595
0.00752138
0.00400153
0.00256483
-0.00211082
-0.00473336
0.0142709
0.017247
0.0192583
0.0150651
0.019542
0.0196787
0.0199729
0.011798
0.0157758
0.0116914
0.00698725
0.00782687
-0.0685133
-0.0575235
-0.0507995
-0.111996
-0.125535
-0.148956
-0.00336566
-0.0229249
-0.0278271
-0.116767
-0.114268
-0.103092
-0.188661
-0.209409
-0.215626
-0.155695
-0.174247
-0.151541
-0.102199
-0.10681
-0.0980882
-0.18035
-0.200227
-0.189507
-0.216622
-0.218275
-0.195546
-0.0534006
-0.0600744
-0.0564827
-0.116034
-0.125413
-0.11049
-0.185194
-0.171522
-0.16
-0.0425524
-0.0412912
-0.0322716
-0.101349
-0.0907461
-0.0880608
0.0489316
0.0357778
0.0215285
0.10253
0.0959558
0.0909262
0.0928226
0.0820022
0.0999164
-0.023539
-0.0148968
-0.0181569
0.0664577
0.0899677
0.0527358
0.375094
0.333434
0.342612
0.0828055
0.102106
0.137222
0.368495
0.387012
0.0168801
0.0281752
0.014649
0.0673915
0.0774905
0.0377995
-0.030998
-0.0197822
-0.0165639
-0.0242837
-0.0222509
-0.0364978
0.00709281
-0.00724877
-0.0136298
-0.0845405
-0.0918598
-0.120722
0.0489717
0.0255516
0.018459
-0.09216
-0.0633029
-0.0752207
-0.0584413
-0.0625127
-0.0785767
-0.030378
-0.0460365
-0.0454617
-0.0612676
-0.0564239
-0.0463517
-0.085761
-0.067786
-0.0734554
-0.0491173
-0.0596364
-0.0810951
-0.100862
-0.0943507
-0.0843375
-0.128501
-0.121462
-0.124749
-0.0958509
-0.100925
-0.107015
-0.207513
-0.211023
-0.204146
-0.139632
-0.126224
-0.16314
-0.100697
-0.115523
-0.122678
-0.0931551
-0.105629
-0.0926977
-0.0612069
-0.0639334
-0.0537996
-0.0952858
-0.0757403
-0.0720752
-0.0766142
-0.0773331
-0.0970458
-0.116698
-0.118229
-0.107341
-0.145709
-0.138541
-0.136957
-0.140901
-0.141397
-0.149051
-0.133467
-0.140305
-0.178066
-0.110449
-0.126758
-0.1226
-0.126919
-0.128282
-0.111554
-0.0383625
-0.0453388
-0.0396322
-0.0641654
-0.0520552
-0.0434632
-0.0666725
-0.0598934
-0.0694189
-0.0798283
-0.085907
-0.0797905
-0.102779
-0.0920684
-0.0827166
-0.112735
-0.109609
-0.114244
-0.176866
-0.176238
-0.173049
-0.0900968
-0.107892
-0.127624
-0.0878852
-0.0979076
-0.0871498
-0.116089
-0.107715
-0.0956904
-0.0773634
-0.0802631
-0.0708577
-0.11759
-0.114454
-0.113228
-0.0423084
-0.0540494
-0.0595926
-0.0511415
-0.0532023
-0.0423632
-0.0758339
-0.0643077
-0.0605807
0.0146019
0.0181788
0.0231593
-0.0159226
-0.00993524
-0.0117954
0.0380827
0.0447835
0.0351915
0.0569047
0.0486114
0.0426642
0.0766697
0.074081
0.0670316
0.0375856
0.0432137
0.0563894
0.0257548
0.0380994
0.032
0.0401092
0.0393551
0.0240667
-0.0918117
-0.0849005
-0.0905997
-0.0326492
-0.05507
-0.0720333
-0.0400667
-0.0452277
-0.0315663
-0.0615319
-0.075199
-0.0601366
0.0465131
0.0511047
0.0696253
-0.0472921
-0.0345542
-0.0289311
-0.192232
-0.199846
-0.203961
-0.118497
-0.127086
-0.121872
-0.0874565
-0.106141
-0.0976812
-0.122713
-0.114844
-0.101429
-0.174134
-0.166809
-0.177291
-0.146876
-0.139204
-0.14024
-0.127664
-0.130451
-0.137834
-0.0998451
-0.110817
-0.106324
-0.141763
-0.145399
-0.143498
-0.158135
-0.157628
-0.152943
-0.14191
-0.140212
-0.136283
-0.196799
-0.206987
-0.183711
-0.24264
-0.234721
-0.231302
-0.205726
-0.190024
-0.182658
-0.230142
-0.227395
-0.236412
-0.161546
-0.17933
-0.193196
-0.123886
-0.119245
-0.116038
-0.134988
-0.132962
-0.138726
-0.101509
-0.110861
-0.114176
-0.146247
-0.148592
-0.150357
-0.124881
-0.126837
-0.124515
-0.154766
-0.158824
-0.158394
-0.152281
-0.153807
-0.149574
-0.211762
-0.20375
-0.185617
-0.214573
-0.217987
-0.2229
-0.195008
-0.217619
-0.214107
-0.0863067
-0.0885839
-0.0962054
-0.0639502
-0.0675494
-0.0644251
-0.119051
-0.121973
-0.123138
-0.0988308
-0.104087
-0.0985263
-0.122924
-0.123837
-0.120733
-0.170383
-0.167767
-0.165408
-0.146513
-0.130903
-0.125327
-0.156585
-0.152591
-0.158418
-0.116972
-0.122857
-0.125315
-0.214743
-0.208432
-0.211068
-0.164339
-0.170343
-0.17823
-0.151874
-0.166506
-0.151727
-0.0112937
-0.00971741
-0.0140545
0.0111775
0.00785669
0.00625789
-0.0509141
-0.0533661
-0.0590274
-0.0186032
-0.0236729
-0.0247516
-0.02914
-0.0282373
-0.0220235
-0.0676887
-0.0583095
-0.0590689
-0.106824
-0.105104
-0.111052
-0.0690047
-0.0850246
-0.0888154
-0.0786088
-0.0804166
-0.0703693
0.0476879
0.0604689
0.0465066
0.0720036
0.0630697
0.0495116
0.0160567
0.0176791
0.014348
0.0379293
0.0556654
0.0621145
-0.0167602
-0.00136716
-0.00268628
0.00150059
-1.47784e-05
-0.0250145
0.0367061
0.0190737
0.0150828
0.122034
0.0927761
0.0827784
-0.0182998
-0.0161587