/*--------------------------------*- C++ -*----------------------------------*\
| =========                 |                                                 |
| \\      /  F ield         | OpenFOAM: The Open Source CFD Toolbox           |
|  \\    /   O peration     | Version:  5.x                                   |
|   \\  /    A nd           | Web:      www.OpenFOAM.org                      |
|    \\/     M anipulation  |                                                 |
\*---------------------------------------------------------------------------*/
FoamFile
{
    version     2.0;
    format      ascii;
    class       surfaceScalarField;
    location    "500";
    object      phi;
}
// * * * * * * * * * * * * * * * * * * * * * * * * * * * * * * * * * * * * * //

dimensions      [0 3 -1 0 0 0 0];

internalField   nonuniform List<scalar> 
13181
(
8.73251e-06
0.00915664
8.42624e-06
0.00916731
7.3137e-06
0.00916761
6.11129e-06
0.0091677
4.18494e-06
0.00916893
-3.21427e-06
0.0091739
-7.73359e-06
0.00917117
-8.20787e-06
0.00916717
-6.61594e-06
0.00916506
-1.37682e-06
0.00916141
7.94771e-06
0.00915738
1.9547e-05
0.00915505
3.00565e-05
0.00915614
3.62563e-05
0.0091605
3.71345e-05
0.00916577
3.36939e-05
0.00917009
2.76262e-05
0.00917277
2.03137e-05
0.00917396
8.82481e-06
0.00917799
-1.01196e-06
0.00917684
-1.3604e-05
0.00917909
-1.87202e-05
0.00917162
-1.9722e-05
0.009168
0.00914525
1.24647e-05
0.0091413
3.53298e-05
0.00914444
3.57043e-05
0.00916724
3.523e-05
0.00916818
2.93009e-05
0.00917486
1.02765e-05
0.00919292
-1.45488e-05
0.00919599
-2.20488e-05
0.00917467
-2.02546e-05
0.00916326
-1.00066e-05
0.00457548
0.00457569
8.88993e-06
0.00456918
0.00456929
3.3304e-05
0.0045651
0.00456553
5.54764e-05
0.00456649
0.00456748
6.84101e-05
0.00457319
0.00457438
6.99988e-05
0.00458151
0.00458267
5.51214e-05
0.00918497
3.2715e-05
0.00919517
1.05378e-05
0.00919614
-1.26566e-05
0.00920118
-2.08428e-05
0.00918502
-2.15267e-05
0.00917978
-2.256e-05
0.00917265
-5.33081e-07
0.00914597
0.00914091
-3.70716e-06
0.00914034
-5.38849e-07
0.00914127
1.94389e-05
0.00914726
1.76323e-05
0.00916998
1.88927e-05
0.0091736
2.04901e-05
0.00919133
-1.19198e-05
0.0092284
-3.29224e-05
0.00919568
-1.70988e-05
0.00916898
-2.15417e-05
0.00457212
-1.37474e-05
0.00456367
-3.90415e-06
9.41588e-06
-3.3299e-06
0.00455682
1.16184e-05
-2.06196e-05
0.004558
2.91086e-05
-3.63378e-05
0.0045678
4.17291e-05
-4.44906e-05
0.00458155
4.44534e-05
4.44067e-05
0.00461112
-3.46696e-05
-4.5799e-05
0.00460991
5.54945e-06
0.00923403
-7.70745e-06
0.0092094
-6.75354e-06
0.00920023
-8.38845e-06
0.00918666
-1.0019e-05
0.00918141
7.38003e-06
0.00915525
8.26126e-06
0.00914509
0.00914309
-9.56138e-06
0.00914349
-1.23679e-05
0.00914408
-1.26571e-05
0.00914755
1.26575e-06
0.00915606
-3.02262e-06
0.00917788
-2.34238e-06
0.00919065
-6.13373e-06
0.0092322
-2.54879e-05
0.00921503
-3.21245e-05
0.00461392
-3.49116e-05
0.00459661
0.00456638
-2.81586e-05
-0.00457035
0.00454875
-1.47885e-05
-0.00455687
2.29079e-05
2.85089e-06
0.00453018
1.2452e-05
-0.00454549
-2.96269e-05
0.00452975
4.60255e-05
-0.00454615
-5.81246e-05
0.00456329
5.68648e-05
-0.00456203
-3.96568e-05
0.00461242
1.82345e-05
-0.00459099
-3.94945e-06
0.00461435
7.20155e-07
3.34338e-05
0.00461389
-1.46926e-05
-3.28377e-06
0.00460468
2.6181e-05
0.00921665
1.74016e-05
0.00920901
6.44057e-06
0.00919762
1.77848e-05
0.00917006
1.70288e-05
0.00915601
1.17431e-05
0.00915038
0.00914681
-1.13811e-05
0.00914697
-1.58689e-05
0.00914857
-2.11214e-05
0.0091528
-2.28306e-05
0.00915777
-1.60665e-05
0.00917112
-1.90617e-05
0.00919364
1.48115e-05
0.00919832
2.23271e-05
0.00458855
1.02697e-05
0.00460869
0.00464108
-4.82603e-06
0.00457306
-3.02017e-05
-0.00456689
2.40261e-05
0.00454522
-3.64045e-05
-0.00454169
3.28674e-05
1.9747e-05
7.50893e-06
-0.00450976
0.00224097
0.00224153
-4.07781e-05
7.31976e-05
-0.00450728
0.00223748
0.00223738
-8.36272e-05
4.74462e-05
-0.00458121
0.00230261
0.00231478
-5.75015e-05
0.00461353
5.82704e-05
-0.0046143
-4.93852e-05
0.00462288
4.90582e-05
-0.00462255
-4.66161e-05
0.00461528
4.5227e-05
5.15995e-05
0.00924523
-4.29248e-05
-3.72593e-05
3.12672e-05
0.00922934
3.29758e-05
0.00919591
2.74918e-05
0.00917555
1.93302e-05
0.00916417
1.35339e-05
0.00915618
0.009151
-1.24333e-05
0.00915041
-1.7168e-05
0.0091533
-2.33488e-05
0.00915898
-3.20241e-05
0.00916645
-3.69359e-05
0.00917603
-3.94097e-05
0.00919611
-2.48031e-05
0.00921705
-3.33384e-05
0.00459746
-3.37041e-05
0.00460247
4.15138e-06
-0.0046349
2.82746e-05
0.00457859
2.42665e-05
-0.00458185
-2.10004e-05
-0.00228147
-2.85945e-06
0.00228653
-2.20772e-06
-0.00222776
1.09173e-05
0.0022293
-1.24573e-05
-0.00221413
-2.57515e-05
0.00220103
3.88573e-05
-0.00229218
-3.23133e-05
0.00226402
6.04809e-05
-4.44086e-05
0.000109225
-0.00462122
-4.84392e-05
0.0022982
0.00230665
-0.000104396
0.00464017
8.93738e-05
-0.00462515
-7.29198e-05
-0.004626
0.00463993
5.89838e-05
6.49968e-05
0.00928222
-5.3101e-05
-4.88821e-05
5.12464e-05
0.00924309
3.9848e-05
0.00920731
2.7826e-05
0.00918757
1.97871e-05
0.00917221
1.3797e-05
0.00916217
0.00915499
-1.30443e-05
0.00915391
-1.79752e-05
0.00915823
-2.38343e-05
0.00916484
-3.188e-05
0.00917449
-4.35837e-05
0.00918774
-5.45982e-05
0.00920713
-3.59203e-05
0.00923434
-3.59624e-05
-0.00460626
0.00461584
-4.55065e-05
-0.00460375
0.00461851
-7.23156e-05
5.755e-05
-0.00458873
0.00461279
9.1364e-05
-5.43401e-05
-6.10825e-05
-0.00227345
5.51323e-05
0.00227411
-5.57984e-05
-0.0011099
1.79028e-05
0.00110575
-1.37496e-05
-1.61668e-05
-0.00105608
0.00105042
2.18213e-05
-5.01277e-05
-0.00228384
9.78197e-05
-3.65546e-05
0.00112338
0.00114932
-0.000108207
-0.00231321
0.00232584
9.55818e-05
-0.000142648
-0.00466488
0.00469477
0.000112763
-8.85749e-05
-0.00465591
0.00467549
6.89992e-05
7.3386e-05
0.00931394
-5.19931e-05
-5.31128e-05
5.38788e-05
0.0092626
3.59393e-05
0.00922525
2.42099e-05
0.0091993
1.65398e-05
0.00917988
1.12982e-05
0.00916741
0.00915711
-1.21506e-05
0.00915661
-1.67025e-05
0.00916278
-2.19117e-05
0.00917005
-2.99732e-05
0.00918255
-4.07544e-05
0.00919852
-5.65267e-05
0.0092229
-3.47223e-05
0.00925221
-3.96718e-05
-0.00462605
0.00463681
-4.54805e-05
-0.00463774
0.00465663
-7.86009e-05
5.97114e-05
-0.00464672
0.00468441
0.000104931
-6.97715e-05
-7.28415e-05
-0.00230908
9.78727e-05
0.00232939
-0.000118188
-0.00112285
0.000103963
0.00113642
-0.000117539
-0.00014753
-0.00116299
0.00117727
0.000133244
-0.000149017
-0.00237336
0.00239575
0.000126625
-0.000163619
-0.00473357
0.00477147
0.000125721
-9.75115e-05
-0.00469868
0.00471918
7.70166e-05
6.72514e-05
0.00936001
-5.32536e-05
-6.00714e-05
3.8192e-05
0.00929166
2.47326e-05
0.00923871
1.59901e-05
0.00920804
1.10594e-05
0.00918481
8.51923e-06
0.00916995
0.00915826
-1.08519e-05
0.00915873
-1.35266e-05
0.00916546
-1.73414e-05
0.00917387
-2.21084e-05
0.00918732
-2.87461e-05
0.00920515
-3.8177e-05
0.00923233
-2.96756e-05
0.00926763
-2.39298e-05
-0.00463962
0.00464834
-3.83935e-05
-0.00467899
0.00469379
-6.8362e-05
5.35607e-05
-0.00472137
0.00474842
8.75528e-05
-6.03855e-05
-5.42202e-05
-0.00238842
8.51869e-05
0.00240397
-0.000100738
-0.00122555
8.98895e-05
0.00123451
-9.88492e-05
-0.000122177
-0.00128014
0.00129108
0.000111238
-0.000112122
-0.00245801
0.00247607
9.40554e-05
-0.000110233
-0.00480673
0.00483306
8.3909e-05
-6.37232e-05
-0.00473726
0.00475073
5.0257e-05
4.49998e-05
0.00937902
-2.60934e-05
-3.79152e-05
2.09268e-05
0.00931573
8.11259e-06
0.00925152
4.80825e-06
0.00921134
3.25557e-06
0.00918636
2.67936e-06
0.00917052
0.00915652
-8.4167e-06
0.00915968
-1.04549e-05
0.0091675
-1.1978e-05
0.00917539
-1.42541e-05
0.0091896
-1.55475e-05
0.00920645
-1.70778e-05
0.00923386
-1.24748e-05
0.00926877
-5.73489e-06
-0.00465605
0.00466375
-2.01709e-05
-0.00470303
0.00470634
-2.65727e-05
2.32689e-05
-0.00476427
0.00476744
2.9446e-05
-2.04564e-05
-1.21528e-05
-0.00243224
2.67842e-05
0.00243478
-2.93176e-05
-0.00126775
2.18067e-05
0.0012685
-2.25589e-05
-2.23461e-05
-0.00133271
0.0013338
2.12538e-05
-2.25421e-05
-0.00250767
0.00251054
1.96702e-05
-1.64084e-05
-0.00484788
0.00484973
1.45521e-05
-1.29744e-05
-0.00475911
0.00476151
1.05751e-05
7.36245e-06
0.00937471
4.0768e-06
-7.1268e-06
1.05503e-05
0.00931254
-4.9895e-06
0.00926706
-8.90275e-06
0.00921526
-5.4953e-06
0.00918295
-3.21666e-06
0.00916825
0.00915275
-6.2321e-06
0.00916004
-6.66521e-06
0.00916793
-6.48256e-06
0.00917521
-4.90127e-06
0.00918801
-3.16751e-06
0.00920471
3.33273e-06
0.00922736
4.12609e-06
0.00926015
7.82356e-06
-0.0046661
0.0046664
3.83428e-06
-0.00470383
0.00469595
1.67747e-05
-8.89857e-06
-0.0047586
0.0047405
-2.93242e-05
2.01378e-05
2.7286e-05
-0.00242348
-3.15538e-05
0.00241466
4.03798e-05
-0.00124941
-3.94245e-05
0.00124433
4.45052e-05
7.15152e-05
-0.00130694
0.00129931
-6.38868e-05
6.63011e-05
-0.00249514
0.00248404
-5.5199e-05
7.39226e-05
-0.00483942
0.00481961
-5.4116e-05
3.81536e-05
-0.00475694
0.00474714
-2.83609e-05
-2.95593e-05
0.00935144
3.03859e-05
2.2441e-05
-1.33059e-05
0.00929629
-3.72827e-06
0.00925748
-2.21956e-05
0.00923373
-1.55285e-05
0.00917629
-9.50207e-06
0.00916222
0.00914715
-3.69161e-06
0.00915955
-2.33159e-06
0.00916657
-4.59565e-07
0.00917333
3.07004e-06
0.00918448
9.7814e-06
0.009198
2.16902e-05
0.00921545
1.58812e-05
0.00924694
1.90199e-05
-0.00466053
0.0046541
2.23116e-05
-0.00468455
0.00467115
4.55039e-05
-3.21031e-05
-0.00471581
0.00468876
-6.46771e-05
4.48059e-05
4.6918e-05
-0.00237942
-6.46285e-05
0.00236627
7.77847e-05
-0.00120056
-6.8527e-05
0.00119354
7.55456e-05
0.000112245
-0.00123654
0.00122749
-0.000103189
0.000114974
-0.00243782
0.00242076
-9.79146e-05
0.000129787
-0.00479084
0.00475703
-9.59741e-05
7.30075e-05
-0.00473279
0.00471612
-5.63321e-05
-5.41368e-05
0.00931451
4.73324e-05
4.37375e-05
-3.11021e-05
0.00927326
-1.5538e-05
0.00924192
-7.63449e-06
0.00922582
-2.42147e-05
0.00919287
-1.60011e-05
0.00915401
0.00913965
-1.60992e-06
0.00915857
5.54343e-07
0.00916441
3.36271e-06
0.00917053
8.59429e-06
0.00917925
1.61854e-05
0.00919041
2.93074e-05
0.00920233
2.34677e-05
0.00922865
2.41265e-05
-0.00464604
0.00463812
3.1394e-05
-0.00465699
0.00464374
5.40517e-05
-4.07992e-05
-0.00466185
0.00463831
-7.15825e-05
4.84739e-05
4.66492e-05
-0.00232861
-6.64419e-05
0.002318
7.70576e-05
-0.00114879
-6.26194e-05
0.00114407
6.73432e-05
0.000104214
-0.00116485
0.00115678
-9.61457e-05
0.000114814
-0.00237096
0.0023565
-0.000100359
0.000135432
-0.00472039
0.00469002
-0.000105059
8.24594e-05
-0.00469901
0.00468255
-6.59955e-05
-6.3428e-05
0.00927692
5.0267e-05
5.07482e-05
-3.87455e-05
0.00924857
-2.14501e-05
0.00922462
-1.73759e-05
0.00922175
-2.77445e-05
0.00920324
-2.16793e-05
0.00914794
0.00913088
3.4772e-07
0.00915693
2.30291e-06
0.00916245
5.8099e-06
0.00916702
1.05795e-05
0.00917448
1.77695e-05
0.00918322
2.81918e-05
0.00919191
4.1841e-05
0.009215
3.64671e-05
0.00924375
2.70853e-05
-0.00463114
-0.00463432
-0.00463267
0.0046251
4.40391e-05
-0.00461977
0.00462608
4.00747e-05
-4.63909e-05
-0.00230243
-8.68168e-06
0.00232743
-1.63193e-05
-0.00114782
3.35114e-05
0.00112927
-1.49643e-05
-0.000321837
9.74239e-06
0.000333869
-2.17745e-05
4.07689e-05
-0.00112305
0.00225772
-8.27423e-05
3.54203e-05
-0.00112812
-0.00232536
8.09312e-05
0.00232058
-7.6153e-05
0.00010328
-0.00466664
0.00464888
-8.55227e-05
7.04387e-05
-0.00467012
0.00466539
-6.5714e-05
-5.94499e-05
0.00924856
4.15096e-05
4.6299e-05
-3.81557e-05
0.00922728
-2.25752e-05
0.00920904
-3.28419e-05
0.00923201
-4.69342e-06
0.00917509
-2.37159e-05
0.00916696
0.00912394
6.50634e-07
0.00915592
2.47261e-06
0.00916063
5.10975e-06
0.00916438
8.62385e-06
0.00917097
1.43307e-05
0.00917751
1.98284e-05
0.00918641
1.41006e-05
0.00922073
-6.33977e-06
0.00929285
-2.86643e-05
-0.00463448
0.00465222
-2.40847e-05
-0.00463608
0.00461612
-2.3379e-06
2.22922e-05
-0.00229336
-1.69633e-05
0.0022895
2.08201e-05
-0.00225837
-1.15237e-05
0.00226543
4.46072e-06
-0.000930243
3.54065e-05
0.00197024
-5.97734e-05
-0.00101563
-0.00228481
6.92592e-05
0.00227929
-6.37377e-05
-0.00461249
7.49654e-05
0.00462253
-0.000136124
5.11167e-05
0.000126684
-0.00463901
0.00462659
-0.000114266
-0.000142422
0.00923832
7.24325e-05
0.00010462
-0.00468027
-0.00459269
-0.00011344
0.00921958
-9.13578e-05
0.0092052
-7.14155e-05
0.0091891
-1.55489e-05
0.00917615
-4.67947e-06
0.00916422
3.97638e-06
0.00915831
0.0091479
8.77802e-07
0.00915525
1.77442e-06
0.00915973
3.20258e-06
0.00916295
5.5704e-06
0.0091686
7.85548e-06
0.00917523
6.20911e-06
0.00918806
-1.79044e-05
0.00924484
-2.91993e-05
0.00929551
8.63407e-06
-0.00464877
0.00461984
-2.73845e-07
-0.00460361
0.00460332
1.51072e-05
-1.48113e-05
-0.0045869
0.00459588
2.39958e-06
-1.13734e-05
-0.00228155
4.27991e-06
0.00228483
-7.56082e-06
-0.00201697
2.58839e-05
0.00203303
-4.19433e-05
-0.00227895
4.29307e-05
0.00457213
-9.49871e-05
-0.00228209
4.09672e-05
-0.00461329
0.000104717
0.00460668
-9.81061e-05
-0.0046189
9.31589e-05
0.00461241
-8.66674e-05
-0.000107441
0.00920023
6.81274e-05
7.74021e-05
-7.71663e-05
0.00918931
-6.54698e-05
0.0091935
-5.85014e-05
0.00918213
-5.12331e-05
0.00916888
-4.30753e-05
0.00915606
-3.21288e-05
0.00914736
0.00913822
1.48912e-07
0.00915552
9.68948e-07
0.00915891
1.55208e-06
0.00916237
2.18214e-06
0.00916797
2.07781e-06
0.00917533
-8.9209e-06
0.00919906
-2.53996e-05
0.00926132
4.88113e-06
0.00926523
3.54006e-06
0.00923201
-0.00461857
-0.00461212
2.40761e-08
-0.00460609
0.00460764
1.99014e-06
-0.00460341
0.0046098
-8.16043e-06
1.77338e-06
-0.00458191
1.68895e-05
0.00458624
-2.12127e-05
-0.00427637
4.05299e-05
0.00429711
-6.12719e-05
-0.00458197
6.73342e-05
0.00458622
-7.1579e-05
-0.00460141
7.16237e-05
0.00459893
-6.9148e-05
-0.00460807
6.7366e-05
0.00460491
-6.42009e-05
-0.000103893
0.00918784
5.66939e-05
5.95914e-05
-8.68906e-05
0.0091723
-6.92307e-05
0.00917584
-5.10179e-05
0.00916392
-3.46846e-05
0.00915255
-2.72606e-05
0.00914864
-2.43948e-05
0.00914449
0.00913809
-3.99948e-07
0.00915627
-7.0211e-07
0.00915921
-1.4552e-06
0.00916312
-1.94732e-06
0.00916846
-6.13197e-06
0.00917952
-2.82462e-05
0.00922117
-2.76958e-05
0.00926077
-6.23535e-06
0.00924377
-1.24998e-05
0.00923827
-1.10439e-05
0.0092337
-0.00461003
-0.0046109
-1.42242e-05
-0.0046155
0.00462016
-1.56992e-05
-0.00458657
2.35859e-05
0.00457755
-1.45628e-05
-0.0043139
3.7101e-05
0.00433219
-5.53909e-05
-0.0045905
4.85308e-05
0.00459455
-5.25804e-05
-0.000101844
0.00919931
-0.00459893
-0.00459952
4.8599e-05
5.23872e-05
-9.79099e-05
0.00920015
-0.00460263
-0.00460146
-8.96889e-05
0.00917962
-8.20465e-05
0.00916466
-6.67528e-05
0.00916055
-5.33387e-05
0.00915051
-4.19586e-05
0.00914117
-3.25575e-05
0.00913923
-1.97015e-05
0.00913164
0.00914375
-1.15218e-06
0.00915749
-2.5432e-06
0.00916061
-3.5303e-06
0.00916411
-4.9354e-06
0.00916987
-8.28167e-06
0.00918286
-2.5181e-05
0.00923807
-1.72975e-05
0.00925289
-9.51502e-06
0.00923599
-1.79241e-05
0.00924668
-2.9516e-05
0.00924529
-3.83638e-05
0.00925748
-0.004627
-0.00462163
-6.14885e-05
0.00887071
-0.00453675
-0.00431084
-8.22951e-05
0.00891624
-0.00436699
-0.00452844
-8.63531e-05
0.0092115
-0.00460034
-0.0046071
-8.61723e-05
0.00919913
-8.39165e-05
0.00919789
-7.8199e-05
0.0091739
-7.22188e-05
0.00915868
-6.12465e-05
0.00914957
-5.16845e-05
0.00914094
-4.45792e-05
0.00913406
-3.36446e-05
0.0091283
-2.4373e-05
0.00912237
0.00914531
-2.01729e-06
0.00915912
-3.42079e-06
0.00916201
-5.51453e-06
0.0091662
-7.61921e-06
0.00917197
-1.12835e-05
0.00918653
-2.09546e-05
0.00924774
-1.67434e-05
0.00924868
-1.44861e-05
0.00923373
-2.08764e-05
0.00925307
-3.03679e-05
0.00925478
-3.77744e-05
0.00926489
-5.26343e-05
0.00888557
-6.63493e-05
0.00892996
-7.09824e-05
0.00921613
-7.36258e-05
0.00920178
-7.26037e-05
0.00919687
-6.88533e-05
0.00917015
-6.40444e-05
0.00915387
-5.61839e-05
0.00914171
-4.85088e-05
0.00913327
-4.14731e-05
0.00912703
-3.33225e-05
0.00912015
-2.56274e-05
0.00911467
0.00914575
-2.93255e-06
0.0091611
-5.26236e-06
0.00916434
-7.829e-06
0.00916877
-1.04481e-05
0.00917459
-1.31528e-05
0.00918923
-1.67835e-05
0.00925137
-1.67908e-05
0.00924869
-1.76416e-05
0.00923458
-2.31381e-05
0.00925857
-3.11815e-05
0.00926282
-3.64368e-05
0.00927014
-4.73198e-05
0.00889646
-5.73286e-05
0.00893997
-6.0741e-05
0.00921954
-6.38964e-05
0.00920493
-6.33798e-05
0.00919635
-6.08511e-05
0.00916762
-5.7469e-05
0.00915049
-5.17079e-05
0.00913595
-4.55207e-05
0.00912708
-3.93113e-05
0.00912082
-3.2295e-05
0.00911313
-2.55973e-05
0.00910797
0.00914603
-3.85743e-06
0.00916337
-6.52054e-06
0.009167
-8.93477e-06
0.00917119
-1.19145e-05
0.00917757
-1.49545e-05
0.00919227
-1.63419e-05
0.00925276
-1.84385e-05
0.00925078
-2.28647e-05
0.00923901
-2.44592e-05
0.00926016
-3.11682e-05
0.00926953
-3.53966e-05
0.00927437
-4.3393e-05
0.00890445
-5.03634e-05
0.00894694
-5.33541e-05
0.00922253
-5.60673e-05
0.00920764
-5.58676e-05
0.00919615
-5.42422e-05
0.009166
-5.19577e-05
0.00914821
-4.68965e-05
0.00913089
-4.28637e-05
0.00912305
-3.67461e-05
0.0091147
-3.11981e-05
0.00910758
-2.58815e-05
0.00910266
0.00914556
-5.27012e-06
0.00916636
-7.17781e-06
0.00916891
-1.03368e-05
0.00917434
-1.30517e-05
0.00918029
-1.62714e-05
0.00919549
-1.77754e-05
0.00925426
-2.00023e-05
0.00925301
-2.41474e-05
0.00924315
-2.5046e-05
0.00926106
-3.066e-05
0.00927515
-3.40983e-05
0.00927781
-4.01168e-05
0.00891047
-4.5021e-05
0.00895184
-4.7498e-05
0.00922501
-4.98061e-05
0.00920995
-4.97119e-05
0.00919606
-4.85947e-05
0.00916488
-4.6414e-05
0.00914602
-4.32378e-05
0.00912771
-3.96052e-05
0.00911942
-3.43581e-05
0.00910945
-2.96214e-05
0.00910285
-2.45735e-05
0.00909761
0.00914576
-5.6549e-06
0.009169
-8.73793e-06
0.00917199
-1.15493e-05
0.00917716
-1.4408e-05
0.00918315
-1.76968e-05
0.00919878
-1.87158e-05
0.00925528
-2.10065e-05
0.0092553
-2.48142e-05
0.00924696
-2.76962e-05
0.00926394
-3.0049e-05
0.0092775
-3.27298e-05
0.00928049
-3.73484e-05
0.00891509
-4.08166e-05
0.00895531
-4.28569e-05
0.00922705
-4.47432e-05
0.00921184
-4.46863e-05
0.009196
-4.38618e-05
0.00916406
-4.22125e-05
0.00914438
-3.91923e-05
0.00912469
-3.62374e-05
0.00911646
-3.26858e-05
0.0091059
-2.86075e-05
0.00909877
-2.47065e-05
0.00909371
0.00914504
-6.51312e-06
0.00917173
-9.2032e-06
0.00917468
-1.26002e-05
0.00918055
-1.55311e-05
0.00918608
-1.83133e-05
0.00920156
-1.92849e-05
0.00925625
-2.16647e-05
0.00925768
-2.51197e-05
0.00925042
-2.86714e-05
0.00926749
-2.92465e-05
0.00927807
-3.14003e-05
0.00928265
-3.48006e-05
0.00891849
-3.74687e-05
0.00895798
-3.88204e-05
0.0092284
-4.05431e-05
0.00921356
-4.04923e-05
0.00919595
-3.99591e-05
0.00916352
-3.87284e-05
0.00914314
-3.66805e-05
0.00912265
-3.42412e-05
0.00911402
-3.0251e-05
0.00910191
-2.67055e-05
0.00909522
-2.33377e-05
0.00909034
0.00914478
-7.34444e-06
0.00917451
-1.00901e-05
0.00917743
-1.30127e-05
0.00918348
-1.59634e-05
0.00918903
-1.91973e-05
0.0092048
-2.00848e-05
0.00925714
-2.19966e-05
0.00925959
-2.5161e-05
0.00925358
-2.83624e-05
0.00927069
-3.42443e-05
0.00928396
-3.43985e-05
0.0092828
-3.64691e-05
0.00892056
-3.7375e-05
0.00895888
-3.83985e-05
0.00922942
-3.93635e-05
0.00921453
-3.92392e-05
0.00919583
-3.90015e-05
0.00916328
-3.83221e-05
0.00914247
-3.76164e-05
0.00912194
-3.30795e-05
0.00910949
-2.95326e-05
0.00909836
-2.591e-05
0.0090916
-2.24802e-05
0.00908691
0.00914441
-8.15214e-06
0.00917729
-1.09101e-05
0.00918019
-1.33175e-05
0.00918588
-1.6753e-05
0.00919246
-1.94033e-05
0.00920745
-2.06894e-05
0.00925843
-2.21985e-05
0.0092611
-2.50922e-05
0.00925647
-3.0481e-05
0.00927608
-3.5497e-05
0.00928897
-3.68309e-05
0.00928413
-3.91984e-05
0.00892293
-4.05186e-05
0.0089602
-4.16692e-05
0.00923058
-4.25356e-05
0.00921539
-4.23288e-05
0.00919562
-4.18703e-05
0.00916283
-4.04279e-05
0.00914102
-3.89744e-05
0.00912049
-3.71754e-05
0.00910769
-3.44438e-05
0.00909563
-3.21254e-05
0.00908928
-2.90364e-05
0.00908382
0.00913642
-8.93736e-06
0.00918004
-1.16745e-05
0.00918292
-1.45392e-05
0.00918875
-1.69273e-05
0.00919485
-1.94823e-05
0.00921
-2.06571e-05
0.0092596
-2.23374e-05
0.00926278
-2.74078e-05
0.00926154
-3.20747e-05
0.00928075
-3.49257e-05
0.00929182
-3.58467e-05
0.00928505
-3.78006e-05
0.00892488
-3.86833e-05
0.00896109
-3.94788e-05
0.00923137
-4.01451e-05
0.00921606
-3.9917e-05
0.00919539
-3.94586e-05
0.00916237
-3.85462e-05
0.00914011
-3.67702e-05
0.00911871
-3.51644e-05
0.00910608
-3.31752e-05
0.00909364
-3.05962e-05
0.0090867
-2.82587e-05
0.00908149
0.00912815
-9.70174e-06
0.00918272
-1.18888e-05
0.00918511
-1.46853e-05
0.00919154
-1.70158e-05
0.00919718
-1.997e-05
0.00921296
-2.1039e-05
0.00926067
-2.47715e-05
0.00926651
-2.9693e-05
0.00926647
-3.19363e-05
0.00928299
-3.43622e-05
0.00929425
-3.51366e-05
0.00928583
-3.66714e-05
0.00892642
-3.71723e-05
0.00896159
-3.78125e-05
0.00923201
-3.82705e-05
0.00921652
-3.79657e-05
0.00919509
-3.74786e-05
0.00916188
-3.65599e-05
0.00913919
-3.53902e-05
0.00911754
-3.34171e-05
0.00910411
-3.11136e-05
0.00909134
-2.96872e-05
0.00908528
-2.70426e-05
0.00907884
0.00912004
-9.94024e-06
0.00918481
-1.3064e-05
0.00918823
-1.52723e-05
0.00919375
-1.80404e-05
0.00919995
-1.98891e-05
0.00921481
-2.38789e-05
0.00926466
-2.7927e-05
0.00927056
-2.97743e-05
0.00926831
-3.18505e-05
0.00928507
-3.4031e-05
0.00929643
-3.45106e-05
0.00928631
-3.57986e-05
0.0089277
-3.59461e-05
0.00896173
-3.64067e-05
0.00923247
-3.67884e-05
0.0092169
-3.63494e-05
0.00919465
-3.58687e-05
0.0091614
-3.49085e-05
0.00913823
-3.38099e-05
0.00911644
-3.19138e-05
0.00910221
-3.02304e-05
0.00908965
-2.79144e-05
0.00908296
-2.58909e-05
0.00907682
0.00911202
-1.11521e-05
0.00918729
-1.31889e-05
0.00919027
-1.53003e-05
0.00919586
-1.80031e-05
0.00920265
-2.32798e-05
0.00922008
-2.97028e-05
0.00927108
-2.81059e-05
0.00926896
-2.98343e-05
0.00927004
-3.17399e-05
0.00928697
-3.37958e-05
0.00929849
-3.41805e-05
0.00928669
-3.51746e-05
0.0089287
-3.5128e-05
0.00896169
-3.54282e-05
0.00923277
-3.55498e-05
0.00921702
-3.51209e-05
0.00919422
-3.45887e-05
0.00916087
-3.35579e-05
0.0091372
-3.20004e-05
0.00911489
-3.11298e-05
0.00910134
-2.90316e-05
0.00908756
-2.72624e-05
0.00908119
-2.53127e-05
0.00907487
0.00910353
-1.13155e-05
0.00918912
-1.37663e-05
0.00919272
-1.62702e-05
0.00919837
-1.79102e-05
0.00920429
-3.31621e-05
0.00923533
-2.94633e-05
0.00926739
-2.83343e-05
0.00926784
-2.99959e-05
0.0092717
-3.1825e-05
0.0092888
-3.37255e-05
0.00930039
-3.4018e-05
0.00928699
-3.48e-05
0.00892948
-3.45077e-05
0.0089614
-3.4695e-05
0.00923296
-3.4724e-05
0.00921705
-3.41353e-05
0.00919363
-3.35472e-05
0.00916028
-3.24718e-05
0.00913613
-3.14297e-05
0.00911384
-2.95643e-05
0.00909948
-2.8509e-05
0.0090865
-2.62477e-05
0.00907893
-2.4331e-05
0.00907295
0.00909502
-1.24173e-05
0.00919128
-1.37783e-05
0.00919408
-1.61622e-05
0.00920075
-2.68249e-05
0.00921495
-3.39267e-05
0.00924244
-3.02123e-05
0.00926367
-2.85026e-05
0.00926613
-3.01599e-05
0.00927336
-3.19538e-05
0.0092906
-3.3848e-05
0.00930228
-3.40658e-05
0.0092872
-3.46899e-05
0.0089301
-3.42878e-05
0.00896099
-3.42361e-05
0.00923291
-3.4126e-05
0.00921694
-3.34578e-05
0.00919296
-3.28224e-05
0.00915964
-3.16209e-05
0.00913492
-3.05988e-05
0.00911282
-2.91892e-05
0.00909807
-2.71804e-05
0.00908449
-2.53774e-05
0.00907713
-2.29719e-05
0.00907055
0.00908692
-1.24205e-05
0.00919275
-1.47191e-05
0.00919638
-1.64666e-05
0.0092025
-2.96452e-05
0.00922813
-3.31117e-05
0.0092459
-2.9933e-05
0.00926049
-2.8699e-05
0.00926489
-3.03755e-05
0.00927504
-3.21713e-05
0.00929239
-3.41767e-05
0.00930429
-3.45278e-05
0.00928755
-3.48647e-05
0.00893044
-3.43323e-05
0.00896046
-3.40255e-05
0.0092326
-3.37826e-05
0.0092167
-3.29447e-05
0.00919213
-3.22891e-05
0.00915899
-3.09739e-05
0.00913361
-2.99921e-05
0.00911184
-2.85027e-05
0.00909658
-2.70359e-05
0.00908303
-2.46591e-05
0.00907475
-2.27433e-05
0.00906863
0.0090782
-1.2758e-05
0.00919399
-1.45552e-05
0.00919818
-1.61198e-05
0.00920406
-2.63705e-05
0.00923838
-3.16677e-05
0.0092512
-3.06494e-05
0.00925947
-2.87572e-05
0.009263
-3.06854e-05
0.00927696
-3.24733e-05
0.00929418
-3.48294e-05
0.00930664
-3.54889e-05
0.00928821
-3.54111e-05
0.00893036
-3.47476e-05
0.0089598
-3.40759e-05
0.00923193
-3.37237e-05
0.00921634
-3.258e-05
0.00919098
-3.20603e-05
0.00915847
-3.09928e-05
0.00913254
-2.96422e-05
0.00911049
-2.79928e-05
0.00909493
-2.6142e-05
0.00908117
-2.46092e-05
0.00907322
-2.22386e-05
0.00906626
0.00906928
-1.34695e-05
-1.52926e-05
-1.61769e-05
-2.15111e-05
-2.46098e-05
-3.08277e-05
-2.88249e-05
-3.09331e-05
-3.26484e-05
-3.55865e-05
-3.68849e-05
-3.6215e-05
-3.54599e-05
-3.42325e-05
-3.36961e-05
-3.23504e-05
-3.19316e-05
-3.01578e-05
-2.94501e-05
-2.76291e-05
-2.63968e-05
-2.37219e-05
-2.23906e-05
9.69749e-05
-0.000106898
-0.00121563
0.00128694
0.000131841
-0.00127315
-7.16149e-05
-7.40165e-05
-0.00115328
-0.000163421
0.00116917
3.09604e-05
-3.25788e-05
-0.00126613
0.00134314
3.57938e-05
-0.00134109
-1.75644e-05
-2.02871e-05
0.00129899
-6.60388e-05
-6.81837e-05
-3.33165e-05
3.80617e-05
-0.00125415
0.00131258
-6.23416e-05
-0.00132002
3.59156e-05
3.38676e-05
0.00134375
-1.01355e-05
-1.28199e-05
-6.67605e-05
7.36031e-05
-0.0012074
0.00123685
-0.000110612
-0.00124708
0.000120842
0.00130448
4.07292e-05
3.88853e-05
-6.46915e-05
7.02493e-05
-0.00115435
0.00115856
-0.000107551
-0.00116767
0.000116653
0.000122987
0.00122611
3.50729e-05
-4.95765e-05
-0.00113331
-9.38784e-06
0.000320781
-2.67919e-06
-0.000163425
-0.000145288
-2.7616e-05
-0.00012961
-0.000174
0.00111494
-5.91387e-05
-0.00111425
5.84416e-05
0.000111731
0.00115105
9.7552e-05
-0.000107832
-0.00111257
-0.00104895
-3.67108e-06
0.00103645
0.000137049
-0.00113965
-0.000150678
-0.0011131
-5.60768e-05
0.00111905
9.51087e-05
-0.000113732
-0.00236979
0.00122072
-0.0012119
8.8156e-05
-0.00113482
9.34271e-05
0.00114536
0.000310649
0.000125559
-0.000613348
0.00031191
-6.66076e-05
-6.81623e-05
0.000114801
-0.00053969
-0.000124636
0.000549524
0.000119533
-0.00126783
0.00247356
0.000128885
-0.00244894
-0.0001535
-0.00236818
-0.000175648
0.00239481
4.29905e-05
-4.8921e-05
-0.00242631
0.00126004
-0.00125844
2.93626e-05
8.16844e-05
0.00122892
0.00125491
6.6515e-05
-7.22255e-05
-0.0012492
0.000642487
-2.3044e-05
-0.000640711
4.31788e-05
-2.19101e-05
-0.000627367
-6.62926e-05
6.36237e-05
0.000630036
0.000329829
9.39133e-06
-0.000338304
-9.16125e-07
-0.000331979
5.14373e-05
-5.65525e-05
0.000337095
3.34699e-05
-0.00133038
0.00253164
4.7198e-05
-0.0025245
-5.43371e-05
-0.000133774
0.00249521
-1.86091e-05
2.53868e-05
-0.00243026
0.00124513
-0.0012493
-2.91453e-05
2.07936e-05
0.00126105
0.00126505
-4.30112e-06
6.23211e-06
-0.00126698
0.000657353
8.03605e-06
-0.000658777
-8.96572e-06
2.35389e-06
-0.000656737
-7.79594e-06
1.33612e-05
0.000656479
-5.30753e-06
0.000308588
-4.59404e-07
-0.000308086
-4.25521e-08
-0.000309123
-1.43236e-07
0.000309544
-2.77125e-07
-5.53085e-05
-0.00131397
0.00251258
-4.62428e-05
-0.00252379
5.74484e-05
-2.48067e-05
0.0025339
-5.95291e-05
7.2256e-05
-0.00239215
0.00120053
-0.00120687
-6.04125e-05
-3.49432e-05
0.00124065
0.0012269
-5.43797e-05
6.05322e-05
-0.00123305
4.23023e-05
0.000619835
-0.000621903
-4.02342e-05
-0.00063648
1.62581e-05
-3.00556e-05
0.00063346
1.6818e-05
0.000340786
-4.4015e-05
-0.000349317
5.25462e-05
-0.00032247
-1.00398e-05
2.47069e-06
0.000330039
-0.000100722
-0.00124643
0.00244271
-0.000105982
-0.00246279
0.00012606
8.04105e-05
0.00249847
0.000589276
-8.02301e-05
-0.000592183
4.18986e-05
4.12383e-05
-0.000308696
-3.9892e-05
4.079e-05
0.000307798
-9.9207e-05
-0.00117319
0.00236442
-0.000118613
-0.0023828
0.000136995
0.000135022
0.00242266
0.000540855
-5.90472e-05
-0.00054319
6.13829e-05
-0.00056328
-7.27098e-05
7.57892e-05
0.000560201
-1.90843e-05
1.11909e-05
-0.00225047
-1.98999e-05
0.000877504
-0.000851393
-6.21063e-06
2.36629e-08
0.000330499
-4.33831e-05
-0.000906759
-7.60288e-05
0.00227536
-0.00228407
8.47354e-05
3.68912e-05
0.00111882
-6.74963e-05
-0.000625829
6.59582e-05
-8.98563e-05
-0.000595694
8.4254e-05
0.000601296
-0.00117947
0.000111246
0.00119229
-0.000124066
-0.000596706
0.000603156
-4.85086e-05
-4.77981e-05
0.000628351
-0.000629582
-3.33944e-05
-3.28715e-05
8.48087e-05
-0.000534662
0.000541736
-9.18826e-05
9.18023e-05
-9.76242e-05
-0.000590884
4.57178e-05
-0.000334092
-4.36049e-05
6.24988e-05
-6.43208e-05
0.000312471
-0.00122493
0.000153138
-0.000170225
0.00124202
-0.000618836
-6.16909e-05
0.000626575
0.00011645
0.000333466
4.57945e-05
-0.000333543
-6.58189e-06
-0.000657132
1.63955e-05
-9.41774e-06
-2.32769e-05
4.18338e-05
0.000648125
-2.41958e-05
5.77648e-05
0.00125972
-6.25748e-05
-0.000319616
0.000322408
-2.60695e-05
0.000334354
-7.06577e-06
-0.00033387
0.000316193
0.000316438
-3.40124e-05
-3.65592e-05
-2.35542e-05
-0.000319105
-1.84358e-06
-0.000310885
3.60502e-06
1.57593e-05
-5.38466e-06
0.000319455
-0.00132605
7.51787e-05
0.0013325
-3.95314e-05
-4.20945e-05
-0.000333799
0.000327254
2.23043e-05
0.00033888
9.26367e-07
-0.00034165
0.00033724
4.76637e-05
1.70181e-05
-0.000341425
8.78454e-05
-0.0013185
-4.64112e-05
-4.89812e-05
1.64748e-05
-0.000639358
-2.80892e-05
1.44923e-05
7.15846e-06
-1.35557e-05
0.000651496
1.22544e-05
-1.21424e-05
0.00126196
1.52327e-05
-0.000339196
0.000335176
1.11785e-05
0.000320728
1.80134e-05
-0.000322267
0.000333205
-6.64716e-06
7.37431e-06
-0.000338535
-1.65465e-05
-0.000313404
7.48038e-06
-1.20042e-06
0.000308778
1.01073e-06
-0.00133707
-2.95578e-05
0.00133235
1.82715e-05
1.60085e-05
-0.000338352
0.00034006
-2.90834e-06
0.000327546
-2.21414e-05
-0.000321952
0.000337479
1.25789e-06
-2.39437e-06
-0.000336417
-1.72303e-05
-0.0013406
1.15485e-05
9.20779e-06
-0.000618436
-4.32516e-05
0.000617445
2.12852e-05
2.29576e-05
0.000600446
-5.00373e-05
5.19921e-05
-0.000602401
0.000318255
1.87316e-05
-0.000619706
2.18198e-05
2.17527e-05
-4.1325e-05
-0.000310661
4.32901e-05
-4.79429e-05
6.0544e-05
0.000328185
-0.00127693
-9.86538e-05
0.00126703
5.46256e-05
5.39278e-05
-0.000335767
0.000328547
-4.0723e-05
0.000617003
4.0825e-05
-7.68352e-05
-0.000622317
0.0003342
-1.66937e-05
-3.8955e-05
-0.000340827
-9.3351e-05
-0.00128653
5.20845e-05
5.08747e-05
-0.000579142
-4.99084e-05
0.000576943
5.21069e-05
0.000564005
-4.48424e-05
4.664e-05
-0.000565802
-5.09384e-05
0.000599064
5.23199e-05
-5.05918e-05
5.31682e-05
-0.000581718
-7.35133e-05
-0.000566775
7.70083e-05
-7.99998e-05