/*--------------------------------*- C++ -*----------------------------------*\
| =========                 |                                                 |
| \\      /  F ield         | OpenFOAM: The Open Source CFD Toolbox           |
|  \\    /   O peration     | Version:  5.x                                   |
|   \\  /    A nd           | Web:      www.OpenFOAM.org                      |
|    \\/     M anipulation  |                                                 |
\*---------------------------------------------------------------------------*/
FoamFile
{
    version     2.0;
    format      ascii;
    class       volScalarField;
    location    "500";
    object      pSat;
}
// * * * * * * * * * * * * * * * * * * * * * * * * * * * * * * * * * * * * * //

dimensions      [0 2 -2 0 0 0 0];

internalField   nonuniform List<scalar> 
6584
(
697.948
697.948
697.948
697.948
697.948
697.948
697.948
697.948
697.948
697.948
697.948
697.948
697.948
697.948
697.948
697.948
697.948
697.948
697.948
697.948
697.948
697.948
697.948
697.948
697.948
697.948
697.948
697.948
697.948
697.948
697.948
697.948
697.948
697.948
697.948
697.948
697.948
697.948
697.948
697.948
697.948
697.948
697.948
697.948
697.948
697.948
697.948
697.948
697.948
697.948
697.948
697.948
697.948
697.948
697.948
697.948
697.948
697.948
697.948
697.948
697.948
697.948
697.948
697.948
697.948
697.948
697.948
697.948
697.948
697.948
697.948
697.948
697.948
697.948
697.948
697.948
697.948
697.948
697.948
697.948
697.948
697.948
697.948
697.948
697.948
697.948
697.948
697.948
697.948
697.948
697.948
697.948
697.948
697.948
697.948
697.948
697.948
697.948
697.948
697.948
697.948
697.948
697.948
697.948
697.948
697.948
697.948
697.948
697.948
697.948
697.948
697.948
697.948
697.948
697.948
697.948
697.948
697.948
697.948
697.948
697.948
697.948
697.948
697.948
697.948
697.948
697.948
697.948
697.948
697.948
697.948
697.948
697.948
697.948
697.948
697.948
697.948
697.948
697.948
697.948
697.948
697.948
697.948
697.948
697.948
697.948
697.948
697.948
697.948
697.948
697.948
697.948
697.948
697.948
697.948
697.948
697.948
697.948
697.948
697.948
697.948
697.948
697.948
697.948
697.948
697.948
697.948
697.948
697.948
697.948
697.948
697.948
697.948
697.948
697.948
697.948
697.948
697.948
697.948
697.948
697.948
697.948
697.948
697.948
697.948
697.948
697.948
697.948
697.948
697.948
697.948
697.948
697.948
697.948
697.948
697.948
697.948
697.948
697.948
697.948
697.948
697.948
697.948
697.948
697.948
697.948
697.948
697.948
697.948
697.948
697.948
697.948
697.948
697.948
697.948
697.948
697.948
697.948
697.948
697.948
697.948
697.948
697.948
697.948
697.948
697.948
697.948
697.948
697.948
697.948
697.948
697.948
697.948
697.948
697.948
697.948
697.948
697.948
697.948
697.948
697.948
697.948
697.948
697.948
697.948
697.948
697.948
697.948
697.948
697.948
697.948
697.948
697.948
697.948
697.948
697.948
697.948
697.948
697.948
697.948
697.948
697.948
697.948
697.948
697.948
697.948
697.948
697.948
697.948
697.948
697.948
697.948
697.948
697.948
697.948
697.948
697.948
697.948
697.948
697.948
697.948
697.948
697.948
697.948
697.948
697.948
697.948
697.948
697.948
697.948
697.948
697.948
697.948
697.948
697.948
697.948
697.948
697.948
697.948
697.948
697.948
697.948
697.948
697.948
697.948
697.948
697.948
697.948
697.948
697.948
697.948
697.948
697.948
697.948
697.948
697.948
697.948
697.948
572.993
697.948
697.948
697.948
697.948
697.948
697.948
697.948
697.948
697.948
697.948
697.948
697.948
697.948
697.948
697.948
697.948
697.948
697.948
697.948
697.948
697.948
697.948
697.948
663.221
697.948
697.948
697.948
697.948
697.948
697.948
697.948
697.948
697.948
697.948
697.948
697.948
697.948
697.948
697.948
697.948
697.948
697.948
697.948
697.948
697.948
697.948
697.946
665.916
697.948
697.948
697.948
697.948
697.948
697.948
697.948
697.948
697.948
697.948
697.948
697.948
697.948
697.948
697.948
697.948
697.948
697.948
697.948
697.948
697.948
697.948
697.444
682.609
697.948
697.948
697.948
697.948
697.948
697.948
697.948
697.948
697.948
697.948
697.948
697.948
697.948
697.948
697.948
697.948
697.948
697.948
697.948
697.948
697.948
697.948
697.141
682.982
697.948
697.948
697.948
697.948
697.948
697.948
697.948
697.948
697.948
697.948
697.948
697.948
697.948
697.948
697.948
697.948
697.948
697.948
697.948
697.948
697.948
697.861
679.619
690.733
697.948
697.948
697.948
697.948
697.948
697.948
697.948
697.948
697.948
697.948
697.948
697.948
697.948
697.948
697.948
697.948
697.948
697.948
697.948
697.948
697.948
697.784
679.679
690.784
697.947
697.948
697.948
697.948
697.948
697.948
697.948
697.948
697.948
697.948
697.948
697.948
697.948
697.948
697.948
697.948
697.948
697.948
697.948
697.948
697.947
697.71
679.732
690.828
697.946
697.948
697.948
697.948
697.948
697.948
697.948
697.948
697.948
697.948
697.948
697.948
697.948
697.948
697.948
697.948
697.948
697.948
697.948
697.948
697.946
697.639
679.781
690.866
697.945
697.948
697.948
697.948
697.948
697.948
697.948
697.948
697.948
697.948
697.948
697.948
697.948
697.948
697.948
697.948
697.948
697.948
697.948
697.948
697.944
697.57
679.825
690.899
697.944
697.948
697.948
697.948
697.948
697.948
697.948
697.948
697.948
697.948
697.948
697.948
697.948
697.948
697.948
697.948
697.948
697.948
697.948
697.948
697.943
697.505
679.866
690.929
697.943
697.948
697.948
697.948
697.948
697.948
697.948
697.948
697.948
697.948
697.948
697.948
697.948
697.948
697.948
697.948
697.948
697.948
697.948
697.948
697.941
697.442
679.904
690.957
697.942
697.948
697.948
697.948
697.948
697.948
697.948
697.948
697.948
697.948
697.948
697.948
697.948
697.948
697.948
697.948
697.948
697.948
697.948
697.948
697.939
697.374
679.944
690.984
697.941
697.948
697.948
697.948
697.948
697.948
697.948
697.948
697.948
697.948
697.948
697.948
697.948
697.948
697.948
697.948
697.948
697.948
697.948
697.948
697.937
697.302
679.987
691.014
697.941
697.948
697.948
697.948
697.948
697.948
697.948
697.948
697.948
697.948
697.948
697.948
697.948
697.948
697.948
697.948
697.948
697.948
697.948
697.948
697.934
697.233
680.029
691.042
697.94
697.948
697.948
697.948
697.948
697.948
697.948
697.948
697.948
697.948
697.948
697.948
697.948
697.948
697.948
697.948
697.948
697.948
697.948
697.948
697.931
697.165
680.069
691.069
697.939
697.948
697.948
697.948
697.948
697.948
697.948
697.948
697.948
697.948
697.948
697.948
697.948
697.948
697.948
697.948
697.948
697.948
697.948
697.948
697.928
697.099
680.108
691.095
697.938
697.948
697.948
697.948
697.948
697.948
697.948
697.948
697.948
697.948
697.948
697.948
697.948
697.948
697.948
697.948
697.948
697.948
697.948
697.948
697.924
697.034
680.146
691.12
697.937
697.948
697.948
697.948
697.948
697.948
697.948
697.948
697.948
697.948
697.948
697.948
697.948
697.948
697.948
697.948
697.948
697.948
697.948
697.948
697.921
696.97
680.184
691.145
697.936
697.948
697.948
697.948
697.948
697.948
697.948
697.948
697.948
697.948
697.948
697.948
697.948
697.948
697.948
697.948
697.948
697.948
697.948
697.948
697.917
696.906
680.222
691.17
697.936
697.948
697.948
697.948
697.948
697.948
697.948
697.948
697.948
697.948
697.948
697.948
697.948
697.948
697.948
697.948
697.948
697.948
697.948
697.948
697.913
696.842
680.26
691.194
697.935
697.948
697.948
697.948
697.948
697.948
697.948
697.948
697.948
697.948
697.948
697.948
697.948
697.948
697.948
697.948
697.948
697.948
697.948
697.948
697.909
696.777
680.298
691.218
697.934
697.948
697.948
697.948
697.948
697.948
697.948
697.948
697.948
697.948
697.948
697.948
697.948
697.948
697.948
697.948
697.948
697.948
697.948
697.947
697.904
696.71
680.338
691.243
697.933
697.948
697.948
697.948
697.948
697.948
697.948
697.948
697.948
697.948
697.948
697.948
697.948
697.948
697.948
697.948
697.948
697.948
697.948
697.948
697.948
697.948
697.948
697.948
697.948
697.948
697.948
562.396
567.976
697.948
697.948
697.948
697.948
697.948
697.948
697.948
697.948
697.948
697.948
697.948
697.948
697.948
697.948
697.948
697.948
697.948
697.948
697.745
697.91
697.507
697.888
697.948
697.948
697.948
697.948
697.948
697.948
697.948
697.087
697.202
692.889
695.323
697.948
697.948
697.948
697.948
697.948
697.948
697.948
697.388
697.23
696.571
694.288
697.948
697.948
697.948
697.695
697.626
697.948
697.948
697.948
697.886
697.839
697.948
594.949
562.869
636.326
697.948
697.948
697.923
697.948
697.948
697.947
697.841
697.948
697.948
697.9
697.948
697.948
697.948
697.931
697.25
697.694
697.948
697.091
695.149
697.792
697.187
695.477
697.489
697.948
697.717
697.23
697.925
697.728
697.948
697.207
697.096
697.948
694.661
695.591
695.064
694.619
694.195
692.75
697.948
697.08
697.288
697.224
697.09
697.948
695.272
696.145
695.662
695.129
697.599
696.7
697.948
697.651
697.844
697.3
697.63
697.948
696.913
697.256
696.251
696.848
697.829
697.718
697.852
697.895
697.948
697.519
697.266
697.296
697.5
697.907
697.891
697.948
697.948
697.948
697.933
697.948
697.948
697.948
697.948
697.948
697.702
697.585
691.178
687.602
697.948
697.948
697.948
697.948
697.935
697.948
697.948
697.948
697.565
697.411
697.948
544.765
566.39
644.205
657.631
567.712
596.311
686.911
680.427
697.948
697.899
697.921
659.278
667.74
697.923
697.933
697.948
697.948
697.948
697.948
697.948
697.948
697.948
697.925
697.948
697.938
697.948
697.941
697.948
697.645
697.743
694.286
694.41
695.782
695.522
697.608
680.55
697.758
693.922
691.581
691.979
694.106
697.864
695.291
697.936
690.097
697.041
688.592
697.924
697.238
697.934
697.948
697.894
696.019
697.937
697.94
695.996
695.874
697.634
697.591
696.307
696.418
697.26
697.943
697.945
697.941
697.942
697.257
697.854
697.947
697.948
697.946
697.947
697.822
695.103
695.156
694.632
694.594
691.056
691.292
697.001
697.941
697.94
697.942
697.941
697
697.173
697.94
697.941
697.94
697.94
697.165
546.636
695.677
569.95
546.051
599.973
571.537
695.8
694.531
548.386
694.678
697.324
697.262
697.456
697.943
697.942
697.944
697.943
697.489
625.433
641.45
696.538
627.061
602.162
648.26
629.973
696.623
599.406
622.943
697.791
687.825
691.569
681.343
687.075
697.776
678.838
668.001
670.988
579.246
668.711
666.83
596.788
693.922
694.142
697.946
697.948
697.948
697.948
697.948
697.866
697.853
627.681
697.687
697.845
697.947
697.787
697.715
697.948
565.95
571.034
550.558
668.017
667.962
575.297
583.268
692.844
693.859
509.228
697.948
697.948
697.948
697.948
697.948
697.948
697.841
697.947
697.945
697.519
697.352
697.825
697.093
697.935
697.935
697.937
697.935
697.107
693.546
694.955
696.239
694.518
664.989
659.037
697.87
694.332
695.818
696.455
696.493
590.281
697.948
697.944
697.948
697.917
697.601
697.423
697.946
697.948
697.948
697.948
697.948
697.945
697.424
697.94
697.938
697.944
697.941
697.488
696.61
675.711
688.516
666.803
668.885
695.435
689.821
691.223
697.387
695.827
696.776
697.452
697.907
697.91
697.878
697.883
697.244
697.935
697.936
697.134
694.879
661.588
654.466
694.841
663.778
666.21
653.195
654.63
694.542
692.958
691.868
697.036
697.88
697.877
697.871
697.896
697.176
697.204
697.874
697.877
697.876
697.873
697.125
697.499
691.492
692.869
689.61
688.778
696.977
697.804
697.945
697.944
697.946
697.945
697.815
697.081
661.823
650.233
674.437
670.598
697.129
608.293
612.951
697.399
678.751
675.636
602.685
606.92
672.286
666.542
697.946
697.947
697.947
658.903
689.86
662.909
665.711
665
689.399
697.948
697.94
697.948
697.919
697.947
547.411
554.405
567.9
566.314
650.558
580.945
577.518
589.907
582.076
652.31
575.1
580.541
684.503
683.41
663.472
602.269
594.02
584.272
588.77
697.904
697.945
697.948
697.932
697.943
697.889
697.526
697.814
693.68
694.827
696.156
694.661
681.957
693.557
692.555
694.61
693.872
681.688
690.262
689.302
692.24
690.797
693.095
674.685
678.24
668.213
672.918
692.749
655.796
657.558
693.507
697.708
697.479
697.907
697.772
694.395
695.959
695.442
697.295
696.181
697.816
697.944
697.922
697.729
697.559
697.831
697.641
697.922
697.686
697.879
697.925
697.727
697.859
697.945
697.906
697.844
671.686
673.837
696.426
653.696
645.075
677.558
655.556
632.93
625.402
642.465
636.223
695.542
669.626
671.15
688.566
686.126
695.167
690.59
683.108
680.325
685.673
683.835
697.442
691.542
692.416
695.947
696.715
697.894
697.903
697.342
697.248
697.885
697.891
663.431
662.824
694.944
616.573
616.521
586.665
612.88
613.464
622.919
615.843
613.79
660.227
662.974
694.778
613.599
606.176
623.611
615.901
592.471
585.273
603.33
595.832
694.552
655.96
659.144
692.113
691.687
697.886
697.881
697.025
697.108
697.894
697.887
697.872
697.873
697.197
697.134
697.873
697.872
549.131
556.53
665.156
669.994
658.857
663.443
548.369
588.51
676.493
668.946
671.325
675.261
582.573
638.464
641.083
628.531
637.488
555.221
652.735
657.586
642.55
650.19
555.07
690.272
691.151
697.461
686.624
688.365
688.855
686.542
688.342
697.046
688.264
689.542
631.853
563.142
564.351
575.096
563.797
634.161
568.073
608.386
564.722
612.261
684.329
695.446
694.838
696.168
695.649
684.829
676.353
677.303
615.02
620.106
591.857
600.927
676.242
673.613
697.948
697.948
697.948
697.948
697.939
697.941
697.948
697.948
697.948
697.948
697.948
697.948
697.948
697.948
697.948
697.948
697.947
697.863
697.511
696.793
696.697
693.042
695.197
697.937
697.938
697.294
691.407
690.981
694.356
693.177
693.89
697.692
697.943
697.948
697.948
696.845
697.176
697.876
697.938
697.917
697.946
697.768
695.111
696.694
695.593
696.596
696.489
697.428
697.614
697.616
697.235
697.917
697.922
697.746
697.15
697.936
697.937
666.502
663.481
695.384
694.03
691.981
691.808
692.611
697.07
697.614
697.612
697.218
697.611
697.612
697.61
697.608
697.1
694.253
671.204
668.045
697.334
697.878
697.875
697.874
697.947
697.946
574.073
574.347
682.054
679.675
697.427
573.835
573.903
695.961
696.292
697.902
697.937
697.927
543.409
546.678
548.023
564.549
569.166
543.982
545.265
566.785
562.825
592.226
675.263
674.188
681.431
609.319
603.841
664.633
697.948
697.948
697.948
697.902
697.923
697.939
697.944
697.863
697.88
697.948
697.948
697.947
697.257
697.21
697.576
697.785
697.617
697.53
693.989
694.535
692.543
692.874
695.954
695.2
691.142
691.879
683.109
683.246
687.192
686.647
680.535
683.579
683.969
697.711
694.172
694.943
694.628
691.74
695.75
695.281
697.6
697.415
696.612
683.353
681.453
694.079
690.667
685.835
697.947
697.946
697.875
697.849
697.661
697.756
696.586
697.765
697.832
692.699
694.184
697.743
678.991
676.698
696.197
696.526
697.937
697.94
697.891
697.754
697.926
697.931
695.325
663.163
663.225
691.085
691.42
697.605
697.606
697.18
697.153
697.605
697.605
548.444
567.958
605.743
608.272
579.635
581.568
543.886
673.456
671.794
694.391
554.975
552.016
570.301
570.648
550.833
577.727
578.599
549.667
550.24
697.886
697.882
697.354
697.555
697.893
697.89
614.859
674.211
675.882
670.708
672.454
610.644
689.555
695.847
696.309
696.219
696.043
690.132
682.569
688.627
687.891
677.116
675.667
679.047
582.292
584.303
585.63
574.008
671.306
619.651
611.954
626.593
621.578
665.582
653.151
653.677
679.191
682.167
694.686
697.946
697.946
697.939
566.098
567.617
615.543
615.539
545.959
579.546
573.573
572.893
573.07
573.476
581.897
510.823
674.712
676.117
697.948
697.948
697.948
696.976
696.886
697.514
697.173
697.476
697.68
697.383
697.438
693.33
695.075
689.31
689.82
689.87
689.295
694.426
690.679
690.507
663.664
653.811
653.719
655.558
655.167
661.981
697.551
697.773
697.782
697.744
697.765
697.496
695.708
697.25
696.369
696.064
697.24
697.618
697.621
691.944
692.077
693.688
692.167
697.618
697.616
697.05
697.609
697.609
697.211
697.115
697.607
697.606
689.649
691.381
690.663
691.989
691.759
689.479
574.787
575.678
574.228
573.911
604.159
586.188
585.127
655.763
655.74
670.533
658.788
661.19
654.429
656.29
668.495
697.942
697.939
697.944
697.936
697.946
697.948
697.948
697.943
697.945
697.942
661.999
677.17
676.292
679.619
678.349
662.945
668.746
673.024
671.227
675.585
674.667
667.21
697.944
697.947
697.945
697.868
697.804
697.934
697.923
543.539
561.114
548.862
548.25
567.401
566.838
597.438
599.529
578.943
544.399
543.255
571.376
553.875
554.166
552.66
586.733
555.956
549.033
676.134
677.765
685.46
671.723
672.204
670.458
670.808
682.347
673.739
674.418
585.275
572.032
572.583
571.946
571.59
586.632
697.93
697.934
697.915
697.844
697.891
697.923
696.846
697.542
697.143
697.063
697.244
697.317
697.076
697.166
693.817
694.666
690.44
690.584
690.024
690.239
696.068
693.052
693.178
690.45
690.67
694.891
690.56
684.584
683.49
681.074
686.188
685.599
689.867
684.471
684.326
686.191
685.202
689.584
691.866
687.068
687.646
684.961
686.061
691.371
684.074
669.769
681.631
680.741
654.689
655.591
693.081
696.144
695.949
692.627
695.151
696.91
696.452
686.439
684.819
692.282
692.649
695.628
689.836
688.167
697.142
697.388
697.793
697.542
696.827
695.807
696.767
697.799
697.876
697.892
697.8
697.832
697.669
697.474
697.636
697.892
697.827
697.8
697.897
697.843
697.906
697.759
697.766
697.674
697.785
651.417
648.052
671.27
643.688
646.726
637.301
657.226
630.05
627.549
640.2
638.28
687.338
676.148
678.809
670.768
673.376
686.632
694.642
690.445
691.671
680.383
687.552
693.374
674.539
670.281
682.369
654.33
656.841
650.083
652.164
681.55
685.204
666.339
668.423
659.677
662.851
684.548
696.087
696.628
617.596
589.704
593.468
582.088
585.709
617.168
593.542
595.386
595.113
603.796
614.77
562.854
566.3
569.107
563.191
617.894
615.177
575.798
578.792
570.021
573.105
614.519
611.691
609.473
621.746
618.608
589.505
586.841
600.903
598.875
691.452
691.547
697.188
697.607
697.608
697.606
697.605
697.143
549.654
596.846
602.118
564.175
543.845
585.164
590.658
561.287
558.036
639.244
592.008
592.378
633.111
587.356
578.633
592.399
591.149
635.926
568.592
564.783
572.193
576.005
553.365
555.099
563.997
690.663
694.056
693.782
694.461
694.265
690.907
687.217
688.046
688.025
686.509
686.498
687.12
688.212
692.526
692.213
693.4
692.949
688.751
563.483
577.936
579.63
575.475
576.697
563.898
570.744
590.623
594.558
582.322
586.207
566.438
567.319
555.065
557.119
554.23
554.415
564.806
571.097
573.843
561.239
566.148
564.042
689.742
689.261
683.689
676.187
678.388
577.68
580.953
595.377
577.84
574.088
583.787
581.632
598.557
574.73
574.602
653.808
654.212
697.948
697.948
697.948
697.948
697.948
697.948
697.948
697.948
697.948
697.948
697.948
697.948
697.948
697.948
697.948
697.948
697.948
697.948
697.948
697.948
697.948
697.948
697.948
697.948
697.948
697.948
697.948
697.948
697.948
697.948
697.948
697.948
697.948
697.948
697.948
697.948
697.948
697.948
697.948
697.948
697.948
697.948
697.948
697.948
697.948
697.948
697.948
697.948
697.948
697.948
697.948
697.948
697.948
697.948
697.948
697.948
697.948
697.948
697.948
697.948
697.948
697.948
697.948
697.948
697.948
697.948
697.948
697.948
697.948
697.948
697.948
697.948
697.948
697.948
697.948
697.948
697.948
697.948
697.948
697.948
697.948
697.948
697.948
697.948
697.948
697.947
697.947
697.948
697.948
697.948
697.948
697.948
697.948
697.948
697.948
697.948
697.948
697.948
697.948
697.948
697.947
697.947
697.948
697.948
697.948
697.948
697.948
697.948
697.948
697.948
697.948
697.948
697.947
697.947
697.948
697.948
697.948
697.948
697.948
697.948
697.948
697.948
697.948
697.948
697.948
697.948
697.948
697.948
697.948
697.948
697.948
697.948
697.948
697.948
697.948
697.948
697.828
697.826
587.81
690.656
691.285
697.948
697.948
697.948
697.948
697.948
697.948
697.948
697.948
697.948
697.948
697.948
697.948
697.947
628.241
626.468
665.304
697.948
697.948
697.948
697.948
697.948
697.948
697.948
697.948
697.948
697.947
697.948
697.628
660.6
628.758
682.399
697.939
697.948
697.948
697.948
697.948
697.948
697.948
697.948
697.948
697.948
697.948
697.948
697.948
697.948
697.947
697.947
697.948
697.948
697.947
697.946
697.948
697.948
697.948
697.947
697.947
697.948
697.948
697.946
697.946
697.946
697.946
697.948
697.947
697.947
697.948
697.948
697.947
697.948
697.947
697.947
697.948
697.948
697.948
697.948
697.948
697.948
697.948
697.825
697.87
697.948
545.675
607.592
608.311
649.674
649.826
512.044
697.948
697.948
697.948
697.948
697.948
697.948
697.948
697.948
697.947
697.948
697.948
697.948
697.948
697.948
697.948
697.948
697.948
697.948
697.948
697.948
697.948
697.948
697.948
697.948
697.948
697.948
697.948
697.948
697.948
697.948
697.946
697.941
697.948
697.948
697.948
697.948
697.948
697.948
697.948
697.948
697.948
697.948
697.948
697.948
697.948
697.948
697.948
697.948
697.948
697.948
697.948
697.948
697.948
697.948
697.948
697.948
697.783
697.903
697.893
697.94
697.936
697.898
697.82
697.75
697.866
697.948
697.948
697.948
697.948
697.948
697.948
697.948
697.948
697.948
697.948
697.948
697.948
697.948
697.948
697.948
697.948
697.948
697.948
697.947
697.947
697.948
697.083
697.734
697.735
697.76
697.75
697.162
697.948
697.948
697.948
697.948
697.948
697.948
697.948
697.948
697.948
697.948
697.948
697.948
697.948
697.948
697.948
697.948
697.948
697.948
697.947
697.947
697.948
697.317
697.938
697.94
697.768
697.773
697.251
696.443
693.73
694.094
697.948
697.948
697.948
697.948
697.948
697.948
697.948
697.948
697.948
697.668
695.88
696.303
696.965
697.04
697.65
697.948
697.948
697.948
697.948
697.948
697.948
697.948
697.948
697.948
697.882
697.685
697.705
697.509
697.547
697.848
697.88
697.828
697.948
591.39
696.493
696.437
668.289
668.874
565.444
697.716
697.694
629.987
697.948
697.931
697.939
697.941
697.93
697.948
697.932
697.945
697.943
697.948
697.948
697.946
697.948
697.948
697.948
697.945
697.895
697.938
697.948
697.948
697.948
697.944
697.947
697.948
697.906
697.859
697.848
697.947
697.946
697.947
697.948
697.948
697.948
697.948
697.948
697.948
697.945
697.946
697.939
697.304
697.786
697.773
697.881
697.866
697.627
697.948
697.948
697.948
696.964
695.574
695.95
691.341
691.507
695.238
696.192
696.36
697.263
697.948
697.947
697.948
697.691
697.82
697.834
697.899
697.942
697.944
697.842
697.847
697.735
697.948
697.948
697.948
697.186
697.758
697.762
697.737
697.739
697.107
697.948
697.947
697.947
694.737
690.262
690.08
692.134
691.959
695.517
694.985
691.033
691.184
689.953
689.874
694.571
697.946
697.946
697.948
697.721
697.712
697.268
697.948
697.946
697.946
695.412
682.74
680.731
690.596
690.147
696.035
695.731
692.484
692.313
680.096
677.898
694.983
697.569
696.785
696.881
694.482
694.806
696.814
697.947
697.947
697.948
697.703
697.907
697.904
697.921
697.919
697.835
697.31
697.736
697.729
697.9
697.897
697.572
697.948
697.947
697.947
696.973
694.03
693.782
695.195
695.033
697.217
696.351
691.438
691.023
693.514
693.224
696.778
697.818
697.419
697.466
696.426
696.744
697.74
697.86
697.925
697.923
697.947
697.947
697.88
697.948
697.948
697.948
697.566
684.396
682.733
681.928
683.794
697.553
697.333
695.486
695.346
697.904
696.346
696.419
697.948
697.948
697.948
697.948
697.948
697.948
697.948
697.948
697.948
697.948
697.948
697.948
697.948
697.948
697.948
697.948
697.948
697.948
697.947
697.947
697.948
697.657
697.935
697.935
697.933
697.934
697.64
690.747
685.852
686.587
680.938
682.101
688.277
697.948
697.948
697.948
697.948
697.948
697.948
697.906
697.929
697.942
697.948
697.948
697.948
697.948
697.948
697.948
697.948
697.948
697.948
697.502
697.941
697.932
697.94
697.941
697.48
697.948
697.947
697.947
646.567
622.805
620.481
635.707
633.199
655.847
686.222
678.82
679.8
697.948
697.948
697.948
697.91
697.947
697.947
697.947
697.948
697.913
660.833
640.579
638.207
651.009
649.42
666.743
697.928
697.947
697.947
697.947
697.947
697.93
697.948
697.948
697.948
697.948
697.948
697.948
697.948
697.948
697.948
697.948
697.948
697.948
697.948
697.948
697.948
697.948
697.948
697.948
697.948
697.948
697.948
697.948
697.947
697.948
697.948
697.948
697.948
697.945
697.947
697.944
697.948
697.948
697.948
695.141
695.709
697.64
697.744
697.344
697.391
693.68
690.415
690.816
687.265
687.857
691.945
693.043
696.518
696.377
696.757
696.644
693.332
697.856
697.581
697.611
697.767
697.871
697.942
697.903
697.297
697.699
697.404
697.769
697.693
697.945
697.94
697.919
697.948
697.948
697.948
697.923
697.915
697.934
697.942
697.933
697.928
692.908
693.163
696.123
695.761
692.47
692.68
697.167
697.276
697.674
697.544
696.953
697.06
697.64
697.65
697.268
697.944
697.933
697.931
697.937
697.935
697.944
697.941
697.926
697.925
697.929
697.928
697.942
697.255
697.631
697.635
697.907
697.914
697.872
697.948
697.946
697.945
697.947
697.946
697.948
697.946
697.941
697.939
697.944
697.942
697.947
697.789
697.883
697.896
691.127
691.032
695.052
695.211
691.325
691.224
690.254
690.369
694.674
694.571
690.055
690.148
697.63
697.627
697.007
697.941
697.925
697.925
697.924
697.924
697.941
697.942
697.928
697.929
697.926
697.927
697.941
697.011
697.643
697.636
697.94
697.923
697.923
697.924
697.923
697.94
697.94
697.923
697.923
697.923
697.923
697.94
688.645
683.425
695.55
597.326
630.957
633.998
610.452
612.861
573.689
695.92
689.655
689.15
694.831
676.955
674.147
696.09
696.233
697.376
697.192
695.719
695.915
697.787
697.777
697.418
697.943
697.931
697.932
697.929
697.93
697.943
697.944
697.934
697.935
697.933
697.934
697.944
697.516
697.805
697.797
627.621
600.782
598.757
617.731
614.516
639.104
692.222
691.84
696.447
623.562
653.108
655.435
636.532
639.136
604.441
640.683
680.078
681.279
677.381
678.766
637.895
696.703
692.91
692.579
602.148
571.579
569.357
596.299
592.901
619.919
697.308
697.366
697.805
688.424
692.327
691.946
694.458
694.197
691.138
691.508
691.036
686.225
697.759
697.169
697.242
669.114
633.063
628.169
639.074
634.857
670.171
669.63
654.148
652.596
693.714
682.963
684.708
691.191
691.549
694.342
697.948
697.948
697.948
697.948
697.948
697.948
697.862
697.939
697.94
697.939
697.939
697.858
685.602
685.183
624.998
697.689
696.041
696.079
696.03
696.052
697.709
697.76
697.937
697.938
697.936
697.937
697.75
697.948
697.947
697.947
580.025
575.736
546.848
667.682
641.208
633.955
642.411
641.709
667.683
693.625
679.97
678.346
684.335
687.164
693.897
509.564
599.441
619.025
697.948
697.948
697.948
697.948
697.948
697.948
697.948
697.948
697.948
697.948
697.948
697.948
697.948
697.948
697.948
697.948
697.948
697.948
697.919
697.912
697.814
697.946
697.939
697.941
697.934
697.937
697.946
697.842
697.699
697.672
697.735
697.734
697.084
697.935
697.895
697.895
697.895
697.895
697.935
697.936
697.899
697.901
697.895
697.897
697.936
697.13
697.742
697.737
693.303
693.469
696.332
697.639
697.663
697.876
695.487
696.946
696.857
697.097
697.026
695.66
696.475
686.959
682.169
687.082
687.044
696.487
589.134
656.342
655.869
697.948
697.948
697.948
697.948
697.948
697.948
697.948
697.948
697.948
697.874
697.866
697.912
697.948
697.948
697.947
697.948
697.948
697.948
697.948
697.948
697.948
697.948
697.948
697.947
697.948
697.948
697.948
697.942
697.947
697.947
697.817
697.802
697.363
697.939
697.912
697.916
697.904
697.908
697.939
697.943
697.927
697.931
697.92
697.924
697.942
697.555
697.85
697.833
694.389
695.011
696.798
679.556
690.461
688.614
693.497
692.378
685.438
667.44
683.517
683.231
684.151
683.824
668.14
695.335
691.686
691.876
690.464
694.404
694.068
694.852
694.645
690.88
697.328
696.495
696.617
697.746
697.795
697.62
697.909
697.898
697.882
697.88
697.805
697.802
697.811
697.808
697.881
697.935
697.896
697.895
697.897
697.896
697.935
697.12
697.742
697.745
690.654
690.464
694.806
659.408
680.988
681.609
679.66
680.28
656.745
690.74
690.882
694.909
664.655
682.367
682.059
682.961
682.679
665.55
652.808
679.062
679.253
679.257
679.023
653.471
694.564
689.844
689.836
697.879
697.801
697.803
697.798
697.799
697.878
697.832
697.837
697.898
697.233
697.698
697.684
697.874
697.796
697.795
697.8
697.798
697.875
697.875
697.795
697.797
697.794
697.794
697.874
696.57
696.679
697.535
691.954
694.919
694.677
695.384
695.163
692.448
696.904
695.033
695.2
697.912
697.909
697.793
697.945
697.937
697.938
697.936
697.937
697.945
697.946
697.94
697.941
697.939
697.939
697.946
697.825
697.917
697.915
694.475
694.26
697.029
657.03
684.287
685.145
682.367
683.364
655.383
673.191
687.307
687.934
685.92
686.638
671.921
697.175
694.86
694.674
609.704
590.452
589.337
593.316
591.708
611.215
695.737
695.616
697.367
677.778
689.55
690.008
688.519
689.054
676.745
588.271
587.224
605.549
697.948
697.947
697.946
684.477
685.133
690.304
688.884
683.095
683.84
697.947
697.948
697.948
697.948
697.948
697.947
697.945
697.939
697.944
626.815
624.853
648.627
579.981
601.233
602.838
586.264
609.173
612.27
604.553
606.602
583.703
654.136
630.901
628.777
644.546
642.686
662.229
600.349
621.152
623.251
615.552
618.605
597.682
697.946
697.943
697.94
697.946
697.945
697.947
697.936
697.918
697.91
697.937
697.927
697.94
697.658
697.646
697.802
693.214
689.251
689.933
688.089
688.602
692.872
694.38
691.339
691.719
690.52
690.964
694.141
689.481
689.975
693.406
676.188
684.919
684.143
686.165
685.577
677.303
683.295
682.449
671.212
692.361
688.408
688.955
697.646
697.146
697.262
696.821
697.026
697.577
697.882
697.752
697.823
697.413
697.597
697.835
695.788
692.918
693.194
696.914
695.093
696.328
693.564
694.174
696.501
697.905
697.845
697.593
697.94
697.919
697.935
697.863
697.894
697.933
697.929
697.9
697.885
697.941
697.937
697.944
697.879
697.92
697.93
697.901
697.91
697.858
672.269
686.128
685.73
687.378
686.635
672.939
696.267
693.469
693.863
692.073
692.27
695.649
670.172
684.784
684.48
685.388
685.078
670.65
696.732
696.844
697.495
691.85
695.237
695.047
695.606
695.423
692.144
697.897
697.84
697.833
697.864
697.85
697.9
697.289
697.667
697.698
697.624
697.628
697.252
697.887
697.818
697.815
697.827
697.823
697.889
663.569
682.501
682.648
682.048
682.319
663.365
694.998
690.929
690.81
661.346
681.193
680.861
681.77
681.491
662.22
694.725
690.487
690.608
689.892
689.97
694.548
657.185
679.925
679.589
680.534
680.228
658.15
697.884
697.809
697.812
697.805
697.807
697.883
697.015
697.623
697.62
697.669
697.654
697.047
697.891
697.822
697.827
697.814
697.818
697.889
697.872
697.793
697.792
697.794
697.793
697.872
697.873
697.793
697.793
697.792
697.792
697.872
666.769
638.244
635.027
643.047
640.876
668.48
660.22
625.434
623.419
631.476
628.124
661.752
623.453
627.037
593.629
677.635
656.238
653.944
672.665
647.015