/*--------------------------------*- C++ -*----------------------------------*\
| =========                 |                                                 |
| \\      /  F ield         | OpenFOAM: The Open Source CFD Toolbox           |
|  \\    /   O peration     | Version:  5.x                                   |
|   \\  /    A nd           | Web:      www.OpenFOAM.org                      |
|    \\/     M anipulation  |                                                 |
\*---------------------------------------------------------------------------*/
FoamFile
{
    version     2.0;
    format      ascii;
    class       volScalarField;
    location    "500";
    object      T;
}
// * * * * * * * * * * * * * * * * * * * * * * * * * * * * * * * * * * * * * //

dimensions      [0 0 0 1 0 0 0];

internalField   nonuniform List<scalar> 
6584
(
275
275
275
275
275
275
275
275
275
275
275
275
275
275
275
275
275
275
275
275
275
275
275
275
275
275
275
275
275
275
275
275
275
275
275
275
275
275
275
275
275
275
275
275
275
275
275
275
275
275
275
275
275
275
275
275
275
275
275
275
275
275
275
275
275
275
275
275
275
275
275
275
275
275
275
275
275
275
275
275
275
275
275
275
275
275
275
275
275
275
275
275
275
275
275
275
275
275
275
275
275
275
275
275
275
275
275
275
275
275
275
275
275
275
275
275
275
275
275
275
275
275
275
275
275
275
275
275
275
275
275
275
275
275
275
275
275
275
275
275
275
275
275
275
275
275
275
275
275
275
275
275
275
275
275
275
275
275
275
275
275
275
275
275
275
275
275
275
275
275
275
275
275
275
275
275
275
275
275
275
275
275
275
275
275
275
275
275
275
275
275
275
275
275
275
275
275
275
275
275
275
275
275
275
275
275
275
275
275
275
275
275
275
275
275
275
275
275
275
275
275
275
275
275
275
275
275
275
275
275
275
275
275
275
275
275
275
275
275
275
275
275
275
275
275
275
275
275
275
275
275
275
275
275
275
275
275
275
275
275
275
275
275
275
275
275
275
275
275
275
275
275
275
275
275
275
275
275
275
275
275
275
275
275
275
275
275
275
275
275
275
275
275
275
275
275
275
275
275
275
275
275
275
275
275
275
275
275
275
275
275
275
275
275
275
275
275
275
272.269
275
275
275
275
275
275
275
275
275
275
275
275
275
275
275
275
275
275
275
275
275
275
275
274.288
275
275
275
275
275
275
275
275
275
275
275
275
275
275
275
275
275
275
275
275
275
275
275
274.344
275
275
275
275
275
275
275
275
275
275
275
275
275
275
275
275
275
275
275
275
275
275
274.99
274.689
275
275
275
275
275
275
275
275
275
275
275
275
275
275
275
275
275
275
275
275
275
275
274.984
274.697
275
275
275
275
275
275
275
275
275
275
275
275
275
275
275
275
275
275
275
275
275
274.998
274.628
274.855
275
275
275
275
275
275
275
275
275
275
275
275
275
275
275
275
275
275
275
275
275
274.997
274.629
274.856
275
275
275
275
275
275
275
275
275
275
275
275
275
275
275
275
275
275
275
275
275
274.995
274.63
274.857
275
275
275
275
275
275
275
275
275
275
275
275
275
275
275
275
275
275
275
275
275
274.994
274.631
274.857
275
275
275
275
275
275
275
275
275
275
275
275
275
275
275
275
275
275
275
275
275
274.992
274.632
274.858
275
275
275
275
275
275
275
275
275
275
275
275
275
275
275
275
275
275
275
275
275
274.991
274.633
274.859
275
275
275
275
275
275
275
275
275
275
275
275
275
275
275
275
275
275
275
275
275
274.99
274.634
274.859
275
275
275
275
275
275
275
275
275
275
275
275
275
275
275
275
275
275
275
275
275
274.988
274.635
274.86
275
275
275
275
275
275
275
275
275
275
275
275
275
275
275
275
275
275
275
275
275
274.987
274.636
274.86
275
275
275
275
275
275
275
275
275
275
275
275
275
275
275
275
275
275
275
275
275
274.986
274.636
274.861
275
275
275
275
275
275
275
275
275
275
275
275
275
275
275
275
275
275
275
275
275
274.984
274.637
274.861
275
275
275
275
275
275
275
275
275
275
275
275
275
275
275
275
275
275
275
275
275
274.983
274.638
274.862
275
275
275
275
275
275
275
275
275
275
275
275
275
275
275
275
275
275
275
275
275
274.982
274.639
274.862
275
275
275
275
275
275
275
275
275
275
275
275
275
275
275
275
275
275
275
275
274.999
274.98
274.64
274.863
275
275
275
275
275
275
275
275
275
275
275
275
275
275
275
275
275
275
275
275
274.999
274.979
274.64
274.863
275
275
275
275
275
275
275
275
275
275
275
275
275
275
275
275
275
275
275
275
274.999
274.978
274.641
274.864
275
275
275
275
275
275
275
275
275
275
275
275
275
275
275
275
275
275
275
275
274.999
274.976
274.642
274.864
275
275
275
275
275
275
275
275
275
275
275
275
275
275
275
275
275
275
275
275
274.999
274.975
274.643
274.865
275
275
275
275
275
275
275
275
275
275
275
275
275
275
275
275
275
275
275
275
275
275
275
275
275
275
275
272.014
272.149
275
275
275
275
275
275
275
275
275
275
275
275
275
275
275
275
275
275
274.996
274.999
274.991
274.999
275
275
275
275
275
275
275
274.983
274.985
274.898
274.947
275
275
275
275
275
275
275
274.989
274.986
274.972
274.926
275
275
275
274.995
274.994
275
275
275
274.999
274.998
275
272.785
272.025
273.713
275
275
274.999
275
275
275
274.998
275
275
274.999
275
275
275
275
274.986
274.995
275
274.983
274.944
274.997
274.985
274.95
274.991
275
274.995
274.986
275
274.996
275
274.985
274.983
275
274.934
274.953
274.942
274.933
274.925
274.895
275
274.983
274.987
274.985
274.983
275
274.946
274.964
274.954
274.943
274.993
274.975
275
274.994
274.998
274.987
274.994
275
274.979
274.986
274.966
274.978
274.998
274.995
274.998
274.999
275
274.991
274.986
274.987
274.991
274.999
274.999
275
275
275
275
275
275
275
275
275
274.995
274.993
274.864
274.791
275
275
275
275
275
275
275
275
274.992
274.989
275
271.579
272.11
273.883
274.17
272.142
272.816
274.777
274.645
275
274.999
274.999
274.205
274.382
274.999
275
275
275
275
275
275
275
275
275
275
275
275
275
275
274.994
274.996
274.926
274.929
274.956
274.951
274.993
274.647
274.996
274.919
274.872
274.88
274.923
274.998
274.947
275
274.842
274.982
274.811
275
274.986
275
275
274.999
274.961
275
275
274.961
274.958
274.994
274.993
274.967
274.969
274.986
275
275
275
275
274.986
274.998
275
275
275
275
274.997
274.943
274.944
274.933
274.933
274.861
274.866
274.981
275
275
275
275
274.981
274.984
275
275
275
275
274.984
271.626
274.954
272.196
271.611
272.9
272.234
274.957
274.931
271.67
274.934
274.987
274.986
274.99
275
275
275
275
274.991
273.474
273.824
274.972
273.51
272.951
273.97
273.574
274.973
272.887
273.419
274.997
274.796
274.872
274.663
274.78
274.997
274.612
274.388
274.45
272.418
274.402
274.363
272.827
274.919
274.923
275
275
275
275
275
274.998
274.998
273.523
274.995
274.998
275
274.997
274.995
275
272.1
272.222
271.723
274.388
274.387
272.324
272.513
274.897
274.918
270.665
275
275
275
275
275
275
274.998
275
275
274.991
274.988
274.998
274.983
275
275
275
275
274.983
274.911
274.94
274.966
274.931
274.325
274.199
274.998
274.927
274.957
274.97
274.971
272.677
275
275
275
274.999
274.993
274.989
275
275
275
275
275
275
274.989
275
275
275
275
274.991
274.973
274.548
274.81
274.363
274.406
274.95
274.836
274.865
274.989
274.957
274.976
274.99
274.999
274.999
274.999
274.999
274.986
275
275
274.984
274.938
274.253
274.103
274.938
274.299
274.35
274.076
274.106
274.932
274.9
274.878
274.982
274.999
274.999
274.998
274.999
274.985
274.985
274.998
274.999
274.999
274.998
274.983
274.991
274.87
274.898
274.832
274.815
274.981
274.997
275
275
275
275
274.997
274.983
274.258
274.013
274.521
274.442
274.984
273.09
273.195
274.989
274.61
274.546
272.963
273.059
274.477
274.357
275
275
275
274.197
274.837
274.281
274.34
274.325
274.828
275
275
275
274.999
275
271.645
271.818
272.147
272.109
274.02
272.458
272.377
272.668
272.484
274.057
272.319
272.448
274.728
274.706
274.293
272.953
272.763
272.536
272.641
274.999
275
275
275
275
274.999
274.992
274.997
274.914
274.937
274.964
274.934
274.676
274.912
274.891
274.933
274.918
274.67
274.845
274.826
274.885
274.856
274.902
274.526
274.6
274.392
274.49
274.895
274.131
274.168
274.911
274.995
274.991
274.999
274.996
274.929
274.96
274.95
274.987
274.965
274.997
275
274.999
274.996
274.992
274.998
274.994
274.999
274.995
274.999
275
274.996
274.998
275
274.999
274.998
274.464
274.509
274.969
274.086
273.902
274.586
274.126
273.639
273.473
273.846
273.71
274.952
274.421
274.453
274.811
274.761
274.944
274.852
274.699
274.642
274.752
274.714
274.99
274.871
274.889
274.96
274.975
274.999
274.999
274.988
274.986
274.999
274.999
274.292
274.279
274.94
273.277
273.275
272.592
273.194
273.207
273.418
273.26
273.214
274.225
274.282
274.936
273.21
273.042
273.433
273.262
272.727
272.56
272.977
272.805
274.932
274.134
274.202
274.883
274.874
274.999
274.999
274.981
274.983
274.999
274.999
274.998
274.998
274.985
274.984
274.998
274.998
271.688
271.871
274.328
274.429
274.196
274.292
271.669
272.635
274.564
274.407
274.457
274.538
272.496
273.759
273.816
273.542
273.738
271.838
274.066
274.169
273.848
274.012
271.835
274.845
274.863
274.99
274.771
274.807
274.817
274.77
274.806
274.982
274.805
274.83
273.615
272.032
272.061
272.319
272.048
273.666
272.151
273.092
272.07
273.18
274.724
274.95
274.937
274.964
274.954
274.735
274.561
274.58
273.242
273.356
272.713
272.922
274.558
274.504
275
275
275
275
275
275
275
275
275
275
275
275
275
275
275
275
275
274.998
274.991
274.977
274.975
274.901
274.945
275
275
274.987
274.868
274.86
274.928
274.904
274.918
274.995
275
275
275
274.978
274.984
274.999
275
274.999
275
274.996
274.943
274.975
274.953
274.973
274.971
274.99
274.993
274.993
274.986
274.999
274.999
274.996
274.984
275
275
274.356
274.293
274.948
274.921
274.88
274.876
274.893
274.982
274.993
274.993
274.985
274.993
274.993
274.993
274.993
274.983
274.926
274.454
274.388
274.988
274.999
274.999
274.999
275
275
272.295
272.301
274.678
274.629
274.99
272.289
272.291
274.96
274.967
274.999
275
275
271.545
271.627
271.661
272.066
272.177
271.56
271.592
272.12
272.024
272.722
274.538
274.516
274.665
273.113
272.989
274.317
275
275
275
274.999
274.999
275
275
274.998
274.999
275
275
275
274.986
274.985
274.993
274.997
274.993
274.992
274.92
274.931
274.891
274.898
274.96
274.945
274.863
274.878
274.699
274.702
274.783
274.772
274.647
274.709
274.717
274.995
274.924
274.94
274.933
274.875
274.956
274.946
274.993
274.989
274.973
274.704
274.666
274.922
274.853
274.755
275
275
274.999
274.998
274.994
274.996
274.973
274.996
274.998
274.894
274.924
274.996
274.615
274.568
274.965
274.971
275
275
274.999
274.996
275
275
274.947
274.286
274.288
274.862
274.868
274.993
274.993
274.985
274.984
274.993
274.993
271.671
272.148
273.032
273.09
272.427
272.472
271.557
274.501
274.466
274.928
271.832
271.759
272.205
272.213
271.73
272.382
272.402
271.701
271.716
274.999
274.999
274.988
274.992
274.999
274.999
273.238
274.517
274.551
274.444
274.48
273.143
274.831
274.958
274.967
274.965
274.962
274.842
274.688
274.812
274.797
274.576
274.547
274.616
272.49
272.537
272.568
272.293
274.456
273.345
273.173
273.499
273.388
274.337
274.075
274.086
274.619
274.68
274.934
275
275
275
272.103
272.14
273.254
273.253
271.609
272.425
272.283
272.267
272.271
272.28
272.48
270.707
274.527
274.556
275
275
275
274.98
274.979
274.991
274.984
274.991
274.995
274.989
274.99
274.907
274.942
274.826
274.836
274.837
274.825
274.929
274.853
274.85
274.297
274.089
274.087
274.126
274.118
274.261
274.992
274.996
274.997
274.996
274.996
274.991
274.955
274.986
274.968
274.962
274.986
274.993
274.993
274.879
274.882
274.914
274.884
274.993
274.993
274.982
274.993
274.993
274.985
274.983
274.993
274.993
274.833
274.868
274.853
274.88
274.875
274.829
272.312
272.333
272.298
272.291
272.996
272.581
272.556
274.13
274.13
274.44
274.194
274.245
274.102
274.141
274.398
275
275
275
275
275
275
275
275
275
275
274.262
274.578
274.559
274.628
274.602
274.282
274.403
274.492
274.455
274.545
274.526
274.371
275
275
275
274.998
274.997
275
274.999
271.549
271.982
271.681
271.666
272.135
272.121
272.842
272.89
272.41
271.57
271.542
272.23
271.805
271.812
271.775
272.594
271.856
271.686
274.556
274.59
274.747
274.465
274.475
274.439
274.446
274.684
274.507
274.521
272.56
272.246
272.259
272.244
272.235
272.591
275
275
274.999
274.998
274.999
274.999
274.978
274.992
274.984
274.982
274.986
274.987
274.982
274.984
274.917
274.934
274.849
274.852
274.84
274.845
274.962
274.901
274.904
274.849
274.853
274.939
274.851
274.73
274.707
274.658
274.762
274.75
274.837
274.727
274.724
274.762
274.742
274.831
274.878
274.78
274.792
274.737
274.76
274.868
274.719
274.424
274.669
274.651
274.107
274.127
274.902
274.964
274.96
274.893
274.944
274.979
274.97
274.767
274.734
274.886
274.893
274.953
274.836
274.803
274.984
274.989
274.997
274.992
274.977
274.957
274.976
274.997
274.999
274.999
274.997
274.998
274.994
274.99
274.994
274.999
274.998
274.997
274.999
274.998
274.999
274.996
274.996
274.994
274.997
274.038
273.966
274.456
273.872
273.937
273.734
274.161
273.575
273.52
273.797
273.755
274.786
274.557
274.611
274.445
274.499
274.771
274.934
274.849
274.874
274.644
274.79
274.908
274.523
274.435
274.684
274.1
274.153
274.009
274.054
274.668
274.742
274.353
274.396
274.213
274.28
274.729
274.963
274.973
273.3
272.663
272.751
272.485
272.57
273.29
272.752
272.795
272.789
272.988
273.236
272.025
272.108
272.176
272.033
273.306
273.245
272.336
272.407
272.198
272.272
273.231
273.167
273.117
273.392
273.322
272.658
272.596
272.922
272.875
274.869
274.871
274.985
274.993
274.993
274.993
274.993
274.984
271.701
272.829
272.95
272.057
271.556
272.557
272.685
271.987
271.907
273.776
272.717
272.725
273.643
272.608
272.403
272.726
272.697
273.704
272.163
272.072
272.25
272.341
271.793
271.835
272.053
274.853
274.922
274.916
274.93
274.926
274.858
274.783
274.8
274.8
274.769
274.769
274.781
274.803
274.891
274.885
274.909
274.899
274.814
272.04
272.387
272.427
272.328
272.357
272.05
272.215
272.685
272.776
272.49
272.581
272.112
272.133
271.835
271.885
271.814
271.819
272.072
272.224
272.289
271.986
272.105
272.054
274.835
274.825
274.711
274.557
274.603
272.381
272.458
272.795
272.384
272.295
272.525
272.474
272.868
272.31
272.307
274.089
274.097
275
275
275
275
275
275
275
275
275
275
275
275
275
275
275
275
275
275
275
275
275
275
275
275
275
275
275
275
275
275
275
275
275
275
275
275
275
275
275
275
275
275
275
275
275
275
275
275
275
275
275
275
275
275
275
275
275
275
275
275
275
275
275
275
275
275
275
275
275
275
275
275
275
275
275
275
275
275
275
275
275
275
275
275
275
275
275
275
275
275
275
275
275
275
275
275
275
275
275
275
275
275
275
275
275
275
275
275
275
275
275
275
275
275
275
275
275
275
275
275
275
275
275
275
275
275
275
275
275
275
275
275
275
275
275
275
274.998
274.998
272.619
274.853
274.866
275
275
275
275
275
275
275
275
275
275
275
275
275
273.536
273.497
274.331
275
275
275
275
275
275
275
275
275
275
275
274.994
274.232
273.547
274.685
275
275
275
275
275
275
275
275
275
275
275
275
275
275
275
275
275
275
275
275
275
275
275
275
275
275
275
275
275
275
275
275
275
275
275
275
275
275
275
275
275
275
275
275
275
275
275
274.998
274.998
275
271.602
273.074
273.091
274.001
274.004
270.739
275
275
275
275
275
275
275
275
275
275
275
275
275
275
275
275
275
275
275
275
275
275
275
275
275
275
275
275
275
275
275
275
275
275
275
275
275
275
275
275
275
275
275
275
275
275
275
275
275
275
275
275
275
275
275
275
274.997
274.999
274.999
275
275
274.999
274.997
274.996
274.998
275
275
275
275
275
275
275
275
275
275
275
275
275
275
275
275
275
275
275
275
275
274.983
274.996
274.996
274.996
274.996
274.984
275
275
275
275
275
275
275
275
275
275
275
275
275
275
275
275
275
275
275
275
275
274.987
275
275
274.996
274.996
274.986
274.97
274.915
274.922
275
275
275
275
275
275
275
275
275
274.994
274.958
274.967
274.98
274.982
274.994
275
275
275
275
275
275
275
275
275
274.999
274.995
274.995
274.991
274.992
274.998
274.999
274.998
275
272.702
274.971
274.97
274.394
274.406
272.088
274.995
274.995
273.574
275
275
275
275
275
275
275
275
275
275
275
275
275
275
275
275
274.999
275
275
275
275
275
275
275
274.999
274.998
274.998
275
275
275
275
275
275
275
275
275
275
275
275
274.987
274.997
274.996
274.999
274.998
274.994
275
275
275
274.98
274.952
274.96
274.867
274.87
274.946
274.965
274.968
274.986
275
275
275
274.995
274.997
274.998
274.999
275
275
274.998
274.998
274.996
275
275
275
274.985
274.996
274.996
274.996
274.996
274.983
275
275
275
274.935
274.845
274.841
274.883
274.879
274.951
274.94
274.861
274.864
274.839
274.837
274.932
275
275
275
274.995
274.995
274.986
275
275
275
274.949
274.692
274.651
274.852
274.843
274.962
274.955
274.89
274.887
274.638
274.593
274.94
274.992
274.977
274.979
274.93
274.937
274.977
275
275
275
274.995
274.999
274.999
274.999
274.999
274.998
274.987
274.996
274.996
274.999
274.999
274.992
275
275
275
274.98
274.921
274.916
274.945
274.941
274.985
274.968
274.869
274.86
274.911
274.905
274.977
274.997
274.989
274.99
274.969
274.976
274.996
274.998
275
274.999
275
275
274.999
275
275
275
274.992
274.726
274.692
274.675
274.713
274.992
274.988
274.951
274.948
274.999
274.968
274.969
275
275
275
275
275
275
275
275
275
275
275
275
275
275
275
275
275
275
275
275
275
274.994
275
275
275
275
274.994
274.855
274.755
274.77
274.655
274.679
274.805
275
275
275
275
275
275
274.999
275
275
275
275
275
275
275
275
275
275
275
274.991
275
275
275
275
274.991
275
275
275
273.934
273.416
273.364
273.699
273.644
274.132
274.763
274.612
274.632
275
275
275
274.999
275
275
275
275
274.999
274.237
273.805
273.754
274.029
273.995
274.361
275
275
275
275
275
275
275
275
275
275
275
275
275
275
275
275
275
275
275
275
275
275
275
275
275
275
275
275
275
275
275
275
275
275
275
275
275
275
275
274.944
274.955
274.994
274.996
274.988
274.989
274.914
274.848
274.856
274.784
274.796
274.879
274.901
274.971
274.968
274.976
274.974
274.907
274.998
274.993
274.993
274.996
274.998
275
274.999
274.987
274.995
274.989
274.996
274.995
275
275
274.999
275
275
275
274.999
274.999
275
275
275
275
274.899
274.904
274.963
274.956
274.89
274.894
274.984
274.987
274.994
274.992
274.98
274.982
274.994
274.994
274.986
275
275
275
275
275
275
275
275
275
275
275
275
274.986
274.994
274.994
274.999
274.999
274.998
275
275
275
275
275
275
275
275
275
275
275
275
274.997
274.999
274.999
274.863
274.861
274.942
274.945
274.867
274.865
274.845
274.847
274.934
274.932
274.841
274.843
274.994
274.994
274.981
275
275
275
275
275
275
275
275
275
275
275
275
274.981
274.994
274.994
275
274.999
274.999
275
274.999
275
275
274.999
274.999
274.999
274.999
275
274.812
274.706
274.952
272.84
273.595
273.662
273.139
273.193
272.286
274.959
274.833
274.823
274.937
274.573
274.515
274.963
274.966
274.989
274.985
274.955
274.959
274.997
274.997
274.989
275
275
275
275
275
275
275
275
275
275
275
275
274.991
274.997
274.997
273.522
272.919
272.873
273.303
273.231
273.773
274.885
274.877
274.97
273.432
274.074
274.123
273.717
273.774
273.003
273.807
274.637
274.662
274.582
274.61
273.747
274.975
274.899
274.892
272.95
272.235
272.182
272.816
272.737
273.351
274.987
274.988
274.997
274.808
274.887
274.879
274.93
274.925
274.863
274.87
274.861
274.763
274.996
274.984
274.986
274.411
273.641
273.534
273.772
273.681
274.433
274.421
274.096
274.063
274.915
274.697
274.732
274.864
274.871
274.927
275
275
275
275
275
275
274.998
275
275
275
275
274.998
274.75
274.742
273.464
274.995
274.962
274.962
274.961
274.962
274.995
274.996
275
275
275
275
274.996
275
275
275
272.436
272.334
271.631
274.381
273.819
273.661
273.845
273.829
274.381
274.913
274.635
274.602
274.725
274.782
274.919
270.673
272.888
273.331
275
275
275
275
275
275
275
275
275
275
275
275
275
275
275
275
275
275
274.999
274.999
274.997
275
275
275
275
275
275
274.998
274.995
274.994
274.996
274.996
274.983
275
274.999
274.999
274.999
274.999
275
275
274.999
274.999
274.999
274.999
275
274.984
274.996
274.996
274.907
274.91
274.968
274.994
274.994
274.999
274.951
274.98
274.978
274.983
274.981
274.954
274.97
274.778
274.68
274.781
274.78
274.971
272.65
274.143
274.132
275
275
275
275
275
275
275
275
275
274.999
274.998
274.999
275
275
275
275
275
275
275
275
275
275
275
275
275
275
275
275
275
275
274.997
274.997
274.988
275
274.999
274.999
274.999
274.999
275
275
275
275
274.999
275
275
274.992
274.998
274.998
274.928
274.941
274.977
274.627
274.849
274.812
274.91
274.888
274.747
274.376
274.708
274.702
274.721
274.714
274.39
274.947
274.874
274.878
274.849
274.929
274.922
274.938
274.934
274.858
274.988
274.971
274.973
274.996
274.997
274.993
274.999
274.999
274.999
274.999
274.997
274.997
274.997
274.997
274.999
275
274.999
274.999
274.999
274.999
275
274.983
274.996
274.996
274.853
274.849
274.937
274.207
274.656
274.669
274.629
274.642
274.151
274.855
274.858
274.939
274.318
274.684
274.678
274.696
274.691
274.336
274.067
274.617
274.62
274.621
274.616
274.082
274.932
274.837
274.836
274.999
274.997
274.997
274.997
274.997
274.999
274.998
274.998
274.999
274.986
274.995
274.995
274.999
274.997
274.997
274.997
274.997
274.999
274.999
274.997
274.997
274.997
274.997
274.999
274.972
274.975
274.992
274.879
274.939
274.934
274.948
274.944
274.889
274.979
274.941
274.945
274.999
274.999
274.997
275
275
275
275
275
275
275
275
275
275
275
275
274.998
274.999
274.999
274.93
274.926
274.982
274.157
274.724
274.741
274.684
274.705
274.122
274.495
274.785
274.798
274.757
274.771
274.469
274.984
274.938
274.934
273.122
272.681
272.655
272.747
272.71
273.156
274.956
274.953
274.988
274.59
274.831
274.84
274.81
274.821
274.569
272.63
272.605
273.028
275
275
275
274.727
274.741
274.846
274.817
274.699
274.714
275
275
275
275
275
275
275
275
275
273.504
273.461
273.978
272.435
272.929
272.966
272.583
273.11
273.18
273.005
273.052
272.523
274.096
273.594
273.547
273.891
273.851
274.267
272.909
273.379
273.425
273.254
273.322
272.848
275
275
275
275
275
275
275
274.999
274.999
275
275
275
274.994
274.994
274.997
274.905
274.825
274.838
274.801
274.811
274.898
274.928
274.867
274.875
274.85
274.859
274.923
274.829
274.839
274.909
274.557
274.736
274.721
274.762
274.75
274.58
274.703
274.686
274.454
274.888
274.807
274.819
274.994
274.984
274.986
274.977
274.981
274.993
274.999
274.996
274.997
274.989
274.993
274.998
274.957
274.899
274.904
274.979
274.943
274.967
274.912
274.924
274.971
274.999
274.998
274.993
275
274.999
275
274.998
274.999
275
275
274.999
274.999
275
275
275
274.999
274.999
275
274.999
274.999
274.998
274.476
274.761
274.753
274.787
274.771
274.49
274.966
274.91
274.918
274.882
274.886
274.954
274.433
274.734
274.728
274.746
274.74
274.443
274.976
274.978
274.991
274.877
274.946
274.942
274.953
274.949
274.883
274.999
274.998
274.998
274.998
274.998
274.999
274.987
274.994
274.995
274.993
274.994
274.986
274.999
274.997
274.997
274.998
274.997
274.999
274.295
274.687
274.69
274.678
274.683
274.291
274.941
274.859
274.856
274.248
274.66
274.653
274.672
274.666
274.267
274.935
274.85
274.852
274.838
274.839
274.932
274.16
274.634
274.627
274.647
274.64
274.181
274.999
274.997
274.997
274.997
274.997
274.999
274.981
274.993
274.993
274.994
274.994
274.982
274.999
274.997
274.998
274.997
274.997
274.999
274.998
274.997
274.997
274.997
274.997
274.998
274.998
274.997
274.997
274.997
274.997
274.998
274.362
273.754
273.684
273.858
273.811
274.398
274.224
273.474
273.429
273.607
273.533
274.257
273.43
273.509
272.754
274.587
274.14
274.092
274.485
273.944
273.901
274.041
273.99
274.511
272.371
273.261
273.343
272.721
272.711
273.794
274.108
273.308
273.232
273.393
273.356
274.141
273.893
272.846
272.762
273.115
272.973
273.951
274.989
274.968
274.97
274.948
274.951
274.983
273.015
272.964
273.568
273.719
273.152
273.078
272.384
272.297
273.016
273.27
272.628
272.501
274.946
274.899
274.905
274.883
274.891
274.942
274.961
274.922
274.928
274.911
274.916
274.958
274.747
274.851
274.843
273.295
272.867
272.799
272.951
272.935
273.346
274.548
274.327
274.328
274.276
274.302
274.527
275
275
275
275
275
275
275
275
275
275
275
275
275
275
275
275
275
275
275
275
275
275
275
275
275
275
275
275
275
275
275
275
275
275
275
275
274.999
275
275
274.986
274.997
274.997
274.909
274.955
274.952
274.961
274.958
274.913
274.994
274.983
274.984
275
275
275
274.98
274.992
274.991
274.994
274.993
274.982
275
275
275
275
275
275
275
275
275
274.993
274.995
274.997
274.961
274.984
274.978
274.989
274.987
274.97
274.996
274.998
274.998
274.996
274.996
274.984
275
274.999
274.999
274.999
274.999
275
274.327
274.721
274.73
274.707
274.713
274.306
274.95
274.876
274.873
274.439
274.759
274.767
274.74
274.749
274.417
274.996
274.996
274.987
275
275
274.998
275
275
275
274.663
274.864
274.87
274.849
274.856
274.647
274.99
274.96
274.958
274.963
274.985
274.984
274.987
274.986
274.965
273.064
273.546
273.59
273.466
273.506
273.024
274.34
273.962
273.927
275
275
275
275
275
275
275
275
275
275
275
275
275
275
275
275
275
275
274.986
274.987
274.996
274.93
274.967
274.964
274.972
274.969
274.935
275
275
275
274.999
275
275
274.901
274.961
274.957
274.972
274.966
274.91
274.995
274.989
274.991
274.999
274.999
274.999
274.998
274.998
274.996
274.871
274.869
274.946
274.284
274.699
274.703
274.693
274.696
274.285
274.488
274.787
274.794
274.774
274.78
274.477
274.989
274.996
274.996
274.997
274.997
274.992
273.952
274.017
273.34
273.063
273.826
273.891
274.904
274.896
274.819
274.933
274.938
274.97
274.853
274.919
274.912
274.158
274.128
274.44
273.295
273.73
273.771
273.637
273.685
273.236
273.464
273.903
273.939
273.821
273.864
273.427
274.64
274.785
274.773
274.807
274.796
274.661
274.931
274.878
274.884
273.211
272.802
272.854
272.832
272.813
273.227
271.616
272.32
272.328
272.653
272.736
270.688
274.569
274.083
273.852
274.287
274.221
274.559
275
275
275
275
275
275
275
275
275
275
275
275
275
275
275
275
275
275
275
275
275
275
275
275
275
275
275
275
275
275
275
275
275
275
275
275
275
275
275
275
275
275
275
275
275
275
275
275
275
275
275
275
275
275
275
275
275
275
275
275
275
275
275
275
275
275
275
275
275
275
275
275
275
275
275
275
275
275
275
275
275
275
275
275
275
275
275
275
275
275
275
275
275
275
275
275
275
275
275
275
275
275
275
275
275
275
275
275
275
275
275
275
275
275
275
275
275
272.387
274.01
273.997
275
275
275
275
275
275
275
275
275
275
274.998
274.998
274.304
274.981
274.981
275
275
275
275
275
275
275
275
275
275
275
275
275
275
275
274.986
274.241
274.237
274.693
275
275
275
275
275
275
275
275
275
275
275
275
275
275
275
275
275
275
275
275
275
275
275
275
275
275
275
275
275
275
275
275
275
275
275
275
275
275
275
275
275
275
275
275
274.988
274.997
274.997
275
275
275
273.099
273.101
272.04
275
275
275
275
275
275
275
275
275
274.999
275
275
274.994
274.998
274.998
274.998
274.998
274.993
275
275
274.999
274.992
274.967
274.965
274.964
274.962
274.991
274.995
274.996
274.999
275
275
275
275
275
275
275
275
275
274.995
274.999
274.999
274.998
274.998
274.993
275
275
275
275
275
275
275
275
275
275
275
275
274.992
274.998
274.998
274.997
274.997
274.99
274.999
275
275
275
275
274.999
275
275
275
275
275
275
275
275
275
275
275
275
275
275
275
274.888
274.939
274.935
274.958
274.955
274.918
273.922
274.374
274.401
274.166
274.204
273.632
275
275
275
275
275
275
275
275
275
274.931
274.962
274.96
275
275
275
275
275
275
274.226
274.547
274.563
274.426
274.448
274.051
275
275
275
275
275
275
275
275
275
275
275
275
275
275
275
275
275
275
275
274.999
274.999
274.999
274.999
275
275
275
275
275
275
275
275
275
275
274.999
274.996
274.996
275
275
275
275
275
275
275
275
275
275
275
275
275
275
275
275
275
275
275
275
275
275
275
275
275
275
275
275
275
275
275
275
275
275
275
275
275
275
275
275
275
275
275
275
275
275
275
275
275
275
275
275
275
275
275
275
275
275
275
275
275
275
275
275
275
275
275
275
275
274.998
275
275
275
275
274.998
274.064
274.037
272.499
274.849
274.593
274.607
274.592
274.591
274.849
275
275
275
275
275
275
275
275
275
275
275
275
274.996
274.997
275
273.524
274.842
274.835
274.861
274.851
273.511
274.981
274.981
274.318
275
275
275
275
275
275
275
275
275
275
275
275
275
275
275
275
275
275
275
275
275
275
275
275
275
275
275
275
275
275
275
275
275
275
275
275
275
275
275
274.998
275
275
275
275
274.998
275
275
275
272.332
272.336
271.615
270.996
272.709
272.647
275
275
275
275
275
275
275
275
275
275
275
275
275
275
275
275
275
275
275
275
275
275
275
275
275
275
275
275
275
275
275
275
275
275
275
275
275
275
275
275
275
275
275
275
275
275
275
275
275
275
275
275
275
275
275
275
275
275
275
275
275
275
275
275
275
275
274.997
274.997
274.988
275
274.999
274.999
274.999
274.999
275
275
275
275
274.962
274.984
274.982
274.986
274.985
274.964
274.121
274.111
272.727
274.971
274.776
274.779
274.399
273.864
273.856
273.871
273.87
274.403
272.058
273.098
273.097
274.964
274.965
274.995
273.62
274.764
274.758
275
275
275
275
275
275
275
275
275
275
275
275
274.999
275
275
275
275
275
275
275
275
275
275
275
275
275
274.999
275
275
275
275
275
275
275
275
275
275
275
275
275
275
275
275
275
275
274.678
274.868
274.873
274.857
274.862
274.664
274.624
274.845
274.851
274.832
274.839
274.61
275
275
275
274.998
274.998
274.995
274.993
274.998
274.997
275
275
275
275
275
275
274.972
274.988
274.987
274.99
274.989
274.974
275
275
275
275
275
275
274.999
275
275
274.969
274.968
274.992
274.716
274.887
274.891
274.877
274.882
274.705
274.671
274.857
274.859
274.889
274.865
274.68
274.996
274.996
274.999
274.968
274.988
274.988
274.988
274.988
274.968
275
275
275
275
275
275
274.999
274.999
274.994
274.993
274.998
274.998
275
275
275
275
275
275
275
275
275
275
275
275
274.998
274.998
274.991
274.99
274.998
274.998
275
275
274.999
274.999
275
275
275
275
275
275
275
275
275
275
275
275
275
275
275
275
275
275
275
275
275
275
275
275
275
275
275
275
275
275
275
275
275
275
275
275
275
275
275
275
275
275
275
275
275
275
275
275
275
275
274.947
274.976
274.974
274.98
274.978
274.951
274.946
274.943
274.895
274.913
274.953
274.95
274.997
274.999
274.999
275
274.999
274.998
274.99
274.996
274.995
274.998
274.997
274.993
274.879
274.884
274.719
274.552
274.816
274.824
274.8
274.808
274.533
274.31
274.343
273.867
273.688
274.24
274.276
273.604
274.033
274.064
273.972
274.004
273.569
273.761
274.145
274.154