/*--------------------------------*- C++ -*----------------------------------*\
| =========                 |                                                 |
| \\      /  F ield         | OpenFOAM: The Open Source CFD Toolbox           |
|  \\    /   O peration     | Version:  5.x                                   |
|   \\  /    A nd           | Web:      www.OpenFOAM.org                      |
|    \\/     M anipulation  |                                                 |
\*---------------------------------------------------------------------------*/
FoamFile
{
    version     2.0;
    format      ascii;
    class       volVectorField;
    location    "500";
    object      U;
}
// * * * * * * * * * * * * * * * * * * * * * * * * * * * * * * * * * * * * * //

dimensions      [0 1 -1 0 0 0 0];

internalField   nonuniform List<vector> 
6584
(
(1.00007 -0.000187696 4.44374e-27)
(1.00005 -0.000412257 2.15681e-25)
(1.00006 -0.000559519 1.93964e-30)
(1.00007 -0.000760855 -3.86122e-25)
(1.00008 -0.000971215 0)
(1.00007 -0.00119961 0)
(1.00006 -0.00141958 0)
(1.00002 -0.00155127 3.91473e-25)
(0.999945 -0.00152775 3.87491e-25)
(0.999831 -0.00119744 0)
(0.999714 -0.000369415 1.29678e-25)
(0.999637 0.000889632 -2.26616e-25)
(0.999668 0.00226447 -1.05205e-26)
(0.999798 0.00330438 2.55729e-26)
(0.999946 0.00374531 6.86068e-27)
(1.0001 0.00361085 9.01069e-25)
(1.00017 0.00315604 7.98578e-25)
(1.00019 0.00259752 6.49735e-26)
(1.00018 0.00203894 5.48788e-25)
(1.00015 0.00154801 3.92687e-25)
(1.00012 0.00114929 0)
(1.0001 0.000807582 0)
(1.00008 0.000570813 5.79139e-25)
(1.0001 0.000252816 3.54134e-25)
(1.00029 -0.00039436 -2.10665e-25)
(1.00025 -0.000830399 -8.22226e-25)
(1.0003 -0.00110477 -1.10267e-24)
(1.00032 -0.00151192 0)
(1.00036 -0.0019372 -1.45367e-25)
(1.00036 -0.00241273 -1.22787e-24)
(1.00031 -0.00289574 -7.46263e-25)
(1.00008 -0.0032149 1.25424e-24)
(0.999774 -0.00323017 -8.65611e-26)
(0.998994 -0.00261241 -2.52232e-25)
(0.998087 -0.000923628 -7.44411e-29)
(0.997537 0.00173233 0)
(0.997743 0.00467116 5.51936e-25)
(0.998647 0.00685877 2.8988e-25)
(0.999794 0.00776683 -2.03153e-24)
(1.00054 0.00742992 -5.38053e-25)
(1.00084 0.00639875 -1.22583e-24)
(1.00092 0.00520468 -1.59519e-24)
(1.00085 0.00404155 -4.05334e-24)
(1.00072 0.00304464 -3.3217e-24)
(1.00058 0.00225418 -2.33615e-25)
(1.00049 0.00157406 -9.72137e-26)
(1.00038 0.00113517 0)
(1.0004 0.000524262 3.09899e-25)
(1.00064 -0.000605696 -5.32533e-25)
(1.00061 -0.00122961 0)
(1.00073 -0.00161016 -2.15499e-25)
(1.0008 -0.00222476 -1.44205e-24)
(1.00092 -0.00287913 -2.18493e-24)
(1.00095 -0.00365172 0)
(1.00085 -0.00452322 0)
(1.00035 -0.00516152 -2.63214e-25)
(0.999438 -0.00581083 -1.68643e-25)
(0.998141 -0.00387565 1.08343e-25)
(0.996623 -0.00179128 -1.85981e-25)
(0.995512 0.00170321 -2.57092e-25)
(0.995763 0.00585254 0)
(0.997393 0.00903154 0)
(0.999409 0.0104165 2.89461e-26)
(1.00141 0.0119118 -2.22386e-24)
(1.0022 0.00983057 0)
(1.00237 0.00779988 -7.32725e-25)
(1.00214 0.00592452 0)
(1.00179 0.00439118 -5.38513e-25)
(1.00143 0.00322476 -1.41216e-24)
(1.00117 0.0022287 -8.34445e-25)
(1.00092 0.00163331 0)
(1.00088 0.000783051 2.40468e-25)
(1.00107 -0.000802761 -3.26916e-25)
(1.00109 -0.00157784 0)
(1.0013 -0.00204333 -2.90485e-25)
(1.00149 -0.002855 0)
(1.00173 -0.0037449 0)
(1.0019 -0.004878 0)
(1.00183 -0.00629637 -3.42782e-25)
(1.00115 -0.00763998 4.18903e-24)
(0.999395 -0.00931023 -3.51899e-25)
(0.996884 -0.00727306 3.26946e-25)
(0.993545 -0.00475461 -1.99513e-25)
(0.990346 0.000912169 3.3889e-26)
(0.990317 0.00886317 4.75887e-26)
(0.994183 0.0148869 0)
(0.998861 0.0165234 -3.33583e-24)
(1.00211 0.0149332 0)
(1.0048 0.0134032 0)
(1.00466 0.0103331 5.08137e-24)
(1.00407 0.00756615 3.28771e-24)
(1.00328 0.00547371 -1.08738e-24)
(1.00259 0.00396852 -7.48781e-25)
(1.00206 0.00270624 0)
(1.00162 0.00200467 3.52675e-25)
(1.00144 0.000993871 2.83276e-25)
(1.00155 -0.000966391 -1.26945e-25)
(1.00166 -0.0018417 -8.32e-27)
(1.002 -0.00236039 -3.97749e-26)
(1.00236 -0.00333992 -6.09277e-26)
(1.00284 -0.00443646 1.36355e-25)
(1.00332 -0.00596147 3.25797e-24)
(1.00352 -0.00805325 -4.95487e-24)
(1.00318 -0.010377 4.78115e-24)
(0.999815 -0.0111435 1.98031e-25)
(0.996375 -0.0122683 1.42211e-24)
(0.989785 -0.0104862 -2.64672e-25)
(0.980996 -0.00199046 2.30329e-25)
(0.979739 0.0134043 -7.05178e-26)
(0.989461 0.0244415 4.87516e-24)
(0.999567 0.0253792 0)
(1.00514 0.0211814 3.19467e-24)
(1.00681 0.0158174 -6.81587e-25)
(1.00789 0.011942 -3.93394e-24)
(1.00664 0.0087024 -2.23568e-24)
(1.00515 0.00609314 9.45946e-25)
(1.00399 0.00437359 -5.02431e-26)
(1.00309 0.00293015 -2.75949e-26)
(1.0024 0.00219217 3.99118e-25)
(1.00202 0.00112406 -1.48268e-25)
(1.00205 -0.00107754 6.30728e-26)
(1.00229 -0.0019869 -1.67588e-25)
(1.00278 -0.00250933 -9.2137e-27)
(1.00339 -0.00359056 0)
(1.00419 -0.00478534 -6.81038e-25)
(1.00522 -0.00663955 -2.85687e-25)
(1.00597 -0.00894656 -2.03078e-24)
(1.00476 -0.0114099 -5.18478e-25)
(1.00267 -0.0151187 2.23815e-24)
(0.998714 -0.0198702 8.22992e-24)
(0.986253 -0.0197177 1.74771e-24)
(0.969231 -0.0109552 2.56529e-28)
(0.962285 0.0173383 -8.85301e-26)
(0.983206 0.0379575 6.31338e-25)
(1.00426 0.0384894 -7.1434e-24)
(1.0116 0.028276 0)
(1.01226 0.0197392 4.31286e-28)
(1.01206 0.0126971 6.90391e-25)
(1.00971 0.00907002 1.63788e-25)
(1.0073 0.00608353 1.09261e-24)
(1.00554 0.00432678 -3.88803e-25)
(1.00417 0.00283079 0)
(1.00321 0.00214608 -2.0267e-25)
(1.00257 0.00114397 -2.77211e-25)
(1.00252 -0.00112058 6.57645e-28)
(1.00292 -0.00198757 -7.91801e-26)
(1.00356 -0.00245001 9.95481e-26)
(1.00447 -0.00353627 1.12306e-26)
(1.00566 -0.00466552 1.65366e-26)
(1.00737 -0.00668674 -1.09733e-24)
(1.00902 -0.00898553 -1.53645e-24)
(1.00846 -0.0125301 -7.58224e-26)
(1.00864 -0.0184757 -3.3392e-25)
(1.00659 -0.0280157 1.20127e-24)
(0.991517 -0.0375964 0)
(0.953188 -0.0387899 1.20281e-24)
(0.910743 0.0254519 4.3288e-26)
(0.981595 0.0763857 3.18429e-24)
(1.01423 0.0533006 1.01706e-26)
(1.02334 0.0337128 0)
(1.02017 0.0213033 2.18868e-24)
(1.01696 0.0117445 5.14247e-25)
(1.01303 0.00827983 4.16291e-25)
(1.0095 0.00526932 -1.05539e-25)
(1.00705 0.00373359 -8.3933e-25)
(1.00517 0.00236045 0)
(1.00393 0.00183365 -1.8264e-25)
(1.003 0.00103172 -1.64626e-25)
(1.00293 -0.00108747 -7.7169e-26)
(1.00348 -0.0018357 6.85455e-26)
(1.00428 -0.00216987 3.58302e-26)
(1.00547 -0.00314256 2.52476e-26)
(1.00706 -0.00400492 -4.23181e-26)
(1.00947 -0.00587132 5.23688e-25)
(1.01221 -0.00762368 1.31994e-28)
(1.01316 -0.0116938 -2.06449e-25)
(1.01691 -0.0184009 2.07527e-28)
(1.02125 -0.0305301 -3.00255e-24)
(1.0162 -0.052787 -6.77186e-26)
(0.990835 -0.10588 2.45176e-26)
(1.02603 0.132603 5.54852e-25)
(1.04438 0.0638491 -5.73673e-25)
(1.04004 0.032702 1.21658e-24)
(1.02978 0.018799 -2.56757e-25)
(1.02173 0.0085454 8.19047e-25)
(1.01604 0.00608873 8.37318e-25)
(1.01142 0.00356867 5.66585e-25)
(1.00831 0.00256272 -2.43187e-25)
(1.00595 0.00151548 0)
(1.00447 0.00125223 0)
(1.00325 0.000779559 -2.66899e-30)
(1.00323 -0.000981577 -1.41157e-26)
(1.00391 -0.00154833 -2.30973e-27)
(1.00482 -0.00169823 -1.05091e-26)
(1.00624 -0.00244332 5.89872e-26)
(1.00813 -0.00285718 7.29212e-26)
(1.01103 -0.004213 3.78725e-25)
(1.01468 -0.0048926 1.0638e-24)
(1.01754 -0.00844083 0)
(1.02484 -0.0132452 0)
(1.03667 -0.0217793 0)
(1.05035 -0.042031 -1.07902e-25)
(1.08082 -0.0882383 1.36719e-26)
(1.13047 0.108882 0)
(1.08247 0.0461949 0)
(1.05566 0.0209911 0)
(1.03824 0.0111801 2.36432e-25)
(1.0251 0.00328687 0)
(1.01804 0.00260811 -8.82173e-25)
(1.01267 0.00110997 -5.86431e-25)
(1.00908 0.000897225 -5.30056e-26)
(1.00636 0.000359089 0)
(1.00471 0.000439936 7.68498e-27)
(1.00326 0.000398521 2.80952e-28)
(1.0034 -0.000818606 2.67715e-27)
(1.00418 -0.0011691 -4.15567e-27)
(1.00512 -0.00111062 4.72162e-27)
(1.00664 -0.001558 2.51228e-26)
(1.00864 -0.00144131 -6.43666e-26)
(1.01168 -0.00206303 -5.00676e-27)
(1.01567 -0.00149039 -1.07822e-25)
(1.01995 -0.00351015 -6.77122e-27)
(1.02879 -0.0044808 0)
(1.04364 -0.00540795 -2.72202e-25)
(1.06714 -0.0111334 1.26637e-30)
(1.11521 -0.0200546 -3.53436e-26)
(1.17436 0.0196041 -9.20396e-26)
(1.10184 0.00669595 -3.39939e-25)
(1.06223 0.00157774 -2.61601e-24)
(1.04215 7.5014e-06 0)
(1.02601 -0.00293543 -1.69661e-24)
(1.01846 -0.00159308 0)
(1.01292 -0.00174658 -8.00387e-27)
(1.00916 -0.00105562 0)
(1.0063 -0.000976331 8.11409e-27)
(1.0046 -0.000523928 -3.64927e-27)
(1.00299 -8.05263e-05 -4.38449e-26)
(1.00344 -0.000623771 0)
(1.00426 -0.000758995 -2.26808e-26)
(1.00516 -0.000509648 -2.40008e-26)
(1.00664 -0.000656841 -1.06494e-28)
(1.00855 -6.39417e-05 1.24491e-26)
(1.01131 4.32051e-05 9.35256e-26)
(1.01499 0.00162725 3.71774e-25)
(1.01964 0.00148849 1.67899e-25)
(1.0274 0.00426865 0)
(1.03955 0.010256 1.35543e-24)
(1.06055 0.0191683 4.16546e-25)
(1.09717 0.0410093 -1.61636e-26)
(1.14955 -0.0638748 -4.39889e-26)
(1.09355 -0.0325294 5.60598e-25)
(1.05731 -0.0177555 1.14831e-25)
(1.04014 -0.0112431 1.50885e-24)
(1.02421 -0.00866911 7.52115e-24)
(1.0172 -0.00569448 4.17869e-24)
(1.01212 -0.00451699 -2.82611e-24)
(1.00852 -0.00302054 -2.00279e-24)
(1.00574 -0.00232052 1.42425e-25)
(1.00411 -0.0015341 6.21886e-26)
(1.00244 -0.000612902 -1.40168e-25)
(1.00337 -0.000425449 3.1443e-27)
(1.00417 -0.000379843 1.12847e-26)
(1.00497 6.62768e-06 1.52376e-26)
(1.00631 9.98249e-05 5.32391e-27)
(1.00796 0.00100623 -4.56386e-34)
(1.01019 0.00163759 1.84841e-25)
(1.01308 0.00372659 5.92438e-25)
(1.01709 0.00507804 1.91276e-25)
(1.02208 0.00997373 0)
(1.02831 0.0191659 -3.82662e-25)
(1.03957 0.0354211 -9.11315e-26)
(1.05328 0.0697486 -1.54545e-26)
(1.08847 -0.105532 -1.62792e-26)
(1.06678 -0.0552061 0)
(1.04453 -0.030547 -2.31703e-24)
(1.03349 -0.0194586 1.88421e-24)
(1.02037 -0.0128343 1.06583e-23)
(1.01464 -0.00897212 7.02466e-24)
(1.01043 -0.00678588 0)
(1.00727 -0.00474001 -1.75889e-24)
(1.00475 -0.00351641 -9.71195e-25)
(1.00329 -0.00248536 8.96339e-26)
(1.00165 -0.0011498 -1.08933e-25)
(1.00322 -0.000248189 0)
(1.00396 -7.78733e-05 4.78668e-27)
(1.00464 0.000374256 -5.82575e-27)
(1.00576 0.00061369 -1.62849e-26)
(1.00709 0.00163364 0)
(1.00871 0.00249617 -5.4423e-26)
(1.01071 0.00457767 9.56627e-26)
(1.01349 0.00661434 -2.9193e-26)
(1.01559 0.0116282 -4.55081e-26)
(1.01611 0.0199415 2.06382e-25)
(1.01693 0.0349745 4.03046e-26)
(1.00795 0.0631713 0)
(1.02764 -0.101917 -1.35754e-26)
(1.03675 -0.058334 1.63406e-25)
(1.02985 -0.0347297 1.08397e-24)
(1.02491 -0.0233295 1.35205e-25)
(1.01559 -0.0150488 4.61113e-24)
(1.01141 -0.0110531 4.90902e-24)
(1.00818 -0.00832856 0)
(1.0056 -0.00604388 -2.64869e-26)
(1.00344 -0.00445411 4.06049e-25)
(1.00221 -0.00329876 2.21746e-25)
(1.00069 -0.00164826 7.9462e-27)
(1.00304 -0.000108324 0)
(1.00369 0.000123973 0)
(1.00425 0.00057325 0)
(1.00516 0.000863672 0)
(1.00618 0.0018241 -1.20811e-26)
(1.0073 0.00267135 -1.11353e-26)
(1.00855 0.00432333 -1.99803e-25)
(1.0094 0.00676379 2.88277e-24)
(1.01034 0.0101235 0)
(1.00755 0.0152534 0)
(1.00282 0.0234209 6.45711e-25)
(0.981888 0.0322182 2.20857e-24)
(0.564856 -0.0352074 -7.68711e-26)
(0.991296 -0.0629436 -3.97018e-24)
(1.01519 -0.0480937 -7.49943e-25)
(1.01794 -0.0323096 -5.389e-27)
(1.01685 -0.0234344 -3.02277e-26)
(1.01093 -0.0155618 -1.17804e-24)
(1.00812 -0.0119531 2.02368e-25)
(1.00576 -0.00912895 3.4275e-27)
(1.00375 -0.00687649 -1.76577e-24)
(1.00197 -0.00509434 0)
(1.00097 -0.00392943 8.13041e-26)
(0.999623 -0.00207847 -2.17791e-25)
(1.00286 -1.27637e-05 0)
(1.00342 0.000224864 -3.14523e-26)
(1.00387 0.000620376 1.48145e-27)
(1.0046 0.000887936 0)
(1.00539 0.00168529 0)
(1.00618 0.00235229 -1.05447e-24)
(1.00696 0.00356313 1.92041e-25)
(1.00742 0.00498388 3.77551e-24)
(1.00719 0.00724646 4.22126e-24)
(1.00419 0.00931474 2.40275e-24)
(0.999172 0.0113598 0)
(0.986484 0.00644727 -2.40539e-25)
(0.851815 -0.0278952 1.79043e-25)
(0.988988 -0.0364768 -4.41157e-25)
(1.00476 -0.0322725 3.92417e-25)
(1.0105 -0.0268236 -3.99398e-25)
(1.00863 -0.0190284 7.40824e-25)
(1.00701 -0.0148565 -1.63761e-25)
(1.00517 -0.0118973 2.83237e-28)
(1.00344 -0.00930745 -3.2182e-27)
(1.00191 -0.00728277 0)
(1.00047 -0.00545042 -7.50958e-25)
(0.999689 -0.00436811 -9.15002e-25)
(0.998517 -0.00242545 -2.82254e-25)
(1.00271 3.9147e-05 8.19856e-28)
(1.00318 0.000238898 -3.09159e-26)
(1.00356 0.000551609 5.29269e-26)
(1.00416 0.000750775 6.5027e-30)
(1.00481 0.00134311 -1.91603e-25)
(1.00542 0.00177074 -7.70434e-25)
(1.00602 0.0025029 -2.14216e-24)
(1.0063 0.00325368 -2.98985e-24)
(1.00588 0.00431954 -9.79762e-25)
(1.00397 0.00439362 -1.40324e-25)
(1.00126 0.00261652 0)
(0.995164 -0.00168489 -9.66803e-26)
(0.882153 -0.0220573 -8.12706e-25)
(0.994938 -0.0224019 -1.29721e-25)
(1.00245 -0.023789 -1.19888e-25)
(1.00654 -0.0214823 -2.05619e-25)
(1.00537 -0.0165747 -3.27771e-24)
(1.0041 -0.0136905 0)
(1.00274 -0.0113131 -5.55888e-25)
(1.00139 -0.00907463 -2.09166e-25)
(1.0002 -0.00734746 -2.11714e-26)
(0.999033 -0.00556806 1.50413e-25)
(0.998421 -0.00462243 0)
(0.997432 -0.00268432 0)
(1.0026 5.27898e-05 -4.25124e-28)
(1.003 0.000187063 1.65425e-27)
(1.00333 0.000406892 2.82866e-26)
(1.00386 0.000518622 0)
(1.00444 0.000902521 -9.2364e-26)
(1.00499 0.00111112 0)
(1.00563 0.00139445 -1.56796e-24)
(1.00602 0.00168933 5.61805e-25)
(1.00621 0.00125722 -3.02771e-26)
(1.00497 0.00115621 -7.73768e-26)
(1.00465 -0.00130612 3.28005e-25)
(0.999486 -0.00742528 -2.1418e-25)
(0.934001 -0.0172984 -1.04729e-24)
(0.997719 -0.0178307 7.10086e-26)
(1.00229 -0.0183172 2.99499e-25)
(1.00456 -0.0172156 1.04062e-25)
(1.00299 -0.0142867 -1.54425e-24)
(1.00198 -0.0122059 1.80498e-24)
(1.0008 -0.0104445 0)
(0.999665 -0.00857879 6.33405e-25)
(0.998693 -0.00717768 -7.73027e-26)
(0.99772 -0.00551085 1.67673e-25)
(0.997228 -0.00472941 0)
(0.9964 -0.00286321 0)
(1.00255 3.56378e-05 7.40726e-27)
(1.00289 9.12081e-05 3.05066e-27)
(1.00321 0.000221574 -2.35623e-26)
(1.00369 0.000247336 8.38213e-27)
(1.00427 0.000445074 0)
(1.00485 0.000490975 0)
(1.00561 0.000456274 -9.39848e-26)
(1.00626 0.000443444 -1.19961e-25)
(1.00702 -0.000345822 1.52191e-25)
(1.00655 -0.00120418 -6.08882e-25)
(1.00703 -0.00321173 0)
(0.998718 -0.00655001 -3.3786e-25)
(0.942563 -0.016048 -2.09278e-24)
(1.00063 -0.0136087 5.39651e-25)
(1.00288 -0.0134218 1.004e-24)
(1.00329 -0.0125233 2.61909e-24)
(1.00161 -0.0121952 1.47188e-24)
(1.00053 -0.0106356 1.48909e-24)
(0.999313 -0.00948137 -2.37504e-25)
(0.998269 -0.00793884 -1.57802e-25)
(0.997401 -0.00685931 -3.28846e-25)
(0.996559 -0.00533278 -1.18611e-24)
(0.996142 -0.0047201 1.04377e-27)
(0.99545 -0.00297102 -6.41707e-26)
(1.00255 -4.73394e-06 1.51814e-27)
(1.00285 -2.98133e-05 3.84803e-27)
(1.00317 2.19813e-05 -2.53601e-26)
(1.00363 -2.49383e-05 -2.04608e-26)
(1.00426 1.89662e-05 0)
(1.00488 -3.34299e-05 0)
(1.00581 -0.000291869 1.19737e-24)
(1.00665 -0.000355824 2.08357e-25)
(1.00802 -0.00149004 -2.68546e-25)
(1.00775 -0.00127883 -9.05617e-25)
(1.00945 -0.00559409 0)
(0.966086 -0.00107574 -1.55022e-24)
(0.970882 -0.0125364 1.29907e-25)
(1.00434 -0.00816844 2.61485e-25)
(1.00306 -0.0117411 2.09628e-25)
(1.00314 -0.0103139 -5.89284e-25)
(1.00088 -0.0105685 -4.51154e-25)
(0.999561 -0.00926448 2.45286e-25)
(0.998197 -0.0085675 -5.71564e-26)
(0.997163 -0.00725677 -1.12673e-24)
(0.996319 -0.00646704 -3.71462e-25)
(0.995559 -0.00508224 -1.53571e-24)
(0.995177 -0.00462696 0)
(0.994596 -0.00302061 -2.18968e-25)
(1.00259 -6.1831e-05 -7.92111e-27)
(1.00287 -0.000161957 -6.48747e-27)
(1.0032 -0.00017557 0)
(1.00367 -0.000277546 -8.16117e-27)
(1.00435 -0.000359322 0)
(1.00502 -0.000452858 -5.7633e-25)
(1.00612 -0.000895572 -1.52861e-25)
(1.00708 -0.000869451 8.4449e-26)
(1.00882 -0.0023414 -2.00802e-25)
(1.0088 -0.00153916 -2.58808e-25)
(1.00997 -0.00600201 -1.66941e-25)
(0.968081 -0.00183468 -2.00853e-24)
(0.973008 -0.0105011 1.05351e-24)
(1.00475 -0.00632774 -2.34626e-25)
(1.00338 -0.0102622 -1.04212e-25)
(1.00305 -0.00849711 -2.00587e-26)
(1.00037 -0.00926923 -2.59797e-25)
(0.998875 -0.00806757 -2.99401e-25)
(0.997349 -0.00774028 -6.37139e-25)
(0.996289 -0.00658709 -1.66617e-25)
(0.995421 -0.00605014 -1.02219e-25)
(0.99471 -0.00479434 -5.07198e-25)
(0.994334 -0.00447875 -2.16624e-25)
(0.993841 -0.00302398 -9.71224e-26)
(1.00268 -0.000130629 0)
(1.00294 -0.000295723 -1.76714e-26)
(1.0033 -0.000362252 -2.36887e-26)
(1.00377 -0.000500755 3.61428e-27)
(1.00451 -0.000686588 1.65845e-25)
(1.00523 -0.000776139 -7.60641e-25)
(1.00647 -0.00137853 0)
(1.00754 -0.00120837 -2.27682e-25)
(1.00951 -0.00291804 0)
(1.0098 -0.00173801 0)
(1.01068 -0.00598993 -1.08412e-28)
(0.969722 -0.00207044 3.16432e-27)
(0.974561 -0.00914463 3.93094e-25)
(1.00527 -0.00517597 -1.47396e-25)
(1.00379 -0.00906187 -4.45135e-26)
(1.00302 -0.00707204 -9.12757e-27)
(1.00004 -0.00822158 4.2136e-26)
(0.998383 -0.00702623 -1.30521e-25)
(0.996699 -0.007009 -1.66278e-25)
(0.995597 -0.00595548 2.76232e-25)
(0.994678 -0.00563691 -1.01648e-25)
(0.993994 -0.0044925 0)
(0.993605 -0.00429717 4.77775e-30)
(0.99318 -0.00299142 0)
(1.00281 -0.00020749 0)
(1.00305 -0.000425166 -2.81631e-26)
(1.00344 -0.000533946 -1.74916e-26)
(1.00391 -0.000691339 3.65072e-26)
(1.00472 -0.000964311 0)
(1.00548 -0.00101753 6.09153e-26)
(1.00684 -0.00175342 -6.42983e-25)
(1.00801 -0.00142418 -4.86913e-25)
(1.01011 -0.00327762 -5.11585e-26)
(1.01066 -0.00183829 -1.37933e-27)
(1.0113 -0.00583628 3.7029e-25)
(0.970803 -0.00215517 -2.724e-25)
(0.975516 -0.00813107 4.99523e-25)
(1.00572 -0.00435433 -1.18055e-25)
(1.00416 -0.00810808 1.19096e-25)
(1.00303 -0.0059644 4.87853e-27)
(0.999833 -0.00737489 -1.05588e-25)
(0.99803 -0.00613615 8.90538e-26)
(0.9962 -0.00637593 2.21528e-25)
(0.995048 -0.00537597 -4.10336e-30)
(0.994065 -0.00524447 -4.83511e-26)
(0.993394 -0.00419189 -3.10564e-25)
(0.99298 -0.00409797 1.61755e-25)
(0.992606 -0.00293144 1.48635e-25)
(1.00296 -0.000289952 -1.93567e-26)
(1.00319 -0.000547094 -3.61452e-26)
(1.00361 -0.000689666 -8.85513e-34)
(1.00409 -0.000850437 8.90104e-26)
(1.00495 -0.001197 2.36406e-25)
(1.00575 -0.00119373 4.43615e-26)
(1.0072 -0.00203897 -6.47488e-25)
(1.00845 -0.00155736 -4.38322e-25)
(1.01062 -0.00349518 2.51571e-25)
(1.01137 -0.00188894 0)
(1.01176 -0.00563542 7.32548e-26)
(0.971584 -0.00216378 -9.89607e-26)
(0.976177 -0.00733805 1.56688e-25)
(1.00607 -0.00373666 -9.19658e-26)
(1.00447 -0.00733316 -5.78289e-31)
(1.00305 -0.00509179 -1.69035e-25)
(0.999706 -0.00668412 -8.60892e-26)
(0.997768 -0.00538247 -1.68784e-26)
(0.995812 -0.00583388 1.17413e-25)
(0.99461 -0.00485419 -1.61718e-25)
(0.993557 -0.00488191 -2.6281e-25)
(0.99289 -0.00390196 -1.30753e-25)
(0.992445 -0.00389255 -1.38996e-25)
(0.99211 -0.00285084 1.29195e-25)
(1.00313 -0.0003764 -3.28081e-34)
(1.00335 -0.000660333 -2.09346e-26)
(1.0038 -0.000830199 2.41779e-26)
(1.00429 -0.00098169 4.95124e-26)
(1.0052 -0.00139083 3.2107e-29)
(1.00602 -0.0013205 0)
(1.00755 -0.00225444 -2.72762e-26)
(1.00887 -0.00163749 -4.15643e-25)
(1.01107 -0.00361814 2.15268e-25)
(1.01196 -0.00190906 0)
(1.01213 -0.00541574 -1.48804e-30)
(0.972186 -0.00212672 7.54638e-26)
(0.976654 -0.00670914 -1.59392e-25)
(1.00634 -0.00326657 0)
(1.00472 -0.00669828 6.55466e-27)
(1.00307 -0.00439899 3.6782e-26)
(0.999625 -0.00611587 0)
(0.997567 -0.00474676 3.99216e-26)
(0.995507 -0.00537197 3.8581e-26)
(0.994256 -0.00439003 -4.26961e-25)
(0.993135 -0.00455274 -1.09874e-25)
(0.992467 -0.00362801 1.10582e-25)
(0.991986 -0.00368826 -1.4441e-25)
(0.99168 -0.00275496 0)
(1.00332 -0.00046588 2.35628e-26)
(1.00353 -0.000764921 -2.28316e-26)
(1.004 -0.000957294 0)
(1.00449 -0.00108967 2.73536e-26)
(1.00545 -0.00155228 8.17958e-26)
(1.0063 -0.00141106 2.27066e-26)
(1.00787 -0.00241585 0)
(1.00925 -0.00168374 5.38435e-27)
(1.01146 -0.00367799 1.93647e-25)
(1.01246 -0.00191127 0)
(1.01242 -0.00519785 4.99453e-26)
(0.972655 -0.00206784 3.03534e-26)
(0.976993 -0.00620263 -1.08445e-25)
(1.00656 -0.0029027 1.50029e-26)
(1.00492 -0.00617575 -4.06549e-26)
(1.00308 -0.00384646 -3.03425e-27)
(0.99957 -0.00564564 2.92144e-26)
(0.997409 -0.00421214 -1.03947e-26)
(0.995262 -0.0049792 -2.65245e-28)
(0.993965 -0.00398069 -1.52386e-25)
(0.992781 -0.00425748 5.64579e-26)
(0.992109 -0.00337264 6.26461e-26)
(0.991593 -0.0034901 -2.41078e-26)
(0.991307 -0.00264797 -1.28686e-26)
(1.00351 -0.000557784 -2.90944e-27)
(1.00372 -0.000861617 -3.31415e-26)
(1.00421 -0.00107292 -7.32325e-27)
(1.00471 -0.00117897 0)
(1.0057 -0.00168738 4.93822e-25)
(1.00656 -0.00147604 0)
(1.00816 -0.0025364 -2.91764e-25)
(1.0096 -0.00170936 0)
(1.0118 -0.00369714 1.64051e-25)
(1.01289 -0.0019055 9.93877e-26)
(1.01264 -0.00499214 0)
(0.973022 -0.00200635 2.40378e-26)
(0.977232 -0.0057917 0)
(1.00674 -0.00261861 1.19817e-26)
(1.00508 -0.00574258 -1.09515e-26)
(1.00309 -0.0034044 0)
(0.999531 -0.00525462 0)
(0.997278 -0.00376419 -8.59739e-27)
(0.995061 -0.00464567 1.3201e-26)
(0.993722 -0.00362244 0)
(0.992481 -0.00399469 0)
(0.991801 -0.0031368 5.5244e-26)
(0.991251 -0.00330095 1.14941e-26)
(0.99098 -0.0025331 -4.33374e-26)
(1.00371 -0.000651681 2.96939e-27)
(1.00392 -0.000951437 2.85502e-27)
(1.00442 -0.00117904 0)
(1.00492 -0.00125382 -9.50366e-27)
(1.00594 -0.00180146 2.53471e-25)
(1.00682 -0.00152363 1.19215e-26)
(1.00844 -0.00262685 -2.56553e-25)
(1.00992 -0.00172386 1.51844e-27)
(1.0121 -0.00369212 0)
(1.01325 -0.00189604 9.61e-26)
(1.01279 -0.00480585 0)
(0.973311 -0.00195441 0)
(0.977408 -0.00545429 0)
(1.00687 -0.00239462 5.72336e-26)
(1.00521 -0.0053809 9.32625e-26)
(1.00308 -0.00305093 0)
(0.999497 -0.00492839 -1.95851e-27)
(0.997164 -0.00339076 0)
(0.994892 -0.00436277 0)
(0.993514 -0.00331101 0)
(0.992221 -0.00376214 0)
(0.991534 -0.00292101 -5.32544e-26)
(0.990952 -0.00312252 -4.31546e-26)
(0.99069 -0.00241339 7.7897e-31)
(1.0039 -0.000747142 0)
(1.00411 -0.00103534 1.21406e-26)
(1.00463 -0.00127724 -2.5484e-26)
(1.00513 -0.00131761 2.62005e-26)
(1.00617 -0.00189892 2.41198e-25)
(1.00706 -0.00155999 4.81477e-25)
(1.00869 -0.0026958 0)
(1.01021 -0.00173401 0)
(1.01237 -0.003675 1.55923e-26)
(1.01356 -0.0018885 5.87882e-27)
(1.01291 -0.004644 -2.98819e-33)
(0.97354 -0.00191232 2.45661e-26)
(0.977527 -0.00517377 1.35087e-25)
(1.00699 -0.00221828 4.47217e-26)
(1.00531 -0.00508256 3.44882e-27)
(1.00307 -0.00276802 0)
(0.999464 -0.00465675 -6.82887e-26)
(0.997061 -0.00307978 -9.11604e-26)
(0.994745 -0.00412322 0)
(0.99333 -0.00304112 -9.14884e-26)
(0.991993 -0.00355754 -7.86917e-41)
(0.991295 -0.0027242 1.28642e-25)
(0.990685 -0.00295593 8.02754e-26)
(0.990428 -0.00229071 6.47344e-26)
(1.00409 -0.000843615 -2.69971e-26)
(1.0043 -0.001114 9.39244e-27)
(1.00483 -0.00136865 -1.26369e-26)
(1.00533 -0.00137302 5.0964e-26)
(1.00639 -0.00198323 2.17597e-25)
(1.00729 -0.00158957 9.14054e-25)
(1.00892 -0.00274977 0)
(1.01048 -0.00174371 0)
(1.01262 -0.00365348 1.39169e-26)
(1.01384 -0.00188675 0)
(1.01299 -0.00450709 0)
(0.973726 -0.00188301 0)
(0.9776 -0.00494283 0)
(1.00707 -0.00208274 -3.39817e-26)
(1.00538 -0.00483767 -5.93339e-26)
(1.00306 -0.00254311 -5.60292e-26)
(0.999429 -0.00443161 -1.09215e-25)
(0.996965 -0.00282241 -7.66666e-26)
(0.994612 -0.00392127 0)
(0.993163 -0.0028087 -2.23659e-26)
(0.991787 -0.00337875 0)
(0.991078 -0.00254575 0)
(0.990442 -0.00280181 3.6948e-26)
(0.990186 -0.00216693 2.97107e-26)
(1.00427 -0.000940309 -2.13687e-26)
(1.00448 -0.00118772 -1.50216e-26)
(1.00502 -0.00145383 -5.40526e-27)
(1.00553 -0.00142185 6.27572e-27)
(1.00659 -0.00205689 -6.07946e-34)
(1.00752 -0.0016156 4.30303e-25)
(1.00914 -0.00279359 0)
(1.01073 -0.00175545 -3.17661e-26)
(1.01284 -0.00363287 4.0936e-27)
(1.01408 -0.00189338 -4.57591e-27)
(1.01305 -0.00439544 5.23792e-26)
(0.973876 -0.0018688 8.21488e-27)
(0.977635 -0.00475617 4.35837e-26)
(1.00714 -0.00198309 0)
(1.00543 -0.00463882 0)
(1.00303 -0.00236695 5.11377e-28)
(0.99939 -0.00424676 4.43668e-26)
(0.996871 -0.00261149 2.88743e-31)
(0.99449 -0.00375253 -4.03829e-26)
(0.993007 -0.00261033 0)
(0.991598 -0.00322386 0)
(0.990876 -0.00238526 1.36969e-26)
(0.990216 -0.00266072 0)
(0.989957 -0.00204385 0)
(1.00444 -0.00103607 0)
(1.00465 -0.00125616 -2.19696e-26)
(1.0052 -0.00153271 -1.64937e-26)
(1.00572 -0.00146491 -2.65058e-26)
(1.00679 -0.00212155 0)
(1.00773 -0.00163986 0)
(1.00935 -0.00283041 0)
(1.01096 -0.00177115 -2.72101e-26)
(1.01305 -0.00361733 0)
(1.0143 -0.00191065 -3.16161e-27)
(1.0131 -0.00431003 1.93837e-26)
(0.973997 -0.00187205 -7.99211e-28)
(0.977641 -0.00461021 3.31193e-26)
(1.00718 -0.00191622 3.17288e-26)
(1.00546 -0.00448075 3.65004e-26)
(1.00299 -0.00223262 0)
(0.999346 -0.00409729 -3.53387e-26)
(0.996777 -0.00244126 -4.16599e-26)
(0.994372 -0.00361349 0)
(0.992858 -0.00244314 0)
(0.99142 -0.00309159 0)
(0.990681 -0.00224263 1.31809e-26)
(0.990001 -0.00253336 0)
(0.989734 -0.00192344 0)
(1.00459 -0.00112912 1.4621e-27)
(1.00481 -0.00131838 -1.58662e-26)
(1.00537 -0.00160443 4.56264e-27)
(1.0059 -0.00150235 0)
(1.00698 -0.00217778 2.97218e-26)
(1.00793 -0.00166197 1.15955e-26)
(1.00954 -0.00286201 0)
(1.01118 -0.00179126 -1.29979e-26)
(1.01325 -0.00360919 6.73884e-28)
(1.01451 -0.00194016 -7.52588e-27)
(1.01313 -0.00425284 -2.29888e-27)
(0.974093 -0.00189547 -6.34426e-27)
(0.977624 -0.00450294 4.62899e-26)
(1.00721 -0.00188033 6.13038e-28)
(1.00548 -0.00435941 -4.28016e-28)
(1.00295 -0.00213483 2.3414e-26)
(0.999295 -0.0039794 7.58854e-28)
(0.996679 -0.00230701 -3.24176e-27)
(0.994258 -0.00350127 0)
(0.992709 -0.00230487 -2.82022e-26)
(0.991248 -0.00298098 -2.56175e-26)
(0.990489 -0.00211813 0)
(0.98979 -0.00242086 3.33318e-26)
(0.98951 -0.00180798 1.20462e-26)
(1.00473 -0.00121671 0)
(1.00496 -0.00137263 -1.1511e-26)
(1.00553 -0.00166749 -6.0317e-27)
(1.00608 -0.00153398 -2.05553e-27)
(1.00715 -0.00222528 0)
(1.00813 -0.00168176 1.9487e-25)
(1.00973 -0.00288934 -5.23384e-26)
(1.0114 -0.00181506 -2.5276e-26)
(1.01344 -0.0036098 1.67943e-27)
(1.01471 -0.00198306 1.12002e-26)
(1.01315 -0.00422852 1.34876e-27)
(0.974168 -0.00194359 -2.59932e-26)
(0.977587 -0.00443446 1.31256e-26)
(1.00722 -0.00187488 3.06559e-28)
(1.00548 -0.00427152 -1.89813e-26)
(1.00289 -0.00206901 -1.51129e-26)
(0.999239 -0.00388973 1.69553e-27)
(0.996575 -0.00220487 -3.41922e-27)
(0.994146 -0.00341382 0)
(0.992559 -0.00219406 -1.8571e-26)
(0.991082 -0.00289183 -2.01266e-26)
(0.990297 -0.00201281 0)
(0.989583 -0.00232496 1.05411e-26)
(0.989282 -0.00170063 -1.54717e-26)
(1.00485 -0.0012952 -7.67795e-27)
(1.00511 -0.00141678 9.48602e-27)
(1.00567 -0.00171995 -2.2022e-26)
(1.00625 -0.00155826 -1.59524e-27)
(1.00732 -0.00226322 2.07641e-26)
(1.00834 -0.00169825 2.11673e-25)
(1.00991 -0.00291227 -2.18466e-26)
(1.01162 -0.00184074 -6.66934e-27)
(1.01363 -0.00361908 4.021e-27)
(1.01491 -0.00203807 2.59803e-26)
(1.01318 -0.00424284 6.44642e-27)
(0.974218 -0.00202172 2.09419e-26)
(0.977534 -0.00440577 -2.8516e-27)
(1.00721 -0.00189998 0)
(1.00546 -0.00421367 -1.14949e-26)
(1.00281 -0.00203066 -7.95898e-27)
(0.999178 -0.00382506 9.42987e-28)
(0.996457 -0.00213121 0)
(0.994034 -0.00334897 1.89978e-27)
(0.992398 -0.00210925 2.71501e-27)
(0.990916 -0.00282354 -1.47487e-26)
(0.990092 -0.0019278 -1.94204e-26)
(0.98937 -0.00224738 7.22654e-27)
(0.989034 -0.00160519 0)
(1.00493 -0.0013559 -4.89853e-27)
(1.00524 -0.00144602 8.67385e-27)
(1.00579 -0.00175662 -7.60309e-27)
(1.00641 -0.00157253 0)
(1.00746 -0.0022884 0)
(1.00852 -0.00170884 -4.60149e-26)
(1.01007 -0.00292773 2.34885e-26)
(1.01183 -0.0018629 1.24797e-26)
(1.0138 -0.00363394 1.11384e-26)
(1.01511 -0.00210303 -2.91332e-27)
(1.01321 -0.00432297 -2.33338e-26)
(0.974245 -0.00214936 0)
(0.977476 -0.00442296 0)
(1.00718 -0.00195675 0)
(1.00544 -0.00418134 0)
(1.00272 -0.00201365 -1.21176e-27)
(0.999123 -0.00378292 0)
(0.996342 -0.00208421 0)
(0.993938 -0.00330621 1.62863e-27)
(0.992247 -0.00205196 0)
(0.990773 -0.00277774 0)
(0.989902 -0.00186777 0)
(0.989181 -0.00219294 6.45267e-27)
(0.988802 -0.00153063 0)
(1.00502 -0.00139935 0)
(1.00544 -0.00146357 -1.17866e-27)
(1.00594 -0.00178059 -3.14921e-27)
(1.00668 -0.00157978 -6.01458e-28)
(1.00764 -0.00230441 4.8301e-27)
(1.00885 -0.00171534 -7.80793e-26)
(1.01027 -0.00293794 3.92171e-27)
(1.0122 -0.00188054 4.16739e-30)
(1.01406 -0.00365037 3.03055e-33)
(1.01552 -0.00215568 -5.84064e-31)
(1.01336 -0.00445184 -3.59513e-26)
(0.974175 -0.00231759 0)
(0.977368 -0.00447944 -1.9e-26)
(1.00702 -0.00204693 -2.5214e-26)
(1.00538 -0.00416652 -1.51542e-28)
(1.00254 -0.00201098 -1.33882e-27)
(0.999062 -0.0037568 0)
(0.996121 -0.00205618 0)
(0.993824 -0.00327881 0)
(0.99198 -0.00201501 0)
(0.99058 -0.00274793 0)
(0.98958 -0.00182715 0)
(0.988902 -0.0021564 4.64585e-27)
(0.988407 -0.00147578 0)
(1.07241 -0.0950907 1.84576e-26)
(1.12612 0.128918 7.09485e-26)
(1.01738 0.148385 2.92279e-25)
(1.11404 -0.0291191 -3.48507e-26)
(1.18244 0.0331645 -1.14073e-26)
(1.13761 0.11892 -5.80944e-26)
(1.10142 0.035019 -1.46438e-26)
(1.16172 -0.0676848 -1.59108e-25)
(1.18394 0.0194519 -4.68922e-26)
(1.05942 0.0680027 -8.42445e-26)
(1.09827 -0.112473 2.26854e-25)
(1.15514 -0.0764078 0)
(1.01281 0.0655235 7.28218e-30)
(1.03081 -0.112067 -1.61461e-25)
(1.08934 -0.114963 1.55137e-25)
(0.983472 0.0367436 0)
(0.54926 0.0162014 -9.25364e-26)
(0.540125 -0.0397429 1.63563e-25)
(0.987862 -0.0747416 8.33777e-25)
(1.02342 -0.109079 -2.40009e-25)
(0.979664 -0.0994622 1.96737e-25)
(0.909363 0.00525721 4.37326e-26)
(1.0022 0.14081 4.30234e-25)
(0.962159 0.0687698 1.02031e-24)
(1.04269 -0.0474176 -1.28013e-25)
(1.06812 -0.0850417 5.2967e-27)
(0.999728 -0.0951974 -2.51315e-25)
(1.08254 0.242657 0)
(0.953176 0.229711 -2.37117e-25)
(1.12008 0.117566 0)
(1.08023 0.0655659 1.25866e-26)
(1.04353 0.075857 -1.41107e-24)
(1.06526 -0.0196077 1.2821e-25)
(1.10674 -0.026667 -3.31905e-26)
(1.07577 -0.0789774 6.23459e-27)
(1.1005 -0.064581 -6.00581e-27)
(1.13199 -0.0805096 5.66123e-27)
(1.10506 -0.121267 -7.82963e-27)
(1.19971 0.100707 8.01843e-26)
(1.16907 0.172148 3.05436e-26)
(1.1726 0.0316274 5.11721e-27)
(1.11076 0.0225373 -4.07122e-25)
(1.09071 0.0570653 1.49749e-25)
(1.06403 0.0125712 2.69632e-25)
(1.09668 0.0314932 1.27687e-26)
(1.10795 -0.0183056 -2.53775e-28)
(1.11351 0.00594899 2.18294e-30)
(1.14079 0.0176847 -3.36301e-26)
(1.14614 -0.025282 -5.62731e-28)
(1.21418 -0.0246526 2.17032e-27)
(1.22131 0.0461474 -4.15232e-26)
(1.15581 -0.0553216 -1.80063e-25)