/*--------------------------------*- C++ -*----------------------------------*\
| =========                 |                                                 |
| \\      /  F ield         | OpenFOAM: The Open Source CFD Toolbox           |
|  \\    /   O peration     | Version:  5.x                                   |
|   \\  /    A nd           | Web:      www.OpenFOAM.org                      |
|    \\/     M anipulation  |                                                 |
\*---------------------------------------------------------------------------*/
FoamFile
{
    version     2.0;
    format      ascii;
    class       volScalarField;
    location    "500";
    object      Y;
}
// * * * * * * * * * * * * * * * * * * * * * * * * * * * * * * * * * * * * * //

dimensions      [0 0 0 0 0 0 0];

internalField   nonuniform List<scalar> 
6584
(
0.00632781
0.00632781
0.00632781
0.00632781
0.00632781
0.00632781
0.00632781
0.00632782
0.00632782
0.00632782
0.00632782
0.00632782
0.00632782
0.00632782
0.00632782
0.00632782
0.00632782
0.00632781
0.00632781
0.00632781
0.00632781
0.00632781
0.00632781
0.00632781
0.00632561
0.00632561
0.00632561
0.00632562
0.00632562
0.00632562
0.00632562
0.00632563
0.00632563
0.00632563
0.00632563
0.00632563
0.00632564
0.00632564
0.00632563
0.00632563
0.00632563
0.00632563
0.00632562
0.00632562
0.00632562
0.00632561
0.00632561
0.00632561
0.00632341
0.00632342
0.00632342
0.00632342
0.00632342
0.00632342
0.00632343
0.00632344
0.00632345
0.00632454
0.00632454
0.00632454
0.00632454
0.00632454
0.00632454
0.00632345
0.00632344
0.00632344
0.00632343
0.00632343
0.00632342
0.00632342
0.00632342
0.00632341
0.00632122
0.00632122
0.00632122
0.00632122
0.00632123
0.00632123
0.00632124
0.00632125
0.00632126
0.00632235
0.00632235
0.00632234
0.00632234
0.00632235
0.00632235
0.00632235
0.00632125
0.00632124
0.00632124
0.00632123
0.00632123
0.00632123
0.00632122
0.00632122
0.00631902
0.00631902
0.00631903
0.00631903
0.00631903
0.00631904
0.00631904
0.00631904
0.00632015
0.00632015
0.00632014
0.00632013
0.00632013
0.00632014
0.00632016
0.00632016
0.00632016
0.00631906
0.00631905
0.00631904
0.00631904
0.00631903
0.00631903
0.00631903
0.00631683
0.00631683
0.00631683
0.00631684
0.00631684
0.00631685
0.00631685
0.00631794
0.00631794
0.00631793
0.00631847
0.00631845
0.00631844
0.00631847
0.00631795
0.00631797
0.00631797
0.00631689
0.00631687
0.00631686
0.00631685
0.00631684
0.00631684
0.00631683
0.00631464
0.00631464
0.00631464
0.00631465
0.00631465
0.00631466
0.00631467
0.00631576
0.00631574
0.00631573
0.00631622
0.00631644
0.00631641
0.00631621
0.00631631
0.0063158
0.00631581
0.00631473
0.00631469
0.00631468
0.00631466
0.00631465
0.00631465
0.00631464
0.00631244
0.00631245
0.00631245
0.00631246
0.00631247
0.00631248
0.0063125
0.00631358
0.00631357
0.00631357
0.006314
0.0063141
0.00631422
0.00631415
0.00631367
0.00631366
0.00631257
0.00631252
0.0063125
0.00631248
0.00631247
0.00631246
0.00631245
0.00631025
0.00631026
0.00631026
0.00631027
0.00631028
0.0063103
0.00631033
0.00631141
0.00631141
0.00631144
0.00631187
0.00631196
0.00631213
0.00631206
0.00631157
0.00631153
0.00631043
0.00631036
0.00631033
0.0063103
0.00631028
0.00631027
0.00631026
0.00630806
0.00630807
0.00630808
0.00630809
0.0063081
0.00630812
0.00630816
0.00630925
0.00630926
0.00630932
0.00630979
0.00630996
0.00631022
0.00631005
0.00630948
0.00630941
0.00630828
0.0063082
0.00630815
0.00630812
0.0063081
0.00630808
0.00630807
0.00630587
0.00630588
0.00630589
0.0063059
0.00630592
0.00630595
0.006306
0.00630709
0.00630712
0.00630721
0.00630772
0.00630797
0.00630832
0.00630804
0.00630741
0.00630729
0.00630613
0.00630604
0.00630598
0.00630594
0.00630591
0.00630589
0.00630588
0.00630368
0.00630369
0.0063037
0.00630372
0.00630374
0.00630377
0.00630383
0.00630492
0.00630498
0.00630508
0.00630563
0.00630593
0.00630635
0.00630599
0.00630531
0.00630517
0.00630398
0.00630387
0.0063038
0.00630376
0.00630372
0.0063037
0.00630368
0.00630149
0.0063015
0.00630151
0.00630153
0.00630156
0.0063016
0.00630166
0.00630275
0.00630282
0.00630293
0.00630349
0.00630379
0.00630425
0.00630389
0.00630319
0.00630303
0.00630182
0.0063017
0.00630163
0.00630157
0.00630153
0.00630151
0.00630149
0.0062993
0.00629931
0.00629933
0.00629935
0.00629938
0.00629942
0.00629948
0.00629952
0.00630064
0.00630074
0.00630127
0.00630149
0.00507161
0.00630174
0.00630173
0.00630104
0.00630088
0.00629966
0.00629953
0.00629945
0.00629938
0.00629934
0.00629931
0.00629929
0.00629711
0.00629712
0.00629714
0.00629716
0.00629719
0.00629723
0.00629729
0.00629731
0.00629843
0.00629852
0.00629906
0.00629898
0.0059818
0.00629952
0.00629894
0.00629886
0.00629755
0.00629746
0.00629733
0.00629725
0.0062972
0.00629715
0.00629711
0.00629709
0.00629492
0.00629493
0.00629495
0.00629497
0.00629501
0.00629504
0.00629509
0.00629511
0.00629623
0.00629633
0.00629632
0.00629675
0.0060053
0.00629676
0.00629674
0.00629667
0.00629537
0.00629527
0.00629513
0.00629505
0.00629499
0.00629494
0.00629491
0.00629488
0.00629273
0.00629274
0.00629276
0.00629278
0.00629282
0.00629285
0.00629289
0.00629293
0.00629299
0.00629415
0.00629414
0.0062894
0.00615626
0.00629456
0.00629455
0.00629448
0.00629317
0.00629307
0.00629293
0.00629285
0.00629278
0.00629273
0.0062927
0.00629267
0.00629053
0.00629055
0.00629057
0.00629059
0.00629063
0.00629065
0.0062907
0.00629075
0.00629081
0.00629086
0.00629195
0.00628448
0.0061575
0.00629236
0.00629126
0.00629111
0.00629097
0.00629087
0.00629073
0.00629064
0.00629058
0.00629052
0.00629049
0.00629046
0.00628834
0.00628836
0.00628838
0.0062884
0.00628844
0.00628846
0.00628852
0.00628857
0.00628863
0.00628867
0.00628787
0.00611981
0.00622431
0.00628908
0.00628907
0.00628891
0.00628877
0.00628867
0.00628853
0.00628843
0.00628837
0.00628831
0.00628828
0.00628824
0.00628615
0.00628617
0.00628618
0.00628621
0.00628625
0.00628628
0.00628633
0.00628639
0.00628645
0.00628649
0.00628499
0.00611831
0.00622257
0.00628688
0.00628687
0.00628672
0.00628657
0.00628647
0.00628632
0.00628623
0.00628616
0.0062861
0.00628607
0.00628603
0.00628396
0.00628397
0.00628399
0.00628402
0.00628406
0.00628409
0.00628415
0.00628421
0.00628427
0.0062843
0.00628215
0.00611675
0.00622076
0.00628469
0.00628468
0.00628452
0.00628437
0.00628426
0.00628412
0.00628402
0.00628394
0.00628389
0.00628385
0.00628381
0.00628176
0.00628178
0.0062818
0.00628184
0.00628187
0.0062819
0.00628197
0.00628203
0.0062821
0.00628212
0.00627933
0.00611515
0.0062189
0.00628249
0.00628249
0.00628233
0.00628217
0.00628206
0.00628191
0.00628181
0.00628173
0.00628167
0.00628164
0.00628159
0.00627957
0.00627959
0.00627961
0.00627965
0.00627969
0.00627972
0.00627979
0.00627985
0.00627992
0.00627993
0.00627654
0.00611351
0.00621701
0.0062803
0.0062803
0.00628014
0.00627997
0.00627985
0.0062797
0.0062796
0.00627952
0.00627946
0.00627942
0.00627937
0.00627738
0.0062774
0.00627742
0.00627746
0.0062775
0.00627754
0.00627761
0.00627767
0.00627775
0.00627775
0.00627378
0.00611183
0.00621508
0.00627811
0.00627811
0.00627794
0.00627777
0.00627765
0.00627749
0.00627738
0.0062773
0.00627724
0.0062772
0.00627716
0.00627519
0.00627521
0.00627523
0.00627527
0.00627531
0.00627535
0.00627543
0.0062755
0.00627558
0.00627556
0.00627104
0.00611013
0.00621313
0.00627591
0.00627592
0.00627575
0.00627557
0.00627544
0.00627528
0.00627517
0.00627509
0.00627502
0.00627498
0.00627494
0.006273
0.00627302
0.00627305
0.00627308
0.00627313
0.00627317
0.00627325
0.00627332
0.00627341
0.00627338
0.00626827
0.00610844
0.00621118
0.00627372
0.00627373
0.00627356
0.00627337
0.00627324
0.00627307
0.00627296
0.00627287
0.00627281
0.00627277
0.00627272
0.00627081
0.00627083
0.00627086
0.0062709
0.00627094
0.00627099
0.00627108
0.00627115
0.00627124
0.00627119
0.00626546
0.00610679
0.00620926
0.00627154
0.00627155
0.00627137
0.00627118
0.00627104
0.00627087
0.00627075
0.00627066
0.0062706
0.00627055
0.0062705
0.00626862
0.00626864
0.00626867
0.00626871
0.00626876
0.00626881
0.0062689
0.00626897
0.00626907
0.006269
0.00626267
0.00610512
0.00620732
0.00626935
0.00626937
0.00626918
0.00626898
0.00626884
0.00626866
0.00626854
0.00626845
0.00626838
0.00626834
0.00626829
0.00626643
0.00626645
0.00626648
0.00626652
0.00626658
0.00626663
0.00626672
0.0062668
0.0062669
0.00626681
0.0062599
0.00610344
0.00620537
0.00626717
0.00626718
0.006267
0.00626679
0.00626664
0.00626646
0.00626633
0.00626624
0.00626617
0.00626612
0.00626608
0.00626424
0.00626427
0.0062643
0.00626434
0.00626439
0.00626445
0.00626455
0.00626463
0.00626474
0.00626462
0.00625714
0.00610174
0.00620341
0.00626498
0.006265
0.00626481
0.00626459
0.00626444
0.00626425
0.00626413
0.00626403
0.00626395
0.00626391
0.00626386
0.00626206
0.00626208
0.00626211
0.00626215
0.00626221
0.00626227
0.00626237
0.00626246
0.00626257
0.00626243
0.0062544
0.00610004
0.00620144
0.00626279
0.00626282
0.00626262
0.0062624
0.00626224
0.00626204
0.00626192
0.00626182
0.00626174
0.00626169
0.00626164
0.00625987
0.00625989
0.00625992
0.00625997
0.00626003
0.00626009
0.0062602
0.00626029
0.00626041
0.00626023
0.00625166
0.00609833
0.00619947
0.00626061
0.00626064
0.00626043
0.0062602
0.00626003
0.00625984
0.00625971
0.0062596
0.00625953
0.00625947
0.00625943
0.00625768
0.0062577
0.00625774
0.00625778
0.00625784
0.00625791
0.00625803
0.00625813
0.00625824
0.00625804
0.00624892
0.00609662
0.00619749
0.00625842
0.00625845
0.00625825
0.00625801
0.00625783
0.00625763
0.0062575
0.00625739
0.00625731
0.00625726
0.00625721
0.00625549
0.00625552
0.00625555
0.0062556
0.00625566
0.00625574
0.00625586
0.00625596
0.00625608
0.00625584
0.00624619
0.00609491
0.00619552
0.00625624
0.00625627
0.00625606
0.00625581
0.00625563
0.00625542
0.00625529
0.00625518
0.00625509
0.00625504
0.00625499
0.00625331
0.00625333
0.00625337
0.00625341
0.00625348
0.00625356
0.00625369
0.00625379
0.00625391
0.00625364
0.00624344
0.0060932
0.00619355
0.00625405
0.00625409
0.00625387
0.00625362
0.00625343
0.00625322
0.00625307
0.00625296
0.00625288
0.00625282
0.00625278
0.00625112
0.00625115
0.00625118
0.00625123
0.0062513
0.00625139
0.00625152
0.00625162
0.00625175
0.00625144
0.00624067
0.0060915
0.00619158
0.00625187
0.00625191
0.00625168
0.00625142
0.00625123
0.00625101
0.00625086
0.00625075
0.00625066
0.00625061
0.00625056
0.00631222
0.00631235
0.00631416
0.00631021
0.00631045
0.00631211
0.00630822
0.00630857
0.00631022
0.00630619
0.00630662
0.00630833
0.00630406
0.00630454
0.00630637
0.00630178
0.00494248
0.00501676
0.00630234
0.00630427
0.00631439
0.00631641
0.00631444
0.00631647
0.0063124
0.00631226
0.00631416
0.00631308
0.00631409
0.00631238
0.00631254
0.0063141
0.00631031
0.00631022
0.006312
0.0063112
0.00630919
0.00631156
0.00630705
0.0063114
0.00631045
0.00631054
0.00631204
0.00630824
0.00630823
0.00630997
0.00630922
0.00630123
0.00630312
0.0062631
0.00628619
0.00630856
0.00630855
0.00631004
0.00630615
0.00630618
0.00630797
0.00630721
0.00630204
0.00630145
0.00629491
0.00627495
0.00630661
0.00630654
0.00630805
0.00630317
0.00630347
0.00630453
0.00630446
0.00630602
0.00630277
0.00630331
0.00629954
0.00529277
0.00494824
0.00572462
0.00630007
0.00630204
0.00631181
0.00631295
0.006313
0.00631291
0.00631104
0.00631407
0.00631305
0.00631157
0.00631301
0.0063131
0.00631299
0.00631192
0.00630368
0.0063086
0.00631095
0.00630311
0.00628433
0.00631045
0.00630405
0.00628764
0.00630683
0.00631116
0.00630892
0.00630362
0.0063118
0.00630908
0.00631139
0.00630137
0.00630119
0.00630897
0.00627883
0.00628652
0.00628348
0.00627851
0.00627416
0.00626177
0.00630928
0.0063013
0.00630235
0.00630351
0.00630144
0.00630952
0.00628251
0.00628964
0.00628711
0.00628133
0.00630329
0.00629603
0.00630736
0.00630467
0.00630554
0.0063024
0.00630454
0.00630761
0.00629547
0.00629764
0.00629048
0.00629501
0.00630335
0.00630326
0.0063055
0.00630502
0.0063056
0.00629875
0.00629531
0.00629786
0.00629871
0.00630174
0.00630266
0.00631327
0.00631309
0.00631413
0.00631324
0.00631398
0.00630403
0.00630405
0.00630592
0.00630514
0.00630283
0.0063027
0.00624338
0.00621123
0.00630232
0.00630231
0.00630393
0.006314
0.00631327
0.00631414
0.00631312
0.00631336
0.00630265
0.00630213
0.00630696
0.00477807
0.005018
0.00580571
0.00593108
0.0050325
0.00533387
0.00620497
0.00614559
0.00630534
0.00630493
0.0063042
0.00594629
0.00602377
0.00630408
0.00630319
0.00630346
0.00631531
0.00631519
0.00631423
0.00631425
0.0063152
0.00631531
0.00631312
0.0063135
0.00631323
0.00631403
0.00631333
0.00631364
0.0063087
0.00630966
0.00627626
0.00627745
0.00628813
0.00628582
0.00630276
0.00614686
0.00630424
0.00626756
0.00624696
0.00625085
0.00626962
0.00630312
0.00628859
0.00631241
0.00624063
0.00630454
0.00622674
0.00631217
0.0063064
0.00631322
0.00631348
0.00631282
0.00629529
0.00631237
0.00631246
0.00629262
0.00629144
0.00630864
0.00630818
0.00629561
0.00629668
0.00630435
0.00631072
0.00631109
0.00631024
0.0063106
0.00630427
0.0063107
0.00631171
0.00631209
0.00631122
0.00631159
0.00631034
0.0062825
0.00628293
0.00627908
0.00627868
0.00624581
0.00624803
0.00630018
0.00630887
0.00630921
0.00630842
0.00630876
0.00630011
0.00630265
0.00630978
0.00631012
0.00630932
0.00630966
0.00630252
0.0047988
0.00628586
0.00505501
0.00479025
0.00537139
0.0050724
0.00628686
0.00627631
0.00481599
0.00627754
0.00630121
0.00630072
0.00630342
0.00630797
0.00630831
0.00630751
0.00630785
0.00630367
0.00562545
0.00577956
0.00629271
0.00564248
0.00539384
0.00584617
0.00567087
0.00629336
0.00536555
0.00560109
0.0063034
0.00621351
0.0062472
0.00615417
0.00620669
0.00630339
0.0061309
0.00602363
0.0060507
0.00512343
0.0060326
0.00601292
0.00532379
0.0062671
0.00626947
0.00631382
0.00630185
0.00630179
0.00630378
0.00630297
0.00630215
0.00630285
0.00563929
0.00629865
0.0063009
0.00631382
0.00630252
0.00630282
0.00630487
0.00500717
0.00505901
0.00480982
0.00602153
0.00601967
0.00510389
0.005186
0.00625688
0.00626639
0.00434285
0.00631459
0.00631464
0.00631409
0.00631408
0.00631464
0.0063146
0.00631043
0.00631149
0.00631109
0.00630732
0.0063065
0.00631064
0.00630164
0.00630941
0.00630904
0.00630991
0.00630953
0.00630189
0.00626928
0.00628266
0.00629207
0.00627689
0.00600132
0.00594487
0.00630304
0.00627158
0.00628437
0.00628752
0.006287
0.005242
0.00631362
0.0063134
0.00631405
0.00631191
0.00630899
0.0063072
0.00631259
0.00631272
0.00631312
0.00631221
0.0063126
0.00631244
0.00630564
0.00631043
0.00631004
0.00631096
0.00631056
0.00630634
0.00629851
0.00610447
0.00622416
0.00601918
0.00603915
0.00628715
0.00623631
0.00624948
0.00630607
0.00629101
0.00630016
0.00630633
0.00631056
0.00631071
0.0063096
0.00630982
0.00630392
0.00630892
0.00630856
0.00630118
0.00628067
0.00596976
0.00590147
0.00628125
0.00599022
0.00601349
0.00588917
0.00590278
0.00627797
0.00626303
0.00625353
0.00630072
0.00630849
0.00630863
0.00630771
0.00630811
0.0063015
0.00630316
0.00630934
0.00630953
0.00630867
0.00630882
0.00630193
0.00630256
0.00624798
0.00626039
0.00623129
0.00622353
0.00629837
0.00630566
0.00630703
0.00630739
0.00630653
0.00630691
0.00630564
0.0062966
0.00597267
0.00586477
0.00608892
0.00605417
0.0062969
0.00543502
0.00548007
0.00629837
0.00612763
0.00609972
0.00538079
0.0054218
0.00606978
0.00601596
0.00631358
0.00631383
0.00631368
0.0059436
0.00623158
0.00598168
0.00600819
0.00600145
0.00622745
0.00631372
0.00631355
0.00631389
0.00631331
0.00631362
0.00480823
0.00488627
0.00503024
0.00501178
0.00586542
0.00516895
0.00513378
0.00526023
0.00518035
0.00588172
0.00511209
0.00516977
0.00618303
0.00617302
0.00598484
0.00538457
0.0053021
0.00519576
0.00524055
0.00631274
0.00631319
0.00631344
0.00631278
0.0063131
0.00631255
0.00630745
0.00631048
0.00627055
0.00628143
0.00629137
0.00627814
0.00615991
0.00626605
0.0062571
0.00627537
0.00626885
0.00615742
0.00623645
0.0062278
0.0062543
0.00624129
0.00626034
0.00609226
0.00612518
0.00603175
0.0060758
0.0062573
0.00591392
0.00593077
0.00627206
0.00631042
0.00630814
0.00631251
0.00631107
0.00628023
0.00629397
0.00628907
0.0063064
0.00629606
0.00631186
0.00631315
0.00631272
0.00631112
0.0063095
0.00631131
0.00630941
0.00631203
0.00631
0.00631204
0.00631265
0.00631042
0.0063118
0.00631271
0.00631224
0.00631148
0.00606611
0.00608672
0.00629676
0.00589448
0.00581044
0.00612209
0.00591255
0.00569054
0.0056154
0.00578481
0.00572319
0.0062882
0.00604624
0.00606094
0.00622566
0.00620286
0.0062865
0.00624436
0.00617435
0.00614809
0.00619857
0.00618122
0.00630663
0.00625249
0.00626076
0.00629216
0.00629956
0.00631021
0.00631047
0.00630527
0.00630401
0.0063099
0.00631013
0.00598745
0.00598156
0.00628121
0.00552923
0.00552943
0.00521908
0.00549158
0.00549989
0.0055956
0.00552286
0.00550291
0.00595628
0.00598253
0.00628061
0.00549636
0.00542068
0.00559744
0.00551969
0.00527918
0.00520405
0.00539148
0.00531415
0.00627812
0.0059155
0.00594593
0.00625534
0.00625181
0.00630831
0.00630844
0.00630056
0.00630093
0.00630815
0.00630827
0.00630909
0.00630927
0.00630304
0.00630207
0.00630887
0.00630904
0.00482585
0.00490794
0.00600564
0.00605071
0.00594639
0.0059896
0.00481705
0.00525269
0.00611066
0.00604111
0.00606306
0.00609935
0.00519036
0.00574973
0.00577564
0.00565153
0.00574004
0.0048908
0.00588812
0.00593433
0.00578998
0.00586376
0.00488874
0.00623702
0.00624491
0.00630228
0.00620341
0.00621952
0.00622375
0.00620262
0.00621934
0.00629894
0.00621876
0.00623038
0.0056877
0.00498017
0.00499365
0.00510827
0.00498717
0.00570992
0.00503243
0.00545649
0.0049978
0.00549531
0.00618164
0.00628268
0.00627736
0.00628892
0.00628444
0.0061862
0.00610785
0.00611668
0.00550028
0.00554947
0.00527201
0.00536352
0.0061065
0.00608214
0.0063145
0.00631464
0.00631627
0.00630318
0.00630297
0.00630211
0.00631427
0.0063143
0.00631396
0.00631391
0.0063143
0.00631428
0.0063153
0.00631525
0.0063143
0.00631201
0.00631162
0.00631076
0.00630714
0.00630061
0.00629967
0.00626455
0.00628498
0.00630795
0.00630759
0.00630168
0.00624859
0.00624463
0.00627552
0.00626314
0.00626947
0.00630389
0.00631237
0.00631254
0.00631214
0.00630188
0.00630508
0.00631148
0.0063128
0.0063124
0.00631279
0.00631011
0.0062858
0.00630044
0.00628876
0.0062987
0.00629767
0.00630621
0.00630714
0.00630721
0.00630373
0.00631089
0.00631105
0.00630941
0.0063012
0.00630843
0.00630807
0.00601693
0.00598825
0.00628479
0.0062727
0.00625394
0.00625231
0.00626044
0.00630115
0.00630612
0.00630616
0.0063034
0.00630699
0.00630706
0.0063062
0.00630624
0.00630159
0.006274
0.00606118
0.00603148
0.00630254
0.00630755
0.00630763
0.00630533
0.00630602
0.0063064
0.00507205
0.00507442
0.00615699
0.00613587
0.00629848
0.00507071
0.0050708
0.0062855
0.00628803
0.00630231
0.00631333
0.00631327
0.00476303
0.00480052
0.00481545
0.00499782
0.00504836
0.00477039
0.00478475
0.0050219
0.00497893
0.00529179
0.00609767
0.00608765
0.00615483
0.00545328
0.00539988
0.00599545
0.00631472
0.00631468
0.00631413
0.00631285
0.00631303
0.00631319
0.00631331
0.00631213
0.00631234
0.00631353
0.00631378
0.00631363
0.00630517
0.00630469
0.00630802
0.0063101
0.00630856
0.00630771
0.00627349
0.00627865
0.00625857
0.00626155
0.00628964
0.00628294
0.00624586
0.00625256
0.00617062
0.0061719
0.00620798
0.00620302
0.00614673
0.006175
0.00617861
0.00630399
0.00627197
0.0062788
0.00628249
0.00625576
0.00629241
0.00628807
0.00630964
0.0063079
0.00630057
0.00617798
0.00616028
0.00627704
0.00624573
0.00620128
0.00631339
0.00631324
0.00631247
0.00631234
0.00631062
0.00631154
0.00630052
0.00631113
0.00631179
0.00626343
0.00627725
0.00630982
0.00613729
0.0061158
0.00629455
0.00629772
0.00631154
0.00631169
0.00631122
0.00630954
0.00631121
0.00631138
0.00628431
0.00598517
0.00598556
0.00624603
0.00624926
0.00630661
0.00630667
0.00630278
0.00630236
0.00630649
0.00630655
0.00481876
0.0050332
0.00542886
0.00545469
0.00515667
0.0051775
0.00476626
0.00608226
0.00606671
0.00627515
0.00488551
0.0048532
0.00505045
0.00505464
0.00484289
0.00513557
0.00514528
0.00482752
0.00483433
0.00630739
0.00630747
0.00630266
0.00630409
0.00630723
0.00630731
0.00552198
0.00608946
0.00610472
0.00605733
0.00607337
0.00547979
0.00622913
0.00628581
0.00629013
0.0062889
0.00628744
0.00623432
0.00616547
0.00622102
0.00621434
0.00611492
0.00610142
0.00613287
0.00515639
0.00517841
0.00519196
0.00507614
0.00605617
0.00555424
0.00547917
0.00562058
0.00557278
0.00600148
0.00588824
0.00589337
0.00613394
0.00616126
0.00627414
0.00631374
0.00631382
0.00631361
0.0050079
0.00502327
0.00550243
0.0055007
0.00476024
0.00514829
0.00508203
0.005076
0.00507377
0.00507957
0.00517234
0.00436248
0.00609219
0.00610533
0.00631437
0.00631433
0.00631396
0.00630239
0.00630151
0.00630723
0.00630482
0.00630756
0.00630948
0.00630661
0.00630716
0.00626724
0.0062838
0.0062287
0.00623342
0.00623375
0.00622852
0.0062761
0.00624181
0.00624019
0.00598879
0.00589488
0.005894
0.00591164
0.00590789
0.00597285
0.00630848
0.0063105
0.00631063
0.00631011
0.00631037
0.00630792
0.00628987
0.00630454
0.00629652
0.00629369
0.00630383
0.00630729
0.00630737
0.00625371
0.00625488
0.00626964
0.00625632
0.00630604
0.00630608
0.00630091
0.00630686
0.00630693
0.00630328
0.00630178
0.00630628
0.00630633
0.0062316
0.00624749
0.00624097
0.00625295
0.0062509
0.00623001
0.0050786
0.00508766
0.00507634
0.0050722
0.00539514
0.00520589
0.00519532
0.0059135
0.00591331
0.00605342
0.00594246
0.0059653
0.0059008
0.00591861
0.00603432
0.00631351
0.00631342
0.00631348
0.00631347
0.00631375
0.00631379
0.00631389
0.00631359
0.00631367
0.00631365
0.00597306
0.0061154
0.00610726
0.00613802
0.0061263
0.00598203
0.00603673
0.00607681
0.00606
0.00610068
0.00609214
0.00602229
0.00631365
0.00631372
0.00631361
0.0063127
0.00631205
0.00631342
0.00631326
0.00476466
0.00496019
0.00482469
0.00481767
0.00502449
0.00501798
0.00534205
0.00536312
0.00514859
0.00477505
0.00476223
0.00507223
0.00488027
0.00488338
0.00486689
0.00523472
0.00490368
0.00482687
0.00610577
0.00612091
0.00619176
0.00606462
0.0060691
0.00605279
0.00605606
0.00616327
0.00608346
0.00608979
0.0052055
0.00505982
0.00506705
0.00505665
0.0050538
0.00521894
0.00631298
0.00631308
0.0063129
0.00631209
0.00631249
0.00631285
0.00630145
0.00630765
0.00630403
0.00630324
0.00630522
0.00630594
0.00630358
0.00630446
0.00627187
0.0062799
0.00623925
0.00624062
0.00623534
0.00623736
0.00629062
0.00626312
0.00626422
0.00623961
0.00624158
0.00628017
0.00624044
0.00618416
0.00617411
0.00615172
0.00619884
0.00619346
0.00623288
0.00618335
0.006182
0.00619925
0.00619012
0.00623034
0.00625094
0.00620712
0.00621238
0.00618781
0.00619791
0.00624648
0.00617959
0.00604636
0.00615653
0.00614835
0.00590332
0.00591196
0.0062683
0.00629612
0.00629429
0.00626394
0.00628718
0.00630323
0.00629899
0.00620666
0.00619162
0.00626018
0.0062636
0.00629083
0.00623805
0.00622264
0.00630577
0.00630807
0.00631176
0.00630961
0.00630277
0.00629349
0.00630229
0.00631096
0.00631167
0.00631188
0.00631085
0.0063112
0.00630971
0.00630797
0.00630949
0.00631221
0.00631163
0.00631132
0.00631237
0.00631182
0.00631241
0.00631077
0.00631096
0.00631007
0.00631106
0.00587232
0.00583955
0.00606279
0.00579742
0.00582727
0.0057345
0.00592875
0.00566187
0.00563689
0.00576251
0.00574354
0.00621424
0.00611022
0.00613519
0.0060594
0.0060841
0.00620763
0.00628164
0.00624319
0.00625451
0.00614995
0.00621648
0.00626998
0.00609549
0.00605535
0.00616738
0.00590157
0.00592594
0.0058601
0.00588046
0.00615963
0.00619413
0.00601719
0.0060371
0.00595333
0.00598384
0.00618795
0.0062935
0.00629872
0.00553979
0.00525284
0.005292
0.00517299
0.00521104
0.00553571
0.00529167
0.00531172
0.00530858
0.0053984
0.00551336
0.00496807
0.00500525
0.00503688
0.00497216
0.00554508
0.00551639
0.00510661
0.00513827
0.00504522
0.00507809
0.00551001
0.00547699
0.00545441
0.00557871
0.00554708
0.00524822
0.00522037
0.00536653
0.00534566
0.00624934
0.00625048
0.00630291
0.00630673
0.0063068
0.00630638
0.00630644
0.00630221
0.00483197
0.00533753
0.00539175
0.00499188
0.00476609
0.00521565
0.00527329
0.0049541
0.00491883
0.00575747
0.00528268
0.00528613
0.00569686
0.00523234
0.00513964
0.00528593
0.0052725
0.00572462
0.00503283
0.00499186
0.00507561
0.00511681
0.00487062
0.00488858
0.00498662
0.00624054
0.00627149
0.00626905
0.00627507
0.00627334
0.00624273
0.0062089
0.00621655
0.00621618
0.00620223
0.00620211
0.0062079
0.00621825
0.00625776
0.00625495
0.00626563
0.00626157
0.00622316
0.00498399
0.0051399
0.00515772
0.00511392
0.00512683
0.0049886
0.00506193
0.00527228
0.00531272
0.00518596
0.00522651
0.00501565
0.00502456
0.00489296
0.00491548
0.00488398
0.00488589
0.00499885
0.00506722
0.00509656
0.00496055
0.00501392
0.00499067
0.0062311
0.00622676
0.00617577
0.00610629
0.00612676
0.00510866
0.00514322
0.00530779
0.00511923
0.0050791
0.00518175
0.00515939
0.0053399
0.00508331
0.00508116
0.00589468
0.0058986
0.00631903
0.00631903
0.00632014
0.00631901
0.00631901
0.00632013
0.00631901
0.00631901
0.00632013
0.00631903
0.00631905
0.00632015
0.00631682
0.0063168
0.00631792
0.00631678
0.00631676
0.00631847
0.00631673
0.00631671
0.00631844
0.00631671
0.00631675
0.00631845
0.00631678
0.00631682
0.00631849
0.00631686
0.00631688
0.00631796
0.00631465
0.0063146
0.00631625
0.00631455
0.00631444
0.00631618
0.00631556
0.00631553
0.00631644
0.00631548
0.00631551
0.00631641
0.00631564
0.00631568
0.00631622
0.00631468
0.00631473
0.0063158
0.0063125
0.00631244
0.00631405
0.00631346
0.00631345
0.00631399
0.00631382
0.0063138
0.00631408
0.0063134
0.00631352
0.00631432
0.00631258
0.00631264
0.00631368
0.00631038
0.00631033
0.00631191
0.00631134
0.00631134
0.00631186
0.00631171
0.00631171
0.00631196
0.0063114
0.00631149
0.00631223
0.00631055
0.00631058
0.00631161
0.00630827
0.00630825
0.00630981
0.00630927
0.00630929
0.0063098
0.00630971
0.00630971
0.00630995
0.00630951
0.00630954
0.00631027
0.00630854
0.00630853
0.00630955
0.00630615
0.00630616
0.00630773
0.0063072
0.00630723
0.00630775
0.00630772
0.00630773
0.00630798
0.0063076
0.00630757
0.00630831
0.00630651
0.00630646
0.0063075
0.00630401
0.00630403
0.00630563
0.00630566
0.00630567
0.00630593
0.00630558
0.00630551
0.00630629
0.00630442
0.00630436
0.00630542
0.00630185
0.00630185
0.00630349
0.00630343
0.00630343
0.00630396
0.00630227
0.00630223
0.0063033
0.00629962
0.00629958
0.00630069
0.00629961
0.00629956
0.00630122
0.00630065
0.00629946
0.00630029
0.00523115
0.00623683
0.00624274
0.00630008
0.00630012
0.00630177
0.00630004
0.00630006
0.00630115
0.00629743
0.0062974
0.00629849
0.00629742
0.00629735
0.006299
0.00629731
0.00563012
0.00561275
0.00600002
0.00629783
0.00629951
0.00629785
0.00629791
0.00629954
0.00629784
0.00629786
0.00629896
0.00629523
0.00629518
0.00629629
0.00629217
0.00594574
0.00563514
0.00615543
0.00629547
0.00629727
0.00629566
0.00629571
0.00629681
0.00631222
0.00631247
0.00631248
0.0063126
0.00631269
0.00631229
0.00631414
0.00631387
0.00631389
0.0063102
0.00631045
0.00631046
0.00631069
0.00631068
0.00631033
0.00631216
0.00631178
0.00631187
0.00630823
0.00630847
0.00630847
0.00630881
0.00630883
0.00630849
0.00631021
0.00630987
0.00630998
0.00630619
0.00630645
0.00630645
0.00630687
0.00630694
0.00630657
0.00630837
0.00630802
0.00630809
0.00630481
0.00630479
0.00630452
0.00630632
0.00630607
0.00630611
0.00630056
0.0063019
0.00630268
0.00475741
0.00541915
0.00542614
0.00585452
0.00585595
0.00437739
0.00630425
0.00630398
0.006304
0.00631428
0.00631523
0.00631526
0.006314
0.006314
0.0063139
0.00631641
0.0063155
0.00631547
0.00631399
0.00631401
0.00631472
0.00631471
0.00631442
0.00631645
0.00631556
0.00631559
0.00631239
0.00631292
0.00631293
0.00631305
0.0063129
0.00631237
0.00631397
0.00631343
0.00631332
0.00631322
0.00631317
0.0063129
0.00631406
0.0063139
0.00631394
0.00631249
0.00631326
0.00631314
0.00631306
0.00631306
0.00631255
0.00631409
0.00631357
0.00631358
0.00631032
0.00631083
0.00631082
0.00631098
0.00631083
0.00631032
0.00631186
0.00631134
0.00631123
0.0063112
0.00631145
0.00631145
0.00630966
0.00631077
0.00631056
0.00631186
0.0063117
0.00631132
0.00631076
0.00631006
0.00631113
0.00631051
0.00631124
0.00631116
0.00631103
0.00631107
0.00631058
0.00631205
0.00631156
0.00631153
0.00630827
0.00630878
0.00630876
0.00630898
0.0063088
0.00630829
0.00630982
0.00630931
0.00630923
0.00630921
0.00630946
0.00630946
0.00630131
0.00630729
0.00630717
0.00630825
0.00630803
0.00630263
0.00630857
0.0063093
0.00630927
0.00630905
0.00630911
0.00630861
0.00631009
0.0063096
0.00630954
0.00630619
0.00630671
0.00630668
0.00630696
0.00630675
0.00630623
0.00630778
0.00630727
0.00630721
0.00630722
0.00630747
0.00630747
0.00630176
0.00630746
0.0063071
0.00630638
0.00630631
0.00630152
0.0062938
0.0062691
0.00627237
0.00630655
0.00630731
0.00630735
0.00630705
0.00630711
0.00630661
0.00630812
0.00630762
0.00630755
0.00630306
0.00628698
0.00629061
0.00629749
0.0062981
0.00630363
0.00630449
0.00630502
0.00630532
0.00630498
0.00630505
0.00630452
0.00630609
0.00630557
0.00630551
0.00630286
0.00630109
0.00630112
0.00630032
0.00630052
0.00630325
0.00629885
0.00629918
0.00630009
0.00525412
0.00628672
0.00628535
0.00602242
0.0060269
0.00497839
0.00629778
0.00629843
0.00566219
0.00630063
0.00630059
0.00629987
0.00630182
0.00630087
0.00630119
0.00631202
0.00631216
0.00631202
0.00631308
0.00631267
0.00631253
0.00631274
0.00631273
0.006313
0.00631276
0.00631224
0.00631286
0.00631392
0.0063139
0.00631405
0.00631299
0.00631315
0.00631319
0.00631169
0.00631124
0.00631107
0.00631299
0.00631291
0.00631294
0.00631308
0.00631282
0.00631284
0.00631286
0.0063129
0.00631303
0.0063121
0.00631223
0.00631213
0.00630429
0.00630873
0.00630848
0.00631032
0.00631006
0.00630786
0.0063107
0.0063107
0.00631095
0.00630188
0.00628912
0.00629264
0.00624919
0.0062508
0.00628521
0.00629492
0.00629653
0.00630481
0.00631116
0.0063108
0.00631092
0.00630862
0.00630982
0.00631001
0.00631136
0.00631183
0.00631197
0.00631014
0.00631025
0.00630919
0.00631163
0.00631165
0.00631128
0.00630129
0.00630653
0.00630646
0.00630707
0.00630697
0.00630118
0.00630872
0.00630872
0.00630897
0.00627948
0.00623817
0.00623653
0.00625472
0.00625316
0.0062859
0.0062827
0.00624621
0.00624768
0.00623541
0.00623473
0.00627812
0.00630929
0.00630895
0.00630905
0.00630631
0.00630628
0.00630222
0.00630975
0.00630975
0.00630941
0.00628367
0.00616792
0.00614955
0.00623913
0.00623515
0.00628876