/*--------------------------------*- C++ -*----------------------------------*\
| =========                 |                                                 |
| \\      /  F ield         | OpenFOAM: The Open Source CFD Toolbox           |
|  \\    /   O peration     | Version:  5.x                                   |
|   \\  /    A nd           | Web:      www.OpenFOAM.org                      |
|    \\/     M anipulation  |                                                 |
\*---------------------------------------------------------------------------*/
FoamFile
{
    version     2.0;
    format      ascii;
    class       volScalarField;
    location    "500";
    object      YSat;
}
// * * * * * * * * * * * * * * * * * * * * * * * * * * * * * * * * * * * * * //

dimensions      [0 0 0 0 0 0 0];

internalField   nonuniform List<scalar> 
6584
(
0.00431405
0.00431405
0.00431405
0.00431405
0.00431405
0.00431405
0.00431405
0.00431405
0.00431405
0.00431405
0.00431405
0.00431405
0.00431405
0.00431405
0.00431405
0.00431405
0.00431405
0.00431405
0.00431405
0.00431405
0.00431405
0.00431405
0.00431405
0.00431405
0.00431405
0.00431405
0.00431405
0.00431405
0.00431405
0.00431405
0.00431405
0.00431405
0.00431405
0.00431405
0.00431405
0.00431405
0.00431405
0.00431405
0.00431405
0.00431405
0.00431405
0.00431405
0.00431405
0.00431405
0.00431405
0.00431405
0.00431405
0.00431405
0.00431405
0.00431405
0.00431405
0.00431405
0.00431405
0.00431405
0.00431405
0.00431405
0.00431405
0.00431405
0.00431405
0.00431405
0.00431405
0.00431405
0.00431405
0.00431405
0.00431405
0.00431405
0.00431405
0.00431405
0.00431405
0.00431405
0.00431405
0.00431405
0.00431405
0.00431405
0.00431405
0.00431405
0.00431405
0.00431405
0.00431405
0.00431405
0.00431405
0.00431405
0.00431405
0.00431405
0.00431405
0.00431405
0.00431405
0.00431405
0.00431405
0.00431405
0.00431405
0.00431405
0.00431405
0.00431405
0.00431405
0.00431405
0.00431405
0.00431405
0.00431405
0.00431405
0.00431405
0.00431405
0.00431405
0.00431405
0.00431405
0.00431405
0.00431405
0.00431405
0.00431405
0.00431405
0.00431405
0.00431405
0.00431405
0.00431405
0.00431405
0.00431405
0.00431405
0.00431405
0.00431405
0.00431405
0.00431405
0.00431405
0.00431405
0.00431405
0.00431405
0.00431405
0.00431405
0.00431405
0.00431405
0.00431405
0.00431405
0.00431405
0.00431405
0.00431405
0.00431405
0.00431405
0.00431405
0.00431405
0.00431405
0.00431405
0.00431405
0.00431405
0.00431405
0.00431405
0.00431405
0.00431405
0.00431405
0.00431405
0.00431405
0.00431405
0.00431405
0.00431405
0.00431405
0.00431405
0.00431405
0.00431405
0.00431405
0.00431405
0.00431405
0.00431405
0.00431405
0.00431405
0.00431405
0.00431405
0.00431405
0.00431405
0.00431405
0.00431405
0.00431405
0.00431405
0.00431405
0.00431405
0.00431405
0.00431405
0.00431405
0.00431405
0.00431405
0.00431405
0.00431405
0.00431405
0.00431405
0.00431405
0.00431405
0.00431405
0.00431405
0.00431405
0.00431405
0.00431405
0.00431405
0.00431405
0.00431405
0.00431405
0.00431405
0.00431405
0.00431405
0.00431405
0.00431405
0.00431405
0.00431405
0.00431405
0.00431405
0.00431405
0.00431405
0.00431405
0.00431405
0.00431405
0.00431405
0.00431405
0.00431405
0.00431405
0.00431405
0.00431405
0.00431405
0.00431405
0.00431405
0.00431405
0.00431405
0.00431405
0.00431405
0.00431405
0.00431405
0.00431405
0.00431405
0.00431405
0.00431405
0.00431405
0.00431405
0.00431405
0.00431405
0.00431405
0.00431405
0.00431405
0.00431405
0.00431405
0.00431405
0.00431405
0.00431405
0.00431405
0.00431405
0.00431405
0.00431405
0.00431405
0.00431405
0.00431405
0.00431405
0.00431405
0.00431405
0.00431405
0.00431405
0.00431405
0.00431405
0.00431405
0.00431405
0.00431405
0.00431405
0.00431405
0.00431405
0.00431405
0.00431405
0.00431405
0.00431405
0.00431405
0.00431405
0.00431405
0.00431405
0.00431405
0.00431405
0.00431405
0.00431405
0.00431405
0.00431405
0.00431405
0.00431405
0.00431405
0.00431405
0.00431405
0.00431405
0.00431405
0.00431405
0.00431405
0.00431405
0.00431405
0.00431405
0.00431405
0.00431405
0.00431405
0.00431405
0.00431405
0.00431405
0.00431405
0.00431405
0.00431405
0.00431405
0.00431405
0.00431405
0.00431405
0.00431405
0.00431405
0.00431405
0.00431405
0.00431405
0.00431405
0.00431405
0.00431405
0.00431405
0.00431405
0.00431405
0.00431405
0.00431405
0.00431405
0.00431405
0.00431405
0.00431405
0.00431405
0.00431405
0.00431405
0.00431405
0.00431405
0.0035373
0.00431405
0.00431405
0.00431405
0.00431405
0.00431405
0.00431405
0.00431405
0.00431405
0.00431405
0.00431405
0.00431405
0.00431405
0.00431405
0.00431405
0.00431405
0.00431405
0.00431405
0.00431405
0.00431405
0.00431405
0.00431405
0.00431405
0.00431404
0.00409798
0.00431405
0.00431405
0.00431405
0.00431405
0.00431405
0.00431405
0.00431405
0.00431405
0.00431405
0.00431405
0.00431405
0.00431405
0.00431405
0.00431405
0.00431405
0.00431405
0.00431405
0.00431405
0.00431405
0.00431405
0.00431405
0.00431405
0.00431403
0.00411475
0.00431405
0.00431405
0.00431405
0.00431405
0.00431405
0.00431405
0.00431405
0.00431405
0.00431405
0.00431405
0.00431405
0.00431405
0.00431405
0.00431405
0.00431405
0.00431405
0.00431405
0.00431405
0.00431405
0.00431405
0.00431405
0.00431405
0.00431091
0.00421859
0.00431405
0.00431405
0.00431405
0.00431405
0.00431405
0.00431405
0.00431405
0.00431405
0.00431405
0.00431405
0.00431405
0.00431405
0.00431405
0.00431405
0.00431405
0.00431405
0.00431405
0.00431405
0.00431405
0.00431405
0.00431405
0.00431405
0.00430903
0.00422091
0.00431405
0.00431405
0.00431405
0.00431405
0.00431405
0.00431405
0.00431405
0.00431405
0.00431405
0.00431405
0.00431405
0.00431405
0.00431405
0.00431405
0.00431405
0.00431405
0.00431405
0.00431405
0.00431405
0.00431405
0.00431405
0.00431351
0.00419999
0.00426915
0.00431404
0.00431405
0.00431405
0.00431405
0.00431405
0.00431405
0.00431405
0.00431405
0.00431405
0.00431405
0.00431405
0.00431405
0.00431405
0.00431405
0.00431405
0.00431405
0.00431405
0.00431405
0.00431405
0.00431405
0.00431404
0.00431303
0.00420036
0.00426946
0.00431404
0.00431405
0.00431405
0.00431405
0.00431405
0.00431405
0.00431405
0.00431405
0.00431405
0.00431405
0.00431405
0.00431405
0.00431405
0.00431405
0.00431405
0.00431405
0.00431405
0.00431405
0.00431405
0.00431405
0.00431404
0.00431257
0.00420069
0.00426973
0.00431403
0.00431405
0.00431405
0.00431405
0.00431405
0.00431405
0.00431405
0.00431405
0.00431405
0.00431405
0.00431405
0.00431405
0.00431405
0.00431405
0.00431405
0.00431405
0.00431405
0.00431405
0.00431405
0.00431405
0.00431403
0.00431212
0.004201
0.00426997
0.00431403
0.00431405
0.00431405
0.00431405
0.00431405
0.00431405
0.00431405
0.00431405
0.00431405
0.00431405
0.00431405
0.00431405
0.00431405
0.00431405
0.00431405
0.00431405
0.00431405
0.00431405
0.00431405
0.00431405
0.00431402
0.00431169
0.00420127
0.00427018
0.00431402
0.00431405
0.00431405
0.00431405
0.00431405
0.00431405
0.00431405
0.00431405
0.00431405
0.00431405
0.00431405
0.00431405
0.00431405
0.00431405
0.00431405
0.00431405
0.00431405
0.00431405
0.00431405
0.00431405
0.00431401
0.00431129
0.00420153
0.00427037
0.00431402
0.00431405
0.00431405
0.00431405
0.00431405
0.00431405
0.00431405
0.00431405
0.00431405
0.00431405
0.00431405
0.00431405
0.00431405
0.00431405
0.00431405
0.00431405
0.00431405
0.00431405
0.00431405
0.00431405
0.004314
0.0043109
0.00420176
0.00427054
0.00431401
0.00431405
0.00431405
0.00431405
0.00431405
0.00431405
0.00431405
0.00431405
0.00431405
0.00431405
0.00431405
0.00431405
0.00431405
0.00431405
0.00431405
0.00431405
0.00431405
0.00431405
0.00431405
0.00431405
0.00431399
0.00431048
0.00420201
0.00427071
0.004314
0.00431405
0.00431405
0.00431405
0.00431405
0.00431405
0.00431405
0.00431405
0.00431405
0.00431405
0.00431405
0.00431405
0.00431405
0.00431405
0.00431405
0.00431405
0.00431405
0.00431405
0.00431405
0.00431405
0.00431397
0.00431003
0.00420228
0.00427089
0.004314
0.00431405
0.00431405
0.00431405
0.00431405
0.00431405
0.00431405
0.00431405
0.00431405
0.00431405
0.00431405
0.00431405
0.00431405
0.00431405
0.00431405
0.00431405
0.00431405
0.00431405
0.00431405
0.00431405
0.00431396
0.0043096
0.00420254
0.00427107
0.00431399
0.00431405
0.00431405
0.00431405
0.00431405
0.00431405
0.00431405
0.00431405
0.00431405
0.00431405
0.00431405
0.00431405
0.00431405
0.00431405
0.00431405
0.00431405
0.00431405
0.00431405
0.00431405
0.00431405
0.00431394
0.00430917
0.00420279
0.00427124
0.00431399
0.00431405
0.00431405
0.00431405
0.00431405
0.00431405
0.00431405
0.00431405
0.00431405
0.00431405
0.00431405
0.00431405
0.00431405
0.00431405
0.00431405
0.00431405
0.00431405
0.00431405
0.00431405
0.00431405
0.00431392
0.00430876
0.00420303
0.0042714
0.00431398
0.00431405
0.00431405
0.00431405
0.00431405
0.00431405
0.00431405
0.00431405
0.00431405
0.00431405
0.00431405
0.00431405
0.00431405
0.00431405
0.00431405
0.00431405
0.00431405
0.00431405
0.00431405
0.00431405
0.0043139
0.00430836
0.00420327
0.00427155
0.00431398
0.00431405
0.00431405
0.00431405
0.00431405
0.00431405
0.00431405
0.00431405
0.00431405
0.00431405
0.00431405
0.00431405
0.00431405
0.00431405
0.00431405
0.00431405
0.00431405
0.00431405
0.00431405
0.00431405
0.00431388
0.00430796
0.0042035
0.00427171
0.00431397
0.00431405
0.00431405
0.00431405
0.00431405
0.00431405
0.00431405
0.00431405
0.00431405
0.00431405
0.00431405
0.00431405
0.00431405
0.00431405
0.00431405
0.00431405
0.00431405
0.00431405
0.00431405
0.00431404
0.00431385
0.00430756
0.00420374
0.00427186
0.00431397
0.00431405
0.00431405
0.00431405
0.00431405
0.00431405
0.00431405
0.00431405
0.00431405
0.00431405
0.00431405
0.00431405
0.00431405
0.00431405
0.00431405
0.00431405
0.00431405
0.00431405
0.00431405
0.00431404
0.00431383
0.00430716
0.00420397
0.00427201
0.00431396
0.00431405
0.00431405
0.00431405
0.00431405
0.00431405
0.00431405
0.00431405
0.00431405
0.00431405
0.00431405
0.00431405
0.00431405
0.00431405
0.00431405
0.00431405
0.00431405
0.00431405
0.00431405
0.00431404
0.0043138
0.00430676
0.00420421
0.00427216
0.00431396
0.00431405
0.00431405
0.00431405
0.00431405
0.00431405
0.00431405
0.00431405
0.00431405
0.00431405
0.00431405
0.00431405
0.00431405
0.00431405
0.00431405
0.00431405
0.00431405
0.00431405
0.00431405
0.00431404
0.00431377
0.00430634
0.00420446
0.00427232
0.00431395
0.00431405
0.00431405
0.00431405
0.00431405
0.00431405
0.00431405
0.00431405
0.00431405
0.00431405
0.00431405
0.00431405
0.00431405
0.00431405
0.00431405
0.00431405
0.00431405
0.00431405
0.00431405
0.00431405
0.00431405
0.00431405
0.00431405
0.00431405
0.00431405
0.00431405
0.00431405
0.00347152
0.00350615
0.00431405
0.00431405
0.00431405
0.00431405
0.00431405
0.00431405
0.00431405
0.00431405
0.00431405
0.00431404
0.00431405
0.00431405
0.00431405
0.00431405
0.00431405
0.00431405
0.00431405
0.00431405
0.00431278
0.00431381
0.0043113
0.00431367
0.00431405
0.00431405
0.00431405
0.00431405
0.00431405
0.00431405
0.00431405
0.00430869
0.0043094
0.00428256
0.00429771
0.00431405
0.00431405
0.00431405
0.00431405
0.00431405
0.00431405
0.00431405
0.00431056
0.00430958
0.00430548
0.00429127
0.00431405
0.00431405
0.00431405
0.00431247
0.00431204
0.00431405
0.00431405
0.00431405
0.00431366
0.00431337
0.00431404
0.00367364
0.00347445
0.00393075
0.00431405
0.00431405
0.00431389
0.00431405
0.00431405
0.00431404
0.00431338
0.00431405
0.00431404
0.00431374
0.00431404
0.00431405
0.00431405
0.00431394
0.0043097
0.00431247
0.00431405
0.00430871
0.00429663
0.00431307
0.00430931
0.00429867
0.00431119
0.00431405
0.00431261
0.00430958
0.0043139
0.00431268
0.00431405
0.00430944
0.00430874
0.00431405
0.00429359
0.00429938
0.00429609
0.00429333
0.00429069
0.0042817
0.00431405
0.00430864
0.00430994
0.00430954
0.0043087
0.00431405
0.00429739
0.00430282
0.00429982
0.0042965
0.00431187
0.00430628
0.00431405
0.0043122
0.0043134
0.00431001
0.00431207
0.00431405
0.0043076
0.00430974
0.00430348
0.0043072
0.00431331
0.00431262
0.00431345
0.00431372
0.00431405
0.00431138
0.0043098
0.00430999
0.00431125
0.00431379
0.00431369
0.00431405
0.00431405
0.00431405
0.00431395
0.00431405
0.00431405
0.00431405
0.00431405
0.00431405
0.00431251
0.00431179
0.00427192
0.00424966
0.00431405
0.00431405
0.00431405
0.00431405
0.00431397
0.00431405
0.00431405
0.00431405
0.00431166
0.00431071
0.00431405
0.0033621
0.00349631
0.00397973
0.00406322
0.00350452
0.0036821
0.00424536
0.00420501
0.00431405
0.00431374
0.00431388
0.00407346
0.00412609
0.00431389
0.00431395
0.00431405
0.00431405
0.00431405
0.00431405
0.00431405
0.00431405
0.00431405
0.0043139
0.00431405
0.00431398
0.00431405
0.004314
0.00431405
0.00431216
0.00431277
0.00429125
0.00429202
0.00430056
0.00429895
0.00431193
0.00420578
0.00431286
0.00428899
0.00427442
0.0042769
0.00429014
0.00431352
0.00429751
0.00431397
0.00426518
0.0043084
0.00425582
0.00431389
0.00430963
0.00431396
0.00431405
0.00431371
0.00430204
0.00431398
0.004314
0.0043019
0.00430114
0.00431209
0.00431182
0.00430383
0.00430452
0.00430976
0.00431401
0.00431403
0.004314
0.00431401
0.00430975
0.00431346
0.00431404
0.00431405
0.00431403
0.00431404
0.00431326
0.00429634
0.00429667
0.00429341
0.00429317
0.00427115
0.00427262
0.00430815
0.004314
0.004314
0.00431401
0.004314
0.00430814
0.00430922
0.004314
0.004314
0.004314
0.004314
0.00430917
0.00337371
0.00429991
0.00351841
0.00337008
0.00370485
0.00352826
0.00430068
0.00429278
0.00338456
0.00429369
0.00431016
0.00430978
0.00431098
0.00431402
0.00431401
0.00431402
0.00431402
0.00431119
0.00386305
0.0039626
0.00430527
0.00387316
0.00371845
0.00400494
0.00389126
0.0043058
0.00370133
0.00384757
0.00431307
0.00425105
0.00427435
0.00421071
0.00424638
0.00431297
0.00419513
0.00412772
0.00414629
0.00357613
0.00413213
0.00412043
0.00368507
0.00428899
0.00429036
0.00431403
0.00431405
0.00431405
0.00431405
0.00431405
0.00431354
0.00431345
0.00387702
0.00431242
0.00431341
0.00431404
0.00431304
0.0043126
0.00431405
0.00349358
0.00352514
0.00339804
0.00412781
0.00412747
0.00355161
0.0036011
0.00428228
0.0042886
0.00314167
0.00431405
0.00431405
0.00431405
0.00431405
0.00431405
0.00431405
0.00431338
0.00431404
0.00431403
0.00431137
0.00431034
0.00431328
0.00430872
0.00431397
0.00431397
0.00431398
0.00431397
0.00430881
0.00428665
0.00429542
0.00430341
0.0042927
0.00410898
0.00407196
0.00431356
0.00429154
0.00430079
0.00430475
0.00430499
0.00364465
0.00431405
0.00431402
0.00431405
0.00431385
0.00431188
0.00431078
0.00431404
0.00431405
0.00431405
0.00431405
0.00431405
0.00431403
0.00431079
0.004314
0.00431398
0.00431402
0.004314
0.00431118
0.00430572
0.00417568
0.00425535
0.00412026
0.00413321
0.00429841
0.00426347
0.00427219
0.00431055
0.00430084
0.00430675
0.00431096
0.00431379
0.00431381
0.00431361
0.00431364
0.00430966
0.00431397
0.00431397
0.00430898
0.00429494
0.00408782
0.00404354
0.00429471
0.00410145
0.00411657
0.00403563
0.00404455
0.00429285
0.00428299
0.00427621
0.00430837
0.00431362
0.0043136
0.00431357
0.00431372
0.00430924
0.00430942
0.00431358
0.0043136
0.0043136
0.00431358
0.00430892
0.00431125
0.00427386
0.00428244
0.00426216
0.00425698
0.004308
0.00431315
0.00431403
0.00431402
0.00431403
0.00431403
0.00431322
0.00430865
0.00408929
0.00401722
0.00416775
0.00414387
0.00430895
0.00375654
0.00378548
0.00431063
0.00419459
0.00417521
0.0037217
0.00374801
0.00415437
0.00411864
0.00431403
0.00431404
0.00431404
0.00407113
0.00426371
0.00409604
0.00411347
0.00410905
0.00426084
0.00431405
0.004314
0.00431405
0.00431387
0.00431404
0.00337851
0.00342192
0.00350568
0.00349584
0.00401924
0.00358668
0.0035654
0.00364233
0.0035937
0.00403013
0.00355038
0.00358416
0.00423037
0.00422357
0.00409954
0.00371911
0.00366787
0.00360733
0.00363527
0.00431377
0.00431403
0.00431404
0.00431394
0.00431402
0.00431368
0.00431142
0.00431321
0.00428748
0.00429462
0.00430289
0.00429359
0.00421454
0.00428672
0.00428048
0.00429327
0.00428868
0.00421286
0.00426621
0.00426024
0.00427852
0.00426954
0.00428384
0.0041693
0.00419141
0.00412903
0.0041583
0.00428169
0.00405181
0.00406276
0.00428641
0.00431255
0.00431113
0.00431379
0.00431295
0.00429194
0.00430167
0.00429845
0.00430998
0.00430305
0.00431322
0.00431402
0.00431388
0.00431268
0.00431162
0.00431331
0.00431214
0.00431389
0.00431242
0.00431362
0.0043139
0.00431267
0.00431349
0.00431403
0.00431378
0.0043134
0.00415063
0.00416402
0.00430458
0.00403875
0.00398514
0.00418716
0.00405031
0.00390964
0.00386285
0.00396891
0.00393011
0.00429907
0.00413782
0.0041473
0.00425566
0.00424047
0.00429673
0.00426825
0.00422169
0.00420438
0.00423765
0.00422622
0.0043109
0.00427418
0.00427962
0.00430159
0.00430637
0.00431371
0.00431377
0.00431027
0.00430969
0.00431365
0.00431369
0.00409929
0.00409551
0.00429535
0.00380799
0.00380766
0.0036222
0.00378504
0.00378866
0.00384742
0.00380345
0.00379069
0.00407936
0.00409644
0.00429432
0.00378951
0.00374339
0.00385172
0.00380381
0.00365825
0.00361355
0.00372571
0.00367913
0.00429291
0.00405283
0.00407263
0.00427773
0.00427508
0.00431366
0.00431363
0.0043083
0.00430882
0.00431371
0.00431367
0.00431357
0.00431358
0.00430937
0.00430898
0.00431358
0.00431357
0.00338919
0.00343511
0.00411002
0.00414011
0.00407084
0.00409936
0.00338446
0.00363365
0.00418054
0.00413359
0.00414839
0.00417288
0.00359678
0.00394404
0.00396032
0.0038823
0.00393797
0.00342698
0.00403277
0.00406293
0.00396944
0.00401695
0.00342604
0.00426628
0.00427174
0.00431102
0.00424357
0.00425441
0.00425746
0.00424306
0.00425427
0.00430843
0.00425378
0.00426173
0.00390295
0.00347614
0.00348365
0.00355035
0.00348021
0.0039173
0.00350676
0.00375712
0.00348595
0.00378119
0.0042293
0.00429847
0.00429469
0.00430296
0.00429974
0.0042324
0.00417967
0.00418558
0.00379833
0.00382994
0.00365444
0.00371077
0.00417898
0.00416262
0.00431405
0.00431405
0.00431405
0.00431405
0.00431399
0.004314
0.00431405
0.00431405
0.00431405
0.00431404
0.00431405
0.00431405
0.00431405
0.00431405
0.00431405
0.00431405
0.00431404
0.00431352
0.00431133
0.00430686
0.00430626
0.00428351
0.00429692
0.00431398
0.00431398
0.00430998
0.00427334
0.00427069
0.00429169
0.00428435
0.00428879
0.00431245
0.00431401
0.00431405
0.00431405
0.00430718
0.00430924
0.0043136
0.00431398
0.00431385
0.00431404
0.00431293
0.00429639
0.00430624
0.00429939
0.00430563
0.00430497
0.00431081
0.00431197
0.00431198
0.00430961
0.00431385
0.00431388
0.00431279
0.00430908
0.00431397
0.00431398
0.00411839
0.0040996
0.00429809
0.00428966
0.00427691
0.00427583
0.00428083
0.00430858
0.00431196
0.00431195
0.0043095
0.00431195
0.00431196
0.00431194
0.00431193
0.00430877
0.00429105
0.00414764
0.00412799
0.00431023
0.00431361
0.00431359
0.00431358
0.00431404
0.00431403
0.003544
0.00354571
0.00421514
0.00420034
0.0043108
0.00354253
0.00354295
0.00430168
0.00430374
0.00431376
0.00431397
0.00431391
0.00335368
0.00337397
0.00338231
0.00348488
0.00351354
0.00335724
0.0033652
0.00349876
0.00347418
0.00365673
0.00417289
0.0041662
0.00421126
0.00376291
0.00372888
0.00410676
0.00431405
0.00431405
0.00431405
0.00431376
0.00431389
0.00431399
0.00431402
0.00431352
0.00431362
0.00431405
0.00431405
0.00431404
0.00430975
0.00430945
0.00431173
0.00431303
0.00431199
0.00431144
0.00428941
0.0042928
0.0042804
0.00428246
0.00430163
0.00429695
0.00427169
0.00427628
0.0042217
0.00422255
0.00424711
0.00424372
0.00420569
0.00422463
0.00422705
0.00431257
0.00429054
0.00429534
0.00429338
0.00427541
0.00430036
0.00429744
0.00431188
0.00431073
0.00430573
0.00422322
0.0042114
0.00428996
0.00426873
0.00423867
0.00431404
0.00431403
0.00431359
0.00431343
0.00431226
0.00431285
0.00430557
0.00431291
0.00431332
0.00428138
0.00429062
0.00431277
0.00419608
0.00418182
0.00430315
0.00430519
0.00431397
0.00431399
0.00431369
0.00431284
0.00431391
0.00431394
0.00429772
0.00409762
0.00409801
0.00427133
0.00427342
0.00431191
0.00431192
0.00430927
0.0043091
0.00431191
0.00431191
0.00338493
0.00350604
0.0037407
0.00375641
0.00357854
0.00359054
0.00335664
0.00416165
0.00415131
0.00429191
0.00342546
0.00340709
0.00352059
0.00352274
0.00339975
0.00356669
0.0035721
0.00339252
0.00339607
0.00431366
0.00431364
0.00431035
0.0043116
0.00431371
0.00431368
0.00379734
0.00416634
0.00417674
0.00414455
0.00415541
0.00377115
0.00426181
0.00430097
0.00430384
0.00430329
0.00430219
0.0042654
0.00421834
0.00425604
0.00425146
0.00418441
0.0041754
0.00419643
0.00359504
0.00360753
0.00361577
0.0035436
0.00414827
0.00382711
0.00377928
0.00387025
0.00383908
0.00411267
0.00403535
0.00403863
0.00419732
0.00421584
0.00429375
0.00431403
0.00431403
0.00431399
0.0034945
0.00350392
0.00380159
0.00380156
0.00336951
0.00357799
0.0035409
0.00353668
0.00353778
0.0035403
0.00359258
0.00315156
0.00416946
0.0041782
0.00431405
0.00431405
0.00431405
0.004308
0.00430744
0.00431135
0.00430922
0.00431111
0.00431238
0.00431053
0.00431087
0.00428531
0.00429616
0.00426029
0.00426346
0.00426377
0.0042602
0.00429213
0.0042688
0.00426774
0.00410074
0.00403946
0.00403889
0.00405033
0.00404789
0.00409027
0.00431158
0.00431296
0.00431301
0.00431278
0.00431291
0.00431123
0.00430011
0.0043097
0.00430422
0.00430232
0.00430964
0.00431199
0.00431201
0.00427668
0.00427751
0.00428754
0.00427807
0.00431199
0.00431198
0.00430846
0.00431193
0.00431194
0.00430946
0.00430886
0.00431193
0.00431192
0.0042624
0.00427318
0.0042687
0.00427696
0.00427553
0.00426134
0.00354844
0.00355397
0.00354497
0.003543
0.00373086
0.00361923
0.00361264
0.0040516
0.00405146
0.00414347
0.00407041
0.00408535
0.0040433
0.00405487
0.00413078
0.00431401
0.00431399
0.00431402
0.00431397
0.00431403
0.00431404
0.00431405
0.00431402
0.00431403
0.00431401
0.00409038
0.00418475
0.00417929
0.00419999
0.00419208
0.00409627
0.00413235
0.00415896
0.00414778
0.00417489
0.00416918
0.0041228
0.00431402
0.00431404
0.00431403
0.00431355
0.00431315
0.00431396
0.00431389
0.00335449
0.00346356
0.00338752
0.00338372
0.00350259
0.00349909
0.00368911
0.00370209
0.00357424
0.00335982
0.00335273
0.00352726
0.00341863
0.00342043
0.00341109
0.00362261
0.00343155
0.00338858
0.0041783
0.00418845
0.00423633
0.00415087
0.00415386
0.004143
0.00414517
0.00421696
0.00416341
0.00416763
0.00361357
0.00353133
0.00353476
0.0035308
0.00352859
0.00362199
0.00431393
0.00431396
0.00431384
0.0043134
0.00431369
0.00431389
0.00430719
0.00431152
0.00430904
0.00430854
0.00430966
0.00431012
0.00430862
0.00430918
0.00428834
0.00429362
0.00426732
0.00426821
0.00426473
0.00426607
0.00430234
0.00428357
0.00428436
0.00426738
0.00426875
0.00429502
0.00426807
0.00423088
0.00422407
0.00420904
0.00424086
0.00423719
0.00426375
0.00423017
0.00422928
0.00424088
0.00423472
0.004262
0.0042762
0.00424634
0.00424993
0.00423322
0.00424007
0.00427311
0.0042277
0.00413871
0.00421251
0.00420697
0.00404492
0.00405053
0.00428376
0.00430282
0.00430161
0.00428093
0.00429664
0.00430759
0.00430473
0.00424242
0.00423234
0.00427878
0.00428107
0.00429961
0.00426356
0.00425317
0.00430903
0.00431056
0.00431308
0.00431152
0.00430707
0.00430072
0.00430669
0.00431312
0.0043136
0.0043137
0.00431312
0.00431332
0.00431231
0.0043111
0.0043121
0.0043137
0.00431329
0.00431313
0.00431373
0.00431339
0.00431379
0.00431287
0.00431291
0.00431234
0.00431303
0.00402457
0.00400365
0.00414805
0.00397652
0.0039954
0.00393681
0.0040607
0.00389174
0.00387619
0.00395483
0.0039429
0.00424802
0.00417839
0.00419495
0.00414492
0.00416115
0.00424363
0.00429347
0.00426735
0.00427498
0.00420474
0.00424935
0.00428558
0.00416838
0.0041419
0.0042171
0.00404269
0.0040583
0.00401628
0.00402922
0.004212
0.00423474
0.00411738
0.00413034
0.00407594
0.00409568
0.00423066
0.00430246
0.00430583
0.00381434
0.00364107
0.00366445
0.00359377
0.00361626
0.00381168
0.00366491
0.00367636
0.00367466
0.0037286
0.00379678
0.00347436
0.00349575
0.00351318
0.00347645
0.00381619
0.00379931
0.00355472
0.0035733
0.00351885
0.00353799
0.00379522
0.00377765
0.00376387
0.00384013
0.00382063
0.00363983
0.00362329
0.00371063
0.00369803
0.00427362
0.00427421
0.00430932
0.00431192
0.00431193
0.00431192
0.00431191
0.00430904
0.00339243
0.00368543
0.00371817
0.00348256
0.00335639
0.00361287
0.00364699
0.00346463
0.00344446
0.00394889
0.00365538
0.00365768
0.00391077
0.00362648
0.00357232
0.00365781
0.00365004
0.00392826
0.00350998
0.00348633
0.00353233
0.003556
0.00341546
0.00342622
0.00348146
0.00426871
0.00428983
0.00428812
0.00429234
0.00429113
0.00427023
0.00424727
0.00425242
0.00425229
0.00424286
0.00424279
0.00424666
0.00425345
0.0042803
0.00427835
0.00428574
0.00428294
0.00425681
0.00347826
0.00356799
0.00357851
0.00355271
0.0035603
0.00348084
0.00352334
0.00364678
0.00367122
0.00359522
0.00361935
0.0034966
0.00350208
0.00342602
0.00343876
0.00342083
0.00342198
0.00348647
0.00352553
0.00354258
0.00346433
0.00349481
0.00348173
0.00426297
0.00425998
0.00422531
0.00417864
0.00419233
0.0035664
0.00358672
0.0036763
0.00356739
0.0035441
0.00360432
0.00359094
0.00369606
0.00354809
0.00354729
0.00403945
0.00404196
0.00431405
0.00431405
0.00431405
0.00431405
0.00431405
0.00431405
0.00431405
0.00431405
0.00431405
0.00431405
0.00431405
0.00431405
0.00431405
0.00431405
0.00431405
0.00431405
0.00431405
0.00431405
0.00431405
0.00431405
0.00431405
0.00431405
0.00431405
0.00431405
0.00431405
0.00431405
0.00431405
0.00431405
0.00431405
0.00431405
0.00431405
0.00431405
0.00431405
0.00431405
0.00431405
0.00431405
0.00431405
0.00431405
0.00431405
0.00431405
0.00431405
0.00431405
0.00431405
0.00431405
0.00431405
0.00431405
0.00431405
0.00431405
0.00431405
0.00431405
0.00431405
0.00431405
0.00431405
0.00431405
0.00431405
0.00431405
0.00431405
0.00431405
0.00431405
0.00431405
0.00431405
0.00431405
0.00431405
0.00431405
0.00431405
0.00431405
0.00431405
0.00431405
0.00431405
0.00431405
0.00431405
0.00431405
0.00431405
0.00431405
0.00431405
0.00431405
0.00431405
0.00431405
0.00431405
0.00431405
0.00431405
0.00431405
0.00431405
0.00431405
0.00431405
0.00431404
0.00431404
0.00431405
0.00431405
0.00431405
0.00431405
0.00431405
0.00431405
0.00431405
0.00431405
0.00431405
0.00431405
0.00431405
0.00431405
0.00431405
0.00431404
0.00431404
0.00431405
0.00431405
0.00431405
0.00431405
0.00431405
0.00431405
0.00431405
0.00431405
0.00431405
0.00431405
0.00431404
0.00431404
0.00431405
0.00431405
0.00431405
0.00431405
0.00431405
0.00431405
0.00431405
0.00431405
0.00431405
0.00431405
0.00431405
0.00431405
0.00431405
0.00431405
0.00431405
0.00431405
0.00431405
0.00431405
0.00431405
0.00431405
0.00431405
0.00431405
0.0043133
0.00431329
0.00362931
0.00426867
0.00427258
0.00431405
0.00431405
0.00431405
0.00431405
0.00431405
0.00431405
0.00431405
0.00431405
0.00431405
0.00431405
0.00431405
0.00431405
0.00431404
0.0038805
0.00386947
0.00411094
0.00431405
0.00431405
0.00431405
0.00431405
0.00431405
0.00431405
0.00431405
0.00431405
0.00431405
0.00431404
0.00431405
0.00431205
0.00408168
0.00388371
0.00421729
0.00431399
0.00431405
0.00431405
0.00431405
0.00431405
0.00431405
0.00431405
0.00431405
0.00431405
0.00431405
0.00431405
0.00431405
0.00431405
0.00431405
0.00431404
0.00431404
0.00431405
0.00431405
0.00431404
0.00431403
0.00431405
0.00431405
0.00431405
0.00431404
0.00431404
0.00431405
0.00431405
0.00431403
0.00431404
0.00431403
0.00431403
0.00431405
0.00431404
0.00431404
0.00431405
0.00431405
0.00431404
0.00431405
0.00431404
0.00431404
0.00431405
0.00431405
0.00431405
0.00431405
0.00431405
0.00431405
0.00431405
0.00431328
0.00431356
0.00431405
0.00336774
0.00375218
0.00375665
0.00401374
0.00401468
0.00315913
0.00431405
0.00431405
0.00431405
0.00431405
0.00431405
0.00431405
0.00431405
0.00431405
0.00431404
0.00431405
0.00431405
0.00431405
0.00431405
0.00431405
0.00431405
0.00431405
0.00431405
0.00431405
0.00431405
0.00431405
0.00431405
0.00431405
0.00431405
0.00431405
0.00431405
0.00431405
0.00431405
0.00431405
0.00431405
0.00431405
0.00431404
0.004314
0.00431405
0.00431405
0.00431405
0.00431405
0.00431405
0.00431405
0.00431405
0.00431405
0.00431405
0.00431405
0.00431405
0.00431405
0.00431405
0.00431405
0.00431405
0.00431405
0.00431405
0.00431405
0.00431405
0.00431405
0.00431405
0.00431405
0.00431405
0.00431405
0.00431302
0.00431377
0.0043137
0.00431399
0.00431397
0.00431373
0.00431325
0.00431281
0.00431353
0.00431405
0.00431405
0.00431405
0.00431405
0.00431405
0.00431405
0.00431405
0.00431405
0.00431405
0.00431405
0.00431405
0.00431405
0.00431405
0.00431405
0.00431405
0.00431405
0.00431405
0.00431405
0.00431404
0.00431404
0.00431405
0.00430866
0.00431272
0.00431272
0.00431288
0.00431281
0.00430915
0.00431405
0.00431405
0.00431405
0.00431405
0.00431405
0.00431405
0.00431405
0.00431405
0.00431405
0.00431405
0.00431405
0.00431405
0.00431405
0.00431405
0.00431405
0.00431405
0.00431405
0.00431405
0.00431404
0.00431404
0.00431405
0.00431012
0.00431399
0.00431399
0.00431292
0.00431296
0.00430971
0.00430468
0.0042878
0.00429006
0.00431405
0.00431405
0.00431405
0.00431405
0.00431405
0.00431405
0.00431405
0.00431405
0.00431405
0.00431231
0.00430117
0.00430381
0.00430793
0.00430839
0.00431219
0.00431405
0.00431405
0.00431405
0.00431405
0.00431405
0.00431405
0.00431405
0.00431405
0.00431405
0.00431363
0.00431241
0.00431253
0.00431131
0.00431155
0.00431342
0.00431362
0.0043133
0.00431404
0.00365154
0.00430499
0.00430464
0.00412951
0.00413315
0.00349044
0.0043126
0.00431246
0.00389134
0.00431405
0.00431394
0.00431399
0.004314
0.00431394
0.00431405
0.00431395
0.00431403
0.00431401
0.00431405
0.00431405
0.00431403
0.00431405
0.00431405
0.00431405
0.00431403
0.00431372
0.00431399
0.00431405
0.00431405
0.00431405
0.00431402
0.00431404
0.00431405
0.00431379
0.00431349
0.00431342
0.00431404
0.00431403
0.00431404
0.00431405
0.00431405
0.00431405
0.00431405
0.00431405
0.00431405
0.00431403
0.00431403
0.00431399
0.00431004
0.00431304
0.00431295
0.00431363
0.00431353
0.00431205
0.00431405
0.00431404
0.00431404
0.00430792
0.00429927
0.00430161
0.00427293
0.00427396
0.00429718
0.00430311
0.00430416
0.00430978
0.00431404
0.00431404
0.00431405
0.00431245
0.00431325
0.00431333
0.00431374
0.00431401
0.00431402
0.00431338
0.00431342
0.00431272
0.00431405
0.00431405
0.00431404
0.0043093
0.00431286
0.00431289
0.00431273
0.00431275
0.00430881
0.00431405
0.00431404
0.00431404
0.00429406
0.00426621
0.00426508
0.00427786
0.00427677
0.00429892
0.00429561
0.00427101
0.00427195
0.00426429
0.0042638
0.00429303
0.00431403
0.00431403
0.00431405
0.00431263