# Force coefficients
# liftDir    : (2.588200e-01 9.659300e-01 0.000000e+00)
# dragDir    : (9.659300e-01 2.588200e-01 0.000000e+00)
# pitchAxis  : (0.000000e+00 1.000000e+00 0.000000e+00)
# magUInf    : 1.500000e+01
# lRef       : 5.000000e-01
# Aref       : 1.000000e-01
# CofR       : (0.000000e+00 0.000000e+00 0.000000e+00)
# Time       	Cm           	Cd           	Cl           	Cl(f)        	Cl(r)        
100          	-5.138504e-02	1.154340e-01	5.945568e-01	2.458933e-01	3.486634e-01
200          	-7.667283e-02	9.939601e-02	6.152879e-01	2.309711e-01	3.843168e-01
300          	-7.987670e-02	9.169526e-02	5.967582e-01	2.185024e-01	3.782558e-01
400          	-7.814112e-02	8.964304e-02	5.835684e-01	2.136431e-01	3.699253e-01
500          	-7.582760e-02	8.691051e-02	5.659979e-01	2.071713e-01	3.588265e-01
600          	-7.374884e-02	8.421140e-02	5.493002e-01	2.009012e-01	3.483989e-01
700          	-7.240191e-02	8.346165e-02	5.422097e-01	1.987030e-01	3.435068e-01
800          	-7.208333e-02	8.359552e-02	5.416941e-01	1.987637e-01	3.429304e-01
900          	-7.231637e-02	8.373332e-02	5.429510e-01	1.991592e-01	3.437919e-01
1000         	-7.268212e-02	8.386647e-02	5.446135e-01	1.996246e-01	3.449889e-01
1100         	-7.303919e-02	8.401951e-02	5.463225e-01	2.001221e-01	3.462005e-01
1200         	-7.333887e-02	8.412918e-02	5.476868e-01	2.005046e-01	3.471823e-01
1300         	-7.355735e-02	8.418333e-02	5.485852e-01	2.007352e-01	3.478499e-01
1400         	-7.370082e-02	8.420773e-02	5.491335e-01	2.008659e-01	3.482676e-01
1500         	-7.379037e-02	8.421964e-02	5.494633e-01	2.009413e-01	3.485220e-01
1600         	-7.384389e-02	8.422636e-02	5.496589e-01	2.009856e-01	3.486733e-01
1700         	-7.387240e-02	8.422398e-02	5.497409e-01	2.009980e-01	3.487428e-01
1800         	-7.388833e-02	8.422303e-02	5.497881e-01	2.010057e-01	3.487824e-01
1900         	-7.389858e-02	8.422315e-02	5.498212e-01	2.010120e-01	3.488092e-01
2000         	-7.390489e-02	8.422353e-02	5.498427e-01	2.010165e-01	3.488263e-01
2100         	-7.390981e-02	8.422107e-02	5.498492e-01	2.010148e-01	3.488344e-01
2200         	-7.391215e-02	8.422031e-02	5.498538e-01	2.010148e-01	3.488391e-01
2300         	-7.391330e-02	8.422006e-02	5.498566e-01	2.010150e-01	3.488416e-01
2400         	-7.391412e-02	8.421953e-02	5.498572e-01	2.010145e-01	3.488427e-01
2500         	-7.391463e-02	8.421815e-02	5.498537e-01	2.010122e-01	3.488415e-01
2600         	-7.391432e-02	8.421921e-02	5.498567e-01	2.010140e-01	3.488426e-01
2700         	-7.391403e-02	8.421950e-02	5.498568e-01	2.010144e-01	3.488424e-01
2800         	-7.391405e-02	8.421906e-02	5.498552e-01	2.010136e-01	3.488417e-01
2900         	-7.391414e-02	8.421900e-02	5.498553e-01	2.010135e-01	3.488418e-01
3000         	-7.391444e-02	8.421749e-02	5.498506e-01	2.010109e-01	3.488398e-01
3100         	-7.391399e-02	8.421864e-02	5.498535e-01	2.010127e-01	3.488407e-01
3200         	-7.391401e-02	8.421797e-02	5.498510e-01	2.010115e-01	3.488395e-01
3300         	-7.391374e-02	8.421866e-02	5.498527e-01	2.010126e-01	3.488401e-01
3400         	-7.391331e-02	8.422009e-02	5.498567e-01	2.010151e-01	3.488417e-01
3500         	-7.391379e-02	8.421845e-02	5.498521e-01	2.010123e-01	3.488399e-01
3600         	-7.391385e-02	8.421884e-02	5.498538e-01	2.010130e-01	3.488407e-01
3700         	-7.391418e-02	8.421760e-02	5.498502e-01	2.010109e-01	3.488393e-01
3800         	-7.391361e-02	8.421894e-02	5.498534e-01	2.010131e-01	3.488403e-01
3900         	-7.391313e-02	8.421999e-02	5.498558e-01	2.010148e-01	3.488410e-01
4000         	-7.391360e-02	8.421893e-02	5.498533e-01	2.010131e-01	3.488403e-01
4100         	-7.391348e-02	8.421977e-02	5.498561e-01	2.010146e-01	3.488415e-01
4200         	-7.391380e-02	8.421832e-02	5.498517e-01	2.010120e-01	3.488396e-01
4300         	-7.391376e-02	8.421865e-02	5.498528e-01	2.010126e-01	3.488402e-01
4400         	-7.391381e-02	8.421832e-02	5.498517e-01	2.010120e-01	3.488397e-01
4500         	-7.391360e-02	8.421903e-02	5.498537e-01	2.010132e-01	3.488405e-01
4600         	-7.391322e-02	8.422026e-02	5.498570e-01	2.010153e-01	3.488417e-01
4700         	-7.391363e-02	8.421881e-02	5.498530e-01	2.010129e-01	3.488401e-01
4800         	-7.391374e-02	8.421933e-02	5.498552e-01	2.010139e-01	3.488414e-01
4900         	-7.391401e-02	8.421788e-02	5.498507e-01	2.010113e-01	3.488394e-01
5000         	-7.391366e-02	8.421884e-02	5.498532e-01	2.010129e-01	3.488402e-01
5100         	-7.391340e-02	8.421936e-02	5.498543e-01	2.010137e-01	3.488405e-01
5200         	-7.391358e-02	8.421900e-02	5.498535e-01	2.010132e-01	3.488403e-01
5300         	-7.391325e-02	8.422036e-02	5.498575e-01	2.010155e-01	3.488420e-01
5400         	-7.391376e-02	8.421857e-02	5.498525e-01	2.010125e-01	3.488400e-01
5500         	-7.391386e-02	8.421868e-02	5.498532e-01	2.010127e-01	3.488405e-01
5600         	-7.391398e-02	8.421802e-02	5.498511e-01	2.010116e-01	3.488395e-01
5700         	-7.391350e-02	8.421907e-02	5.498535e-01	2.010133e-01	3.488403e-01
5800         	-7.391322e-02	8.421993e-02	5.498558e-01	2.010147e-01	3.488411e-01
5900         	-7.391350e-02	8.421916e-02	5.498538e-01	2.010134e-01	3.488404e-01
6000         	-7.391341e-02	8.422008e-02	5.498570e-01	2.010151e-01	3.488419e-01
6100         	-7.391380e-02	8.421865e-02	5.498529e-01	2.010127e-01	3.488403e-01
6200         	-7.391407e-02	8.421797e-02	5.498512e-01	2.010115e-01	3.488397e-01
6300         	-7.391394e-02	8.421851e-02	5.498528e-01	2.010125e-01	3.488404e-01
6400         	-7.391354e-02	8.421908e-02	5.498537e-01	2.010133e-01	3.488404e-01
6500         	-7.391325e-02	8.422035e-02	5.498575e-01	2.010155e-01	3.488420e-01
6600         	-7.391368e-02	8.421895e-02	5.498536e-01	2.010131e-01	3.488405e-01
6700         	-7.391402e-02	8.421856e-02	5.498533e-01	2.010126e-01	3.488407e-01
6800         	-7.391388e-02	8.421869e-02	5.498533e-01	2.010128e-01	3.488405e-01
6900         	-7.391391e-02	8.421811e-02	5.498512e-01	2.010117e-01	3.488395e-01
7000         	-7.391360e-02	8.421951e-02	5.498555e-01	2.010141e-01	3.488413e-01
7100         	-7.391370e-02	8.421891e-02	5.498535e-01	2.010131e-01	3.488405e-01
7200         	-7.391370e-02	8.421940e-02	5.498554e-01	2.010140e-01	3.488414e-01
