# Forces     
# CofR       : (0.000000e+00 0.000000e+00 0.000000e+00)
# Time       forces(pressure viscous porous)	moments(pressure viscous porous)
100          	((-4.699286e-01 7.270945e+00 -3.262195e-19) (7.153897e-02 6.013370e-03 2.082169e-23) (0.000000e+00 0.000000e+00 0.000000e+00)) ((-3.817246e+00 -2.467125e-01 2.343041e+00) (-3.157019e-03 3.755796e-02 -3.945838e-04) (0.000000e+00 0.000000e+00 0.000000e+00))
200          	((-7.084686e-01 7.634250e+00 -4.379045e-19) (5.768281e-02 8.271787e-03 6.127371e-23) (0.000000e+00 0.000000e+00 0.000000e+00)) ((-4.007981e+00 -3.719460e-01 2.333965e+00) (-4.342688e-03 3.028348e-02 4.455663e-04) (0.000000e+00 0.000000e+00 0.000000e+00))
300          	((-7.505002e-01 7.463837e+00 -4.527930e-19) (5.491178e-02 9.114782e-03 6.448621e-23) (0.000000e+00 0.000000e+00 0.000000e+00)) ((-3.918514e+00 -3.940126e-01 2.209617e+00) (-4.785260e-03 2.882868e-02 7.867364e-04) (0.000000e+00 0.000000e+00 0.000000e+00))
400          	((-7.510380e-01 7.341892e+00 -4.545734e-19) (5.366397e-02 9.308080e-03 6.208095e-23) (0.000000e+00 0.000000e+00 0.000000e+00)) ((-3.854493e+00 -3.942950e-01 2.135401e+00) (-4.886742e-03 2.817358e-02 8.215915e-04) (0.000000e+00 0.000000e+00 0.000000e+00))
500          	((-7.483360e-01 7.169248e+00 -4.534819e-19) (5.311928e-02 9.187740e-03 6.036511e-23) (0.000000e+00 0.000000e+00 0.000000e+00)) ((-3.763855e+00 -3.928764e-01 2.029149e+00) (-4.823564e-03 2.788762e-02 6.665264e-04) (0.000000e+00 0.000000e+00 0.000000e+00))
600          	((-7.474373e-01 7.083338e+00 -4.443208e-19) (5.322866e-02 9.036731e-03 6.034156e-23) (0.000000e+00 0.000000e+00 0.000000e+00)) ((-3.718753e+00 -3.924046e-01 1.973906e+00) (-4.744284e-03 2.794504e-02 5.328556e-04) (0.000000e+00 0.000000e+00 0.000000e+00))
700          	((-7.543554e-01 7.152940e+00 -4.422509e-19) (5.350940e-02 8.971452e-03 6.101793e-23) (0.000000e+00 0.000000e+00 0.000000e+00)) ((-3.755294e+00 -3.960366e-01 2.001117e+00) (-4.710012e-03 2.809244e-02 4.555801e-04) (0.000000e+00 0.000000e+00 0.000000e+00))
800          	((-7.681267e-01 7.257723e+00 -4.462385e-19) (5.373216e-02 8.972373e-03 6.236843e-23) (0.000000e+00 0.000000e+00 0.000000e+00)) ((-3.810305e+00 -4.032665e-01 2.042039e+00) (-4.710496e-03 2.820939e-02 4.063478e-04) (0.000000e+00 0.000000e+00 0.000000e+00))
900          	((-7.813372e-01 7.346662e+00 -4.510915e-19) (5.385929e-02 8.996178e-03 6.370439e-23) (0.000000e+00 0.000000e+00 0.000000e+00)) ((-3.856997e+00 -4.102020e-01 2.075914e+00) (-4.722994e-03 2.827613e-02 3.739112e-04) (0.000000e+00 0.000000e+00 0.000000e+00))
1000         	((-7.916568e-01 7.414411e+00 -4.552424e-19) (5.390239e-02 9.022826e-03 6.506876e-23) (0.000000e+00 0.000000e+00 0.000000e+00)) ((-3.892566e+00 -4.156198e-01 2.101740e+00) (-4.736984e-03 2.829876e-02 3.522226e-04) (0.000000e+00 0.000000e+00 0.000000e+00))
1100         	((-7.991993e-01 7.462383e+00 -4.584897e-19) (5.388792e-02 9.046068e-03 6.642737e-23) (0.000000e+00 0.000000e+00 0.000000e+00)) ((-3.917751e+00 -4.195796e-01 2.119812e+00) (-4.749186e-03 2.829116e-02 3.371602e-04) (0.000000e+00 0.000000e+00 0.000000e+00))
1200         	((-8.043860e-01 7.491913e+00 -4.607767e-19) (5.385226e-02 9.062766e-03 6.736529e-23) (0.000000e+00 0.000000e+00 0.000000e+00)) ((-3.933254e+00 -4.223026e-01 2.130252e+00) (-4.757952e-03 2.827244e-02 3.261052e-04) (0.000000e+00 0.000000e+00 0.000000e+00))
1300         	((-8.076618e-01 7.508535e+00 -4.621822e-19) (5.381690e-02 9.072407e-03 6.795497e-23) (0.000000e+00 0.000000e+00 0.000000e+00)) ((-3.941981e+00 -4.240224e-01 2.135648e+00) (-4.763014e-03 2.825387e-02 3.179543e-04) (0.000000e+00 0.000000e+00 0.000000e+00))
1400         	((-8.096545e-01 7.518192e+00 -4.629987e-19) (5.379123e-02 9.077344e-03 6.830950e-23) (0.000000e+00 0.000000e+00 0.000000e+00)) ((-3.947051e+00 -4.250686e-01 2.138624e+00) (-4.765606e-03 2.824039e-02 3.118105e-04) (0.000000e+00 0.000000e+00 0.000000e+00))
1500         	((-8.109068e-01 7.524177e+00 -4.634885e-19) (5.377206e-02 9.079965e-03 6.853120e-23) (0.000000e+00 0.000000e+00 0.000000e+00)) ((-3.950193e+00 -4.257260e-01 2.140417e+00) (-4.766982e-03 2.823033e-02 3.075620e-04) (0.000000e+00 0.000000e+00 0.000000e+00))
1600         	((-8.117233e-01 7.528106e+00 -4.637951e-19) (5.376054e-02 9.081276e-03 6.867350e-23) (0.000000e+00 0.000000e+00 0.000000e+00)) ((-3.952256e+00 -4.261548e-01 2.141591e+00) (-4.767670e-03 2.822428e-02 3.045710e-04) (0.000000e+00 0.000000e+00 0.000000e+00))
1700         	((-8.122766e-01 7.530849e+00 -4.639982e-19) (5.375304e-02 9.081999e-03 6.877072e-23) (0.000000e+00 0.000000e+00 0.000000e+00)) ((-3.953696e+00 -4.264452e-01 2.142433e+00) (-4.768049e-03 2.822035e-02 3.025868e-04) (0.000000e+00 0.000000e+00 0.000000e+00))
1800         	((-8.126582e-01 7.532835e+00 -4.641352e-19) (5.374896e-02 9.082549e-03 6.883633e-23) (0.000000e+00 0.000000e+00 0.000000e+00)) ((-3.954739e+00 -4.266455e-01 2.143070e+00) (-4.768338e-03 2.821820e-02 3.012498e-04) (0.000000e+00 0.000000e+00 0.000000e+00))
1900         	((-8.128923e-01 7.534143e+00 -4.642213e-19) (5.374714e-02 9.082932e-03 6.887739e-23) (0.000000e+00 0.000000e+00 0.000000e+00)) ((-3.955425e+00 -4.267685e-01 2.143508e+00) (-4.768539e-03 2.821725e-02 3.002691e-04) (0.000000e+00 0.000000e+00 0.000000e+00))
2000         	((-8.130501e-01 7.534993e+00 -4.642844e-19) (5.374555e-02 9.083138e-03 6.890515e-23) (0.000000e+00 0.000000e+00 0.000000e+00)) ((-3.955871e+00 -4.268513e-01 2.143792e+00) (-4.768647e-03 2.821642e-02 2.998596e-04) (0.000000e+00 0.000000e+00 0.000000e+00))
2100         	((-8.131686e-01 7.535647e+00 -4.643306e-19) (5.374439e-02 9.083419e-03 6.892631e-23) (0.000000e+00 0.000000e+00 0.000000e+00)) ((-3.956215e+00 -4.269135e-01 2.144013e+00) (-4.768795e-03 2.821580e-02 2.994484e-04) (0.000000e+00 0.000000e+00 0.000000e+00))
2200         	((-8.132592e-01 7.536144e+00 -4.643654e-19) (5.374357e-02 9.083617e-03 6.894210e-23) (0.000000e+00 0.000000e+00 0.000000e+00)) ((-3.956476e+00 -4.269611e-01 2.144181e+00) (-4.768899e-03 2.821537e-02 2.991845e-04) (0.000000e+00 0.000000e+00 0.000000e+00))
2300         	((-8.133300e-01 7.536527e+00 -4.643935e-19) (5.374279e-02 9.083720e-03 6.895419e-23) (0.000000e+00 0.000000e+00 0.000000e+00)) ((-3.956677e+00 -4.269983e-01 2.144311e+00) (-4.768953e-03 2.821497e-02 2.990502e-04) (0.000000e+00 0.000000e+00 0.000000e+00))
2400         	((-8.133814e-01 7.536818e+00 -4.644130e-19) (5.374255e-02 9.083964e-03 6.896364e-23) (0.000000e+00 0.000000e+00 0.000000e+00)) ((-3.956829e+00 -4.270252e-01 2.144409e+00) (-4.769081e-03 2.821484e-02 2.987848e-04) (0.000000e+00 0.000000e+00 0.000000e+00))
2500         	((-8.134224e-01 7.537028e+00 -4.644301e-19) (5.374234e-02 9.084000e-03 6.897041e-23) (0.000000e+00 0.000000e+00 0.000000e+00)) ((-3.956940e+00 -4.270467e-01 2.144477e+00) (-4.769100e-03 2.821473e-02 2.986894e-04) (0.000000e+00 0.000000e+00 0.000000e+00))
2600         	((-8.134534e-01 7.537175e+00 -4.644422e-19) (5.374199e-02 9.084050e-03 6.897620e-23) (0.000000e+00 0.000000e+00 0.000000e+00)) ((-3.957017e+00 -4.270630e-01 2.144523e+00) (-4.769126e-03 2.821455e-02 2.986084e-04) (0.000000e+00 0.000000e+00 0.000000e+00))
2700         	((-8.134751e-01 7.537286e+00 -4.644510e-19) (5.374166e-02 9.084073e-03 6.897958e-23) (0.000000e+00 0.000000e+00 0.000000e+00)) ((-3.957075e+00 -4.270744e-01 2.144558e+00) (-4.769138e-03 2.821437e-02 2.985747e-04) (0.000000e+00 0.000000e+00 0.000000e+00))
2800         	((-8.134923e-01 7.537378e+00 -4.644579e-19) (5.374132e-02 9.084114e-03 6.898292e-23) (0.000000e+00 0.000000e+00 0.000000e+00)) ((-3.957123e+00 -4.270835e-01 2.144589e+00) (-4.769160e-03 2.821419e-02 2.985258e-04) (0.000000e+00 0.000000e+00 0.000000e+00))
2900         	((-8.135055e-01 7.537449e+00 -4.644629e-19) (5.374110e-02 9.084133e-03 6.898496e-23) (0.000000e+00 0.000000e+00 0.000000e+00)) ((-3.957161e+00 -4.270904e-01 2.144612e+00) (-4.769170e-03 2.821408e-02 2.985111e-04) (0.000000e+00 0.000000e+00 0.000000e+00))
3000         	((-8.135160e-01 7.537505e+00 -4.644668e-19) (5.374082e-02 9.084165e-03 6.898727e-23) (0.000000e+00 0.000000e+00 0.000000e+00)) ((-3.957190e+00 -4.270959e-01 2.144631e+00) (-4.769187e-03 2.821393e-02 2.984710e-04) (0.000000e+00 0.000000e+00 0.000000e+00))
3100         	((-8.135231e-01 7.537541e+00 -4.644700e-19) (5.374071e-02 9.084181e-03 6.898848e-23) (0.000000e+00 0.000000e+00 0.000000e+00)) ((-3.957209e+00 -4.270996e-01 2.144642e+00) (-4.769195e-03 2.821387e-02 2.984664e-04) (0.000000e+00 0.000000e+00 0.000000e+00))
3200         	((-8.135291e-01 7.537569e+00 -4.644724e-19) (5.374062e-02 9.084191e-03 6.898936e-23) (0.000000e+00 0.000000e+00 0.000000e+00)) ((-3.957224e+00 -4.271028e-01 2.144651e+00) (-4.769200e-03 2.821382e-02 2.984614e-04) (0.000000e+00 0.000000e+00 0.000000e+00))
3300         	((-8.135332e-01 7.537590e+00 -4.644742e-19) (5.374054e-02 9.084197e-03 6.898999e-23) (0.000000e+00 0.000000e+00 0.000000e+00)) ((-3.957235e+00 -4.271049e-01 2.144658e+00) (-4.769204e-03 2.821379e-02 2.984571e-04) (0.000000e+00 0.000000e+00 0.000000e+00))
3400         	((-8.135364e-01 7.537604e+00 -4.644752e-19) (5.374049e-02 9.084202e-03 6.899045e-23) (0.000000e+00 0.000000e+00 0.000000e+00)) ((-3.957242e+00 -4.271066e-01 2.144662e+00) (-4.769206e-03 2.821376e-02 2.984537e-04) (0.000000e+00 0.000000e+00 0.000000e+00))
3500         	((-8.135385e-01 7.537615e+00 -4.644762e-19) (5.374045e-02 9.084205e-03 6.899080e-23) (0.000000e+00 0.000000e+00 0.000000e+00)) ((-3.957248e+00 -4.271077e-01 2.144665e+00) (-4.769208e-03 2.821374e-02 2.984511e-04) (0.000000e+00 0.000000e+00 0.000000e+00))
3600         	((-8.135403e-01 7.537624e+00 -4.644768e-19) (5.374042e-02 9.084208e-03 6.899110e-23) (0.000000e+00 0.000000e+00 0.000000e+00)) ((-3.957253e+00 -4.271087e-01 2.144668e+00) (-4.769209e-03 2.821372e-02 2.984489e-04) (0.000000e+00 0.000000e+00 0.000000e+00))
3700         	((-8.135418e-01 7.537632e+00 -4.644774e-19) (5.374039e-02 9.084210e-03 6.899129e-23) (0.000000e+00 0.000000e+00 0.000000e+00)) ((-3.957257e+00 -4.271094e-01 2.144671e+00) (-4.769210e-03 2.821371e-02 2.984473e-04) (0.000000e+00 0.000000e+00 0.000000e+00))
3800         	((-8.135427e-01 7.537640e+00 -4.644779e-19) (5.374038e-02 9.084211e-03 6.899144e-23) (0.000000e+00 0.000000e+00 0.000000e+00)) ((-3.957261e+00 -4.271099e-01 2.144674e+00) (-4.769211e-03 2.821370e-02 2.984459e-04) (0.000000e+00 0.000000e+00 0.000000e+00))
3900         	((-8.135430e-01 7.537642e+00 -4.644783e-19) (5.374036e-02 9.084212e-03 6.899156e-23) (0.000000e+00 0.000000e+00 0.000000e+00)) ((-3.957262e+00 -4.271101e-01 2.144674e+00) (-4.769212e-03 2.821369e-02 2.984449e-04) (0.000000e+00 0.000000e+00 0.000000e+00))
4000         	((-8.135443e-01 7.537645e+00 -4.644784e-19) (5.374035e-02 9.084213e-03 6.899165e-23) (0.000000e+00 0.000000e+00 0.000000e+00)) ((-3.957264e+00 -4.271108e-01 2.144675e+00) (-4.769212e-03 2.821369e-02 2.984442e-04) (0.000000e+00 0.000000e+00 0.000000e+00))
4100         	((-8.135447e-01 7.537647e+00 -4.644786e-19) (5.374035e-02 9.084214e-03 6.899173e-23) (0.000000e+00 0.000000e+00 0.000000e+00)) ((-3.957265e+00 -4.271110e-01 2.144676e+00) (-4.769212e-03 2.821368e-02 2.984436e-04) (0.000000e+00 0.000000e+00 0.000000e+00))
4200         	((-8.135451e-01 7.537649e+00 -4.644788e-19) (5.374034e-02 9.084214e-03 6.899178e-23) (0.000000e+00 0.000000e+00 0.000000e+00)) ((-3.957266e+00 -4.271112e-01 2.144676e+00) (-4.769213e-03 2.821368e-02 2.984432e-04) (0.000000e+00 0.000000e+00 0.000000e+00))
4300         	((-8.135453e-01 7.537651e+00 -4.644789e-19) (5.374034e-02 9.084215e-03 6.899183e-23) (0.000000e+00 0.000000e+00 0.000000e+00)) ((-3.957267e+00 -4.271113e-01 2.144677e+00) (-4.769213e-03 2.821368e-02 2.984428e-04) (0.000000e+00 0.000000e+00 0.000000e+00))
4400         	((-8.135455e-01 7.537652e+00 -4.644790e-19) (5.374033e-02 9.084215e-03 6.899185e-23) (0.000000e+00 0.000000e+00 0.000000e+00)) ((-3.957267e+00 -4.271114e-01 2.144677e+00) (-4.769213e-03 2.821367e-02 2.984426e-04) (0.000000e+00 0.000000e+00 0.000000e+00))
4500         	((-8.135458e-01 7.537653e+00 -4.644790e-19) (5.374033e-02 9.084215e-03 6.899188e-23) (0.000000e+00 0.000000e+00 0.000000e+00)) ((-3.957268e+00 -4.271115e-01 2.144678e+00) (-4.769213e-03 2.821367e-02 2.984424e-04) (0.000000e+00 0.000000e+00 0.000000e+00))
4600         	((-8.135458e-01 7.537653e+00 -4.644791e-19) (5.374033e-02 9.084216e-03 6.899190e-23) (0.000000e+00 0.000000e+00 0.000000e+00)) ((-3.957268e+00 -4.271116e-01 2.144678e+00) (-4.769213e-03 2.821367e-02 2.984423e-04) (0.000000e+00 0.000000e+00 0.000000e+00))
4700         	((-8.135460e-01 7.537654e+00 -4.644791e-19) (5.374033e-02 9.084216e-03 6.899192e-23) (0.000000e+00 0.000000e+00 0.000000e+00)) ((-3.957268e+00 -4.271116e-01 2.144678e+00) (-4.769213e-03 2.821367e-02 2.984422e-04) (0.000000e+00 0.000000e+00 0.000000e+00))
4800         	((-8.135461e-01 7.537654e+00 -4.644791e-19) (5.374032e-02 9.084216e-03 6.899193e-23) (0.000000e+00 0.000000e+00 0.000000e+00)) ((-3.957269e+00 -4.271117e-01 2.144678e+00) (-4.769213e-03 2.821367e-02 2.984421e-04) (0.000000e+00 0.000000e+00 0.000000e+00))
4900         	((-8.135461e-01 7.537655e+00 -4.644791e-19) (5.374032e-02 9.084216e-03 6.899194e-23) (0.000000e+00 0.000000e+00 0.000000e+00)) ((-3.957269e+00 -4.271117e-01 2.144678e+00) (-4.769213e-03 2.821367e-02 2.984420e-04) (0.000000e+00 0.000000e+00 0.000000e+00))
5000         	((-8.135461e-01 7.537655e+00 -4.644792e-19) (5.374032e-02 9.084216e-03 6.899194e-23) (0.000000e+00 0.000000e+00 0.000000e+00)) ((-3.957269e+00 -4.271117e-01 2.144678e+00) (-4.769213e-03 2.821367e-02 2.984420e-04) (0.000000e+00 0.000000e+00 0.000000e+00))
5100         	((-8.135459e-01 7.537655e+00 -4.644792e-19) (5.374032e-02 9.084216e-03 6.899195e-23) (0.000000e+00 0.000000e+00 0.000000e+00)) ((-3.957269e+00 -4.271116e-01 2.144679e+00) (-4.769213e-03 2.821367e-02 2.984419e-04) (0.000000e+00 0.000000e+00 0.000000e+00))
5200         	((-8.135463e-01 7.537656e+00 -4.644795e-19) (5.374032e-02 9.084216e-03 6.899195e-23) (0.000000e+00 0.000000e+00 0.000000e+00)) ((-3.957269e+00 -4.271118e-01 2.144679e+00) (-4.769213e-03 2.821367e-02 2.984419e-04) (0.000000e+00 0.000000e+00 0.000000e+00))
5300         	((-8.135462e-01 7.537655e+00 -4.644792e-19) (5.374032e-02 9.084216e-03 6.899195e-23) (0.000000e+00 0.000000e+00 0.000000e+00)) ((-3.957269e+00 -4.271118e-01 2.144678e+00) (-4.769213e-03 2.821367e-02 2.984419e-04) (0.000000e+00 0.000000e+00 0.000000e+00))
5400         	((-8.135459e-01 7.537656e+00 -4.644793e-19) (5.374032e-02 9.084216e-03 6.899196e-23) (0.000000e+00 0.000000e+00 0.000000e+00)) ((-3.957269e+00 -4.271116e-01 2.144678e+00) (-4.769213e-03 2.821367e-02 2.984419e-04) (0.000000e+00 0.000000e+00 0.000000e+00))
5500         	((-8.135462e-01 7.537656e+00 -4.644793e-19) (5.374032e-02 9.084216e-03 6.899196e-23) (0.000000e+00 0.000000e+00 0.000000e+00)) ((-3.957269e+00 -4.271117e-01 2.144678e+00) (-4.769213e-03 2.821367e-02 2.984419e-04) (0.000000e+00 0.000000e+00 0.000000e+00))
5600         	((-8.135462e-01 7.537656e+00 -4.644792e-19) (5.374032e-02 9.084216e-03 6.899196e-23) (0.000000e+00 0.000000e+00 0.000000e+00)) ((-3.957269e+00 -4.271118e-01 2.144679e+00) (-4.769213e-03 2.821367e-02 2.984419e-04) (0.000000e+00 0.000000e+00 0.000000e+00))
5700         	((-8.135462e-01 7.537655e+00 -4.644792e-19) (5.374032e-02 9.084216e-03 6.899196e-23) (0.000000e+00 0.000000e+00 0.000000e+00)) ((-3.957269e+00 -4.271118e-01 2.144678e+00) (-4.769213e-03 2.821367e-02 2.984419e-04) (0.000000e+00 0.000000e+00 0.000000e+00))
5800         	((-8.135463e-01 7.537653e+00 -4.644792e-19) (5.374032e-02 9.084216e-03 6.899196e-23) (0.000000e+00 0.000000e+00 0.000000e+00)) ((-3.957268e+00 -4.271118e-01 2.144677e+00) (-4.769213e-03 2.821367e-02 2.984418e-04) (0.000000e+00 0.000000e+00 0.000000e+00))
5900         	((-8.135460e-01 7.537657e+00 -4.644792e-19) (5.374032e-02 9.084216e-03 6.899196e-23) (0.000000e+00 0.000000e+00 0.000000e+00)) ((-3.957270e+00 -4.271117e-01 2.144679e+00) (-4.769213e-03 2.821367e-02 2.984418e-04) (0.000000e+00 0.000000e+00 0.000000e+00))
6000         	((-8.135468e-01 7.537654e+00 -4.644791e-19) (5.374032e-02 9.084216e-03 6.899196e-23) (0.000000e+00 0.000000e+00 0.000000e+00)) ((-3.957269e+00 -4.271121e-01 2.144678e+00) (-4.769213e-03 2.821367e-02 2.984418e-04) (0.000000e+00 0.000000e+00 0.000000e+00))
6100         	((-8.135463e-01 7.537655e+00 -4.644792e-19) (5.374032e-02 9.084216e-03 6.899196e-23) (0.000000e+00 0.000000e+00 0.000000e+00)) ((-3.957269e+00 -4.271118e-01 2.144678e+00) (-4.769213e-03 2.821367e-02 2.984418e-04) (0.000000e+00 0.000000e+00 0.000000e+00))
6200         	((-8.135462e-01 7.537655e+00 -4.644792e-19) (5.374032e-02 9.084216e-03 6.899196e-23) (0.000000e+00 0.000000e+00 0.000000e+00)) ((-3.957269e+00 -4.271118e-01 2.144678e+00) (-4.769213e-03 2.821367e-02 2.984418e-04) (0.000000e+00 0.000000e+00 0.000000e+00))
6300         	((-8.135463e-01 7.537656e+00 -4.644792e-19) (5.374032e-02 9.084216e-03 6.899196e-23) (0.000000e+00 0.000000e+00 0.000000e+00)) ((-3.957269e+00 -4.271118e-01 2.144678e+00) (-4.769213e-03 2.821367e-02 2.984418e-04) (0.000000e+00 0.000000e+00 0.000000e+00))
6400         	((-8.135462e-01 7.537656e+00 -4.644792e-19) (5.374032e-02 9.084216e-03 6.899196e-23) (0.000000e+00 0.000000e+00 0.000000e+00)) ((-3.957269e+00 -4.271118e-01 2.144678e+00) (-4.769213e-03 2.821367e-02 2.984418e-04) (0.000000e+00 0.000000e+00 0.000000e+00))
6500         	((-8.135463e-01 7.537656e+00 -4.644792e-19) (5.374032e-02 9.084216e-03 6.899196e-23) (0.000000e+00 0.000000e+00 0.000000e+00)) ((-3.957269e+00 -4.271118e-01 2.144678e+00) (-4.769213e-03 2.821367e-02 2.984418e-04) (0.000000e+00 0.000000e+00 0.000000e+00))
6600         	((-8.135463e-01 7.537656e+00 -4.644792e-19) (5.374032e-02 9.084216e-03 6.899196e-23) (0.000000e+00 0.000000e+00 0.000000e+00)) ((-3.957269e+00 -4.271118e-01 2.144678e+00) (-4.769213e-03 2.821367e-02 2.984418e-04) (0.000000e+00 0.000000e+00 0.000000e+00))
6700         	((-8.135463e-01 7.537655e+00 -4.644792e-19) (5.374032e-02 9.084216e-03 6.899196e-23) (0.000000e+00 0.000000e+00 0.000000e+00)) ((-3.957269e+00 -4.271118e-01 2.144678e+00) (-4.769213e-03 2.821367e-02 2.984418e-04) (0.000000e+00 0.000000e+00 0.000000e+00))
6800         	((-8.135459e-01 7.537655e+00 -4.644793e-19) (5.374032e-02 9.084216e-03 6.899196e-23) (0.000000e+00 0.000000e+00 0.000000e+00)) ((-3.957269e+00 -4.271116e-01 2.144678e+00) (-4.769213e-03 2.821367e-02 2.984418e-04) (0.000000e+00 0.000000e+00 0.000000e+00))
6900         	((-8.135463e-01 7.537655e+00 -4.644792e-19) (5.374032e-02 9.084216e-03 6.899196e-23) (0.000000e+00 0.000000e+00 0.000000e+00)) ((-3.957269e+00 -4.271118e-01 2.144678e+00) (-4.769213e-03 2.821367e-02 2.984418e-04) (0.000000e+00 0.000000e+00 0.000000e+00))
7000         	((-8.135462e-01 7.537655e+00 -4.644792e-19) (5.374032e-02 9.084216e-03 6.899196e-23) (0.000000e+00 0.000000e+00 0.000000e+00)) ((-3.957269e+00 -4.271117e-01 2.144678e+00) (-4.769213e-03 2.821367e-02 2.984418e-04) (0.000000e+00 0.000000e+00 0.000000e+00))
7100         	((-8.135462e-01 7.537655e+00 -4.644792e-19) (5.374032e-02 9.084216e-03 6.899196e-23) (0.000000e+00 0.000000e+00 0.000000e+00)) ((-3.957269e+00 -4.271118e-01 2.144678e+00) (-4.769213e-03 2.821367e-02 2.984418e-04) (0.000000e+00 0.000000e+00 0.000000e+00))
7200         	((-8.135462e-01 7.537655e+00 -4.644792e-19) (5.374032e-02 9.084216e-03 6.899196e-23) (0.000000e+00 0.000000e+00 0.000000e+00)) ((-3.957269e+00 -4.271118e-01 2.144678e+00) (-4.769213e-03 2.821367e-02 2.984418e-04) (0.000000e+00 0.000000e+00 0.000000e+00))
