/*--------------------------------*- C++ -*----------------------------------*\
| =========                 |                                                 |
| \\      /  F ield         | OpenFOAM: The Open Source CFD Toolbox           |
|  \\    /   O peration     | Version:  5.x                                   |
|   \\  /    A nd           | Web:      www.OpenFOAM.org                      |
|    \\/     M anipulation  |                                                 |
\*---------------------------------------------------------------------------*/
FoamFile
{
    version     2.0;
    format      ascii;
    class       volScalarField;
    location    "400";
    object      massFlux;
}
// * * * * * * * * * * * * * * * * * * * * * * * * * * * * * * * * * * * * * //

dimensions      [0 0 0 0 0 0 0];

internalField   nonuniform List<scalar> 
6584
(
0.0241652
0.0241651
0.0241651
0.0241652
0.0241652
0.0241652
0.0241652
0.0241652
0.0241652
0.0241652
0.0241652
0.0241652
0.0241652
0.0241652
0.0241652
0.0241652
0.0241652
0.0241652
0.0241652
0.0241652
0.0241651
0.0241651
0.0241651
0.0241651
0.0241388
0.0241388
0.0241388
0.0241388
0.0241388
0.0241389
0.0241389
0.024139
0.024139
0.024139
0.024139
0.024139
0.024139
0.024139
0.024139
0.024139
0.024139
0.0241389
0.0241389
0.0241389
0.0241388
0.0241388
0.0241388
0.0241387
0.0241124
0.0241124
0.0241124
0.0241124
0.0241124
0.0241125
0.0241126
0.0241127
0.0241128
0.0241259
0.0241259
0.0241259
0.0241259
0.0241259
0.0241259
0.0241128
0.0241127
0.0241126
0.0241126
0.0241125
0.0241125
0.0241125
0.0241124
0.0241124
0.024086
0.0240861
0.0240861
0.0240861
0.0240861
0.0240862
0.0240863
0.0240864
0.0240865
0.0240996
0.0240996
0.0240995
0.0240995
0.0240996
0.0240996
0.0240997
0.0240864
0.0240863
0.0240863
0.0240862
0.0240862
0.0240861
0.0240861
0.024086
0.0240597
0.0240597
0.0240598
0.0240598
0.0240598
0.0240599
0.0240599
0.0240599
0.0240732
0.0240733
0.0240731
0.024073
0.024073
0.024073
0.0240733
0.0240733
0.0240733
0.0240601
0.02406
0.0240599
0.0240599
0.0240598
0.0240597
0.0240597
0.0240334
0.0240334
0.0240334
0.0240335
0.0240335
0.0240336
0.0240337
0.0240468
0.0240467
0.0240466
0.0240531
0.0240528
0.0240527
0.0240531
0.0240468
0.0240471
0.0240471
0.0240341
0.0240338
0.0240337
0.0240336
0.0240335
0.0240334
0.0240334
0.0240071
0.0240071
0.0240071
0.0240072
0.0240073
0.0240074
0.0240075
0.0240205
0.0240204
0.0240202
0.0240261
0.0240288
0.0240284
0.0240259
0.0240271
0.024021
0.024021
0.0240081
0.0240077
0.0240075
0.0240074
0.0240073
0.0240072
0.0240071
0.0239808
0.0239808
0.0239809
0.0239809
0.023981
0.0239812
0.0239815
0.0239944
0.0239943
0.0239943
0.0239996
0.0240007
0.0240019
0.0240011
0.0239953
0.0239952
0.0239822
0.0239817
0.0239814
0.0239812
0.023981
0.0239809
0.0239808
0.0239545
0.0239545
0.0239546
0.0239547
0.0239549
0.0239551
0.0239555
0.0239684
0.0239684
0.0239688
0.023974
0.0239751
0.0239768
0.023976
0.0239701
0.0239697
0.0239565
0.0239557
0.0239553
0.023955
0.0239548
0.0239546
0.0239545
0.0239282
0.0239282
0.0239283
0.0239285
0.0239287
0.023929
0.0239295
0.0239425
0.0239427
0.0239435
0.0239491
0.0239512
0.0239537
0.0239518
0.0239451
0.0239442
0.0239307
0.0239298
0.0239292
0.0239289
0.0239286
0.0239284
0.0239282
0.0239019
0.023902
0.0239021
0.0239023
0.0239025
0.0239029
0.0239035
0.0239165
0.023917
0.0239181
0.0239243
0.0239274
0.023931
0.0239276
0.0239201
0.0239188
0.023905
0.0239038
0.0239032
0.0239027
0.0239024
0.0239021
0.023902
0.0238756
0.0238757
0.0238758
0.0238761
0.0238764
0.0238768
0.0238774
0.0238906
0.0238913
0.0238926
0.0238992
0.0239028
0.0239073
0.0239031
0.023895
0.0238934
0.0238792
0.0238779
0.0238771
0.0238765
0.0238761
0.0238759
0.0238756
0.0238493
0.0238494
0.0238496
0.0238499
0.0238502
0.0238507
0.0238514
0.0238646
0.0238655
0.0238668
0.0238736
0.0238771
0.0238821
0.0238778
0.0238695
0.0238677
0.0238533
0.0238518
0.0238509
0.0238503
0.0238498
0.0238495
0.0238493
0.023823
0.0238232
0.0238234
0.0238236
0.023824
0.0238245
0.0238253
0.0238258
0.0238393
0.0238405
0.0238469
0.0238495
0.0174147
0.023852
0.0238519
0.0238437
0.0238419
0.0238273
0.0238257
0.0238248
0.023824
0.0238235
0.0238232
0.0238229
0.0237967
0.0237969
0.0237971
0.0237974
0.0237978
0.0237983
0.023799
0.0237993
0.0238127
0.0238139
0.0238204
0.0238195
0.0221933
0.0238254
0.0238185
0.0238176
0.023802
0.0238009
0.0237994
0.0237985
0.0237978
0.0237972
0.0237969
0.0237965
0.0237704
0.0237706
0.0237708
0.0237711
0.0237715
0.023772
0.0237726
0.023773
0.0237864
0.0237877
0.0237877
0.023793
0.022308
0.0237924
0.0237922
0.0237914
0.0237758
0.0237746
0.023773
0.0237721
0.0237713
0.0237707
0.0237704
0.0237701
0.0237441
0.0237443
0.0237445
0.0237449
0.0237453
0.0237457
0.0237463
0.0237468
0.0237476
0.0237615
0.0237615
0.0237408
0.0230722
0.023766
0.0237659
0.023765
0.0237495
0.0237483
0.0237467
0.0237457
0.0237449
0.0237443
0.0237439
0.0237436
0.0237178
0.023718
0.0237182
0.0237186
0.023719
0.0237194
0.02372
0.0237206
0.0237214
0.023722
0.0237353
0.0237039
0.0230642
0.0237396
0.0237264
0.0237247
0.0237231
0.0237219
0.0237203
0.0237192
0.0237184
0.0237178
0.0237174
0.023717
0.0236915
0.0236917
0.023692
0.0236923
0.0236927
0.0236931
0.0236938
0.0236944
0.0236953
0.0236959
0.0236926
0.0228579
0.0233808
0.0237004
0.0237001
0.0236983
0.0236967
0.0236955
0.0236938
0.0236927
0.0236919
0.0236913
0.0236909
0.0236905
0.0236652
0.0236654
0.0236657
0.023666
0.0236665
0.0236668
0.0236676
0.0236683
0.0236691
0.0236697
0.0236636
0.0228344
0.0233565
0.0236741
0.0236738
0.023672
0.0236704
0.0236691
0.0236674
0.0236663
0.0236654
0.0236648
0.0236644
0.0236639
0.0236389
0.0236391
0.0236394
0.0236398
0.0236402
0.0236406
0.0236414
0.0236421
0.023643
0.0236436
0.0236347
0.0228107
0.0233319
0.0236479
0.0236475
0.0236457
0.023644
0.0236427
0.0236409
0.0236398
0.0236389
0.0236382
0.0236378
0.0236373
0.0236126
0.0236128
0.0236131
0.0236135
0.023614
0.0236144
0.0236152
0.023616
0.0236169
0.0236175
0.023606
0.0227868
0.023307
0.0236216
0.0236212
0.0236194
0.0236176
0.0236163
0.0236145
0.0236133
0.0236124
0.0236117
0.0236113
0.0236107
0.0235863
0.0235865
0.0235868
0.0235872
0.0235877
0.0235882
0.0235891
0.0235898
0.0235909
0.0235913
0.0235773
0.0227628
0.023282
0.0235954
0.023595
0.0235931
0.0235912
0.0235898
0.023588
0.0235868
0.0235859
0.0235851
0.0235847
0.0235842
0.02356
0.0235602
0.0235605
0.0235609
0.0235615
0.023562
0.0235629
0.0235637
0.0235648
0.0235652
0.0235488
0.0227386
0.0232568
0.0235692
0.0235687
0.0235669
0.0235649
0.0235634
0.0235615
0.0235603
0.0235593
0.0235586
0.0235581
0.0235576
0.0235337
0.0235339
0.0235342
0.0235347
0.0235352
0.0235358
0.0235368
0.0235376
0.0235388
0.0235392
0.0235204
0.0227143
0.0232315
0.023543
0.0235425
0.0235406
0.0235385
0.023537
0.023535
0.0235337
0.0235328
0.023532
0.0235315
0.023531
0.0235074
0.0235076
0.023508
0.0235084
0.023509
0.0235096
0.0235106
0.0235115
0.0235127
0.0235131
0.0234918
0.0226901
0.0232062
0.0235168
0.0235163
0.0235143
0.0235121
0.0235106
0.0235086
0.0235073
0.0235062
0.0235054
0.0235049
0.0235044
0.0234811
0.0234814
0.0234817
0.0234822
0.0234828
0.0234834
0.0234845
0.0234854
0.0234867
0.023487
0.023463
0.0226662
0.0231811
0.0234907
0.0234901
0.0234881
0.0234858
0.0234842
0.0234821
0.0234808
0.0234797
0.0234789
0.0234784
0.0234778
0.0234548
0.0234551
0.0234554
0.0234559
0.0234566
0.0234572
0.0234583
0.0234593
0.0234607
0.0234609
0.0234343
0.0226422
0.0231559
0.0234645
0.023464
0.0234619
0.0234595
0.0234578
0.0234557
0.0234543
0.0234532
0.0234524
0.0234519
0.0234513
0.0234285
0.0234288
0.0234292
0.0234297
0.0234303
0.023431
0.0234322
0.0234333
0.0234347
0.0234349
0.0234057
0.0226181
0.0231306
0.0234384
0.0234378
0.0234357
0.0234332
0.0234314
0.0234293
0.0234278
0.0234267
0.0234259
0.0234253
0.0234248
0.0234023
0.0234025
0.0234029
0.0234034
0.0234041
0.0234048
0.0234061
0.0234072
0.0234087
0.0234088
0.0233772
0.022594
0.0231053
0.0234123
0.0234117
0.0234095
0.0234069
0.0234051
0.0234028
0.0234014
0.0234002
0.0233993
0.0233988
0.0233982
0.023376
0.0233763
0.0233767
0.0233772
0.0233779
0.0233787
0.02338
0.0233812
0.0233827
0.0233827
0.0233487
0.0225698
0.02308
0.0233862
0.0233855
0.0233832
0.0233806
0.0233787
0.0233764
0.0233749
0.0233737
0.0233728
0.0233722
0.0233716
0.0233497
0.02335
0.0233504
0.023351
0.0233517
0.0233525
0.023354
0.0233551
0.0233567
0.0233567
0.0233202
0.0225457
0.0230546
0.0233601
0.0233594
0.023357
0.0233543
0.0233523
0.0233499
0.0233484
0.0233472
0.0233462
0.0233456
0.0233451
0.0233235
0.0233238
0.0233242
0.0233247
0.0233255
0.0233264
0.0233279
0.0233291
0.0233307
0.0233306
0.0232918
0.0225215
0.0230292
0.023334
0.0233333
0.0233308
0.023328
0.0233259
0.0233235
0.0233219
0.0233206
0.0233197
0.0233191
0.0233185
0.0232972
0.0232975
0.0232979
0.0232985
0.0232993
0.0233003
0.0233018
0.0233031
0.0233048
0.0233045
0.0232633
0.0224973
0.0230038
0.0233079
0.0233071
0.0233046
0.0233016
0.0232995
0.0232971
0.0232954
0.0232941
0.0232931
0.0232925
0.023292
0.0232709
0.0232712
0.0232717
0.0232723
0.0232732
0.0232742
0.0232757
0.0232771
0.0232788
0.0232784
0.0232348
0.0224731
0.0229784
0.0232817
0.023281
0.0232784
0.0232753
0.0232732
0.0232706
0.0232689
0.0232676
0.0232666
0.0232659
0.0232654
0.0232447
0.023245
0.0232455
0.0232461
0.023247
0.023248
0.0232497
0.0232511
0.0232528
0.0232523
0.0232062
0.022449
0.022953
0.0232556
0.0232548
0.0232522
0.023249
0.0232468
0.0232442
0.0232424
0.023241
0.02324
0.0232393
0.0232388
0.0239782
0.0239794
0.0240012
0.0239542
0.0239566
0.0239765
0.0239304
0.023934
0.0239538
0.023906
0.0239105
0.0239311
0.0238804
0.0238855
0.0239074
0.023853
0.0166646
0.0171242
0.0238592
0.0238823
0.0240041
0.0240283
0.0240046
0.024029
0.0239803
0.0239786
0.0240014
0.0239882
0.0240004
0.0239797
0.0239818
0.0240006
0.0239553
0.0239543
0.0239755
0.0239661
0.0239563
0.023973
0.023939
0.0239712
0.0239566
0.0239576
0.0239757
0.0239305
0.0239304
0.0239513
0.0239423
0.0239086
0.0239225
0.0236397
0.023804
0.0239339
0.0239338
0.0239517
0.0239055
0.0239059
0.0239274
0.0239183
0.0238968
0.0239011
0.0238357
0.0237068
0.0239103
0.0239096
0.0239278
0.0238808
0.0238878
0.0238854
0.0238846
0.0239034
0.023867
0.0238756
0.0238262
0.0185363
0.0166919
0.0208695
0.023832
0.0238556
0.0239751
0.023987
0.0239876
0.0239866
0.0239716
0.0240004
0.0239882
0.0239726
0.0239874
0.0239884
0.0239872
0.0239752
0.0239257
0.0239529
0.0239631
0.0239291
0.0238424
0.0239682
0.0239337
0.0238154
0.0239374
0.023965
0.0239503
0.0239128
0.023974
0.0239516
0.0239679
0.0239017
0.0239075
0.0239393
0.0238136
0.0238397
0.0238384
0.0238126
0.0237019
0.0236313
0.0239425
0.0238902
0.0238914
0.0239117
0.0238915
0.0239453
0.023815
0.0238383
0.0238417
0.023811
0.0238869
0.0238429
0.0239194
0.0239015
0.0239026
0.0238914
0.0239009
0.0239224
0.0238533
0.0238543
0.0238408
0.0238525
0.0238766
0.0238807
0.0239016
0.0238937
0.0238982
0.0238477
0.0238228
0.0238539
0.0238488
0.0238538
0.0238655
0.0239908
0.0239887
0.024001
0.0239912
0.0239991
0.02388
0.0238803
0.0239028
0.0238933
0.0238838
0.0238906
0.0234742
0.0232678
0.023859
0.0238589
0.0238782
0.0239995
0.0239917
0.024001
0.0239887
0.0239915
0.0238914
0.0238962
0.0239153
0.0165367
0.0178712
0.0217718
0.0223166
0.0179543
0.0195068
0.0232277
0.0228507
0.0238951
0.0238924
0.0238826
0.0223782
0.0226836
0.0238811
0.0238701
0.0238725
0.0240151
0.0240137
0.0240022
0.0240023
0.0240138
0.0240151
0.0239902
0.0239933
0.0239907
0.0239997
0.0239917
0.0239949
0.0239517
0.0239579
0.023739
0.0237465
0.0237924
0.0237772
0.02388
0.0228527
0.0238908
0.0236309
0.0234974
0.0235241
0.023646
0.0238723
0.0238845
0.0239814
0.0236769
0.023951
0.0236155
0.0239794
0.0239592
0.0239912
0.0239932
0.0239892
0.023913
0.0239802
0.0239812
0.0238808
0.0238753
0.0239574
0.0239549
0.0238669
0.0238735
0.0239201
0.0239601
0.0239644
0.0239544
0.0239587
0.0239193
0.0239645
0.0239718
0.0239762
0.0239659
0.0239703
0.0239619
0.0238263
0.0238277
0.0238176
0.0238156
0.0235185
0.0235353
0.0238793
0.0239379
0.023942
0.0239325
0.0239366
0.0238785
0.0239038
0.0239489
0.023953
0.0239434
0.0239475
0.0239026
0.0166448
0.0238263
0.0180323
0.0165598
0.0196879
0.0181304
0.0238296
0.0237934
0.0167021
0.0237977
0.0238752
0.0238722
0.023896
0.0239269
0.0239311
0.0239213
0.0239256
0.0238974
0.0209132
0.0216504
0.0238471
0.0210041
0.0198033
0.0219361
0.0211365
0.0238488
0.0196643
0.0207961
0.023879
0.0232815
0.0235004
0.0228975
0.0232372
0.0238796
0.0227577
0.0226323
0.0227348
0.0177696
0.0227176
0.0225914
0.0189159
0.023627
0.0236431
0.0239974
0.0238539
0.0238532
0.023877
0.0238672
0.0238633
0.0238728
0.0204175
0.0238271
0.0238464
0.0239974
0.0238737
0.0238826
0.0238901
0.0178973
0.0181028
0.0157557
0.0225713
0.022544
0.0182999
0.0186362
0.0235698
0.0236218
0.0132533
0.0240066
0.0240071
0.0240006
0.0240003
0.0240071
0.0240066
0.0239644
0.0239696
0.023965
0.0239419
0.0239404
0.0239654
0.0239129
0.0239455
0.0239411
0.0239514
0.023947
0.0239149
0.023689
0.023782
0.0238174
0.0237184
0.0221257
0.0218195
0.023871
0.0236588
0.0237419
0.0237854
0.0237762
0.0183015
0.023995
0.0239926
0.0240001
0.0239759
0.0239576
0.0239448
0.0239824
0.0239839
0.0239887
0.0239778
0.0239824
0.0239807
0.0239366
0.0239574
0.0239529
0.0239635
0.0239589
0.0239405
0.0239078
0.0230456
0.0235775
0.0226789
0.0227634
0.0238555
0.0236312
0.0236897
0.0239439
0.0238363
0.0238967
0.0239336
0.02396
0.0239616
0.02395
0.0239524
0.0239156
0.0239397
0.0239353
0.0239047
0.0238202
0.022483
0.0221803
0.023828
0.0225561
0.0226551
0.0221251
0.0221796
0.0238115
0.0236286
0.0235739
0.0238842
0.0239363
0.0239382
0.0239275
0.023931
0.0238867
0.0239085
0.023947
0.0239492
0.0239388
0.0239407
0.0238968
0.023883
0.0235178
0.0235996
0.0234096
0.023362
0.0238577
0.0239059
0.0239156
0.0239199
0.0239096
0.0239141
0.0239052
0.0238546
0.0225069
0.0220204
0.022996
0.0228557
0.0238547
0.0196424
0.0198202
0.0238522
0.0231403
0.0230374
0.0194408
0.0195933
0.0225023
0.0222062
0.0239944
0.0239973
0.0239956
0.021798
0.0233982
0.0219464
0.0221198
0.0220473
0.0233717
0.0239961
0.0239947
0.0239982
0.0239932
0.023995
0.0167287
0.0171527
0.0179768
0.0179156
0.0220406
0.0186505
0.0184619
0.0190704
0.0187033
0.0221104
0.0183835
0.0186804
0.0230879
0.0230242
0.0225324
0.0196292
0.0192654
0.0186644
0.0188284
0.0239868
0.0239897
0.0239926
0.0239856
0.0239887
0.0239854
0.023943
0.023964
0.0236971
0.0237743
0.0238131
0.0237264
0.0229413
0.0236331
0.0235748
0.0236935
0.0236513
0.0229242
0.0234393
0.0233831
0.0235566
0.0234712
0.0235841
0.0225931
0.0227821
0.0222517
0.0224997
0.0235644
0.0216538
0.0217385
0.023813
0.0239738
0.0239628
0.0239847
0.0239771
0.023848
0.0238999
0.0238768
0.023955
0.0239094
0.0239833
0.0239896
0.0239861
0.0239806
0.0239734
0.0239733
0.0239604
0.023977
0.0239654
0.0239796
0.0239844
0.0239682
0.0239778
0.023984
0.0239805
0.0239748
0.0228774
0.0229669
0.0238998
0.0220986
0.02172
0.0231212
0.0221761
0.0211742
0.0208232
0.0216041
0.0213281
0.0238603
0.0227937
0.0228554
0.0235813
0.0234746
0.0238648
0.0236689
0.0233489
0.0232363
0.0234551
0.0233785
0.0239468
0.0237033
0.0237413
0.0238434
0.0238929
0.0239565
0.0239591
0.0239268
0.0239166
0.0239532
0.0239556
0.0225662
0.0225353
0.0238221
0.020421
0.0204355
0.0188907
0.020236
0.0203094
0.0207717
0.0204059
0.020318
0.0224112
0.0225235
0.0238249
0.0202575
0.0198897
0.0207411
0.0203691
0.0191852
0.0188131
0.0197453
0.0193629
0.0238125
0.0222353
0.0223665
0.0235774
0.0235595
0.0239339
0.0239357
0.0238828
0.0238831
0.0239316
0.0239333
0.0239441
0.0239462
0.0239074
0.023898
0.0239414
0.0239434
0.0167861
0.0172292
0.0226539
0.022849
0.0223939
0.0225841
0.0167316
0.0190791
0.0231042
0.022804
0.0229021
0.0230565
0.0187577
0.0214979
0.0216221
0.0210355
0.0214513
0.0171159
0.0221327
0.02234
0.0216888
0.0220234
0.0171071
0.0234463
0.0234977
0.0238814
0.0232241
0.02333
0.0233566
0.0232185
0.0233292
0.0238611
0.0233298
0.0234023
0.0212148
0.0175604
0.0176179
0.0183224
0.0176419
0.0213214
0.0179789
0.020106
0.0176492
0.0202916
0.0230752
0.0237407
0.0237064
0.0237811
0.023752
0.0231043
0.0226087
0.0226642
0.0199074
0.0201076
0.0189673
0.0193721
0.0227075
0.0225709
0.0240053
0.024007
0.0240266
0.0238692
0.0238672
0.0238567
0.0240027
0.0240031
0.023999
0.0239983
0.0240029
0.0240027
0.0240149
0.0240143
0.0240029
0.0239758
0.0239711
0.0239668
0.02394
0.0239013
0.0238956
0.0236526
0.0237965
0.023928
0.0239236
0.0238992
0.0235321
0.0235044
0.0237101
0.0236176
0.0236587
0.0238897
0.0239805
0.0239821
0.0239773
0.0239321
0.0239473
0.0239745
0.0239855
0.0239819
0.0239849
0.0239657
0.023858
0.0239254
0.0238224
0.0238896
0.0238822
0.0239332
0.0239343
0.0239351
0.0239138
0.0239635
0.0239652
0.0239548
0.0239038
0.0239338
0.0239295
0.0227061
0.022583
0.0238338
0.0236927
0.0235682
0.0235585
0.0236228
0.0238889
0.0239216
0.0239222
0.0239107
0.0239326
0.0239334
0.0239228
0.0239234
0.0238929
0.0237854
0.0228947
0.0227682
0.0238914
0.0239251
0.0239263
0.0238985
0.0239034
0.023908
0.0176784
0.0176781
0.0232453
0.02317
0.0238514
0.0176956
0.0176844
0.0237488
0.0237634
0.0238609
0.0239921
0.0239919
0.0164625
0.0167098
0.0167862
0.017758
0.0180438
0.0165558
0.0166288
0.0179141
0.0176889
0.0192966
0.0225637
0.0225071
0.0229089
0.0199078
0.0196892
0.0225736
0.024008
0.0240075
0.0240008
0.0239884
0.0239892
0.0239902
0.0239913
0.0239819
0.0239834
0.0239936
0.0239967
0.023995
0.0239302
0.0239271
0.0239472
0.0239609
0.0239513
0.0239458
0.023719
0.0237541
0.023594
0.0236136
0.0238022
0.0237581
0.0235091
0.0235539
0.0230089
0.0230192
0.0232496
0.0232176
0.0228536
0.023042
0.023067
0.0238901
0.023675
0.0237195
0.0238588
0.0237432
0.0238977
0.0238789
0.0239722
0.0239645
0.0239341
0.0233739
0.0232872
0.0238313
0.0236948
0.023501
0.0239923
0.0239905
0.0239864
0.0239867
0.0239795
0.0239837
0.0239353
0.0239754
0.0239793
0.0237538
0.0238184
0.023964
0.0231752
0.0230701
0.0238604
0.0238799
0.0239703
0.023972
0.0239689
0.0239559
0.0239668
0.0239686
0.0238322
0.0225693
0.0225615
0.0235174
0.0235435
0.0239281
0.0239288
0.023905
0.0239009
0.0239267
0.0239274
0.0167502
0.0179105
0.0199618
0.0200924
0.0185689
0.0186816
0.0164331
0.0229845
0.0229183
0.0237894
0.0170786
0.0168997
0.0179945
0.0180138
0.0168513
0.0184424
0.0185012
0.0167632
0.0168082
0.0239228
0.023924
0.0238919
0.0238992
0.0239205
0.0239217
0.0204338
0.0230104
0.0230748
0.0228737
0.0229422
0.0202305
0.0233829
0.0237589
0.0237887
0.0237781
0.0237691
0.0234167
0.0229709
0.0233342
0.0232908
0.0226566
0.0225843
0.0227672
0.0180313
0.0181682
0.0182212
0.0177594
0.0228086
0.0203531
0.0200222
0.0206208
0.02043
0.0225475
0.0216704
0.0216955
0.0228331
0.022993
0.0236731
0.0239966
0.0239975
0.0239955
0.017899
0.0179568
0.0198425
0.0197934
0.0155381
0.0184936
0.0181431
0.0181463
0.0180182
0.0180918
0.0185898
0.0133791
0.0226492
0.0227035
0.0240038
0.0240033
0.0239989
0.0239124
0.0239069
0.0239409
0.0239304
0.0239469
0.023959
0.0239408
0.0239443
0.0236727
0.0237891
0.0233969
0.0234281
0.023426
0.0233941
0.0237136
0.0234838
0.023471
0.0220569
0.0215894
0.0215829
0.0216509
0.0216397
0.0219701
0.0239542
0.0239665
0.0239676
0.0239633
0.0239653
0.0239506
0.0238293
0.0239229
0.0238752
0.0238586
0.0239147
0.0239359
0.0239367
0.0235671
0.0235731
0.0236726
0.0235944
0.0239204
0.023921
0.0238863
0.0239311
0.0239318
0.0239096
0.023895
0.023924
0.0239247
0.0234133
0.0235175
0.0234741
0.0235533
0.0235399
0.0234046
0.0176871
0.0177222
0.0177445
0.0177138
0.0194949
0.0184762
0.0184371
0.0217188
0.0217137
0.022412
0.0218405
0.0219629
0.021618
0.0217133
0.022307
0.0239938
0.023993
0.0239933
0.0239938
0.0239965
0.0239968
0.023998
0.0239948
0.0239956
0.0239956
0.0219118
0.0226938
0.022645
0.0228302
0.0227594
0.0219739
0.0222372
0.0224654
0.0223666
0.0226061
0.0225557
0.0221589
0.0239956
0.0239962
0.0239951
0.0239896
0.0239864
0.0239936
0.0239925
0.0164807
0.0175523
0.0168316
0.0167903
0.0179593
0.0179378
0.0195378
0.0196486
0.0185443
0.0166003
0.0165196
0.0181737
0.0171598
0.0171699
0.0170925
0.0190098
0.0172932
0.0168865
0.0226229
0.0227145
0.0231436
0.0223911
0.0224153
0.0223241
0.0223426
0.0229622
0.0224856
0.0225266
0.0186928
0.0178478
0.0179343
0.0177621
0.0177755
0.01874
0.0239881
0.0239891
0.023988
0.0239826
0.0239846
0.023987
0.0239081
0.0239446
0.0239229
0.0239177
0.023931
0.0239355
0.0239208
0.0239262
0.0237054
0.0237619
0.0234632
0.0234743
0.02344
0.0234519
0.0238084
0.0236237
0.0236307
0.0234684
0.0234828
0.0237398
0.023475
0.0230959
0.0230304
0.0228868
0.0231909
0.0231563
0.023416
0.0230957
0.023087
0.0231952
0.0231384
0.0233995
0.0235347
0.0232489
0.0232828
0.0231236
0.0231892
0.0235054
0.0230744
0.0223337
0.0229421
0.0228926
0.0215984
0.0216444
0.023799
0.023914
0.0239059
0.0237783
0.0238778
0.0239446
0.0239265
0.0235133
0.0234409
0.0237494
0.023766
0.0238851
0.0236598
0.0235886
0.0239583
0.0239683
0.0239838
0.0239759
0.0239449
0.0239064
0.0239435
0.0239709
0.0239752
0.0239769
0.0239693
0.0239719
0.0239625
0.0239513
0.0239622
0.0239811
0.0239777
0.0239752
0.0239827
0.0239792
0.0239826
0.0239706
0.0239728
0.0239676
0.0239731
0.0220016
0.0218523
0.0228547
0.0216323
0.0217683
0.021348
0.0222466
0.0210395
0.0209228
0.021504
0.0214198
0.0235277
0.0230403
0.0231577
0.0228055
0.0229188
0.0234967
0.0238424
0.0236687
0.0237223
0.0232276
0.0235427
0.0237884
0.0229708
0.0227769
0.0233192
0.0220974
0.0222047
0.0219181
0.022006
0.0232862
0.0234352
0.0226171
0.0227049
0.022327
0.0224649
0.0234079
0.0238538
0.0238877
0.0204775
0.0190471
0.0192479
0.018634
0.0188308
0.0204637
0.0192531
0.0193454
0.0193298
0.0197803
0.0203772
0.0175619
0.0177565
0.017931
0.0175874
0.0205309
0.020377
0.0182909
0.0184546
0.0179704
0.0181435
0.0203486
0.020166
0.0200572
0.0206544
0.0205012
0.0190285
0.0188884
0.0196228
0.0195215
0.0235402
0.0235512
0.0239061
0.0239296
0.0239303
0.0239253
0.023926
0.0238993
0.0168203
0.0195023
0.0197751
0.0176848
0.0164411
0.0188813
0.0191769
0.0174589
0.0172634
0.0215354
0.0192196
0.0192317
0.021248
0.0189446
0.018467
0.0192255
0.0191522
0.0213782
0.0178942
0.0176679
0.0181175
0.0183389
0.0170036
0.0171098
0.017641
0.0234694
0.0236753
0.0236593
0.0236985
0.0236873
0.0234836
0.0232597
0.0233086
0.0233065
0.0232176
0.0232153
0.0232518
0.0233247
0.0235847
0.0235663
0.0236368
0.0236099
0.0233545
0.0175585
0.0184595
0.0185595
0.0183156
0.0183857
0.0175848
0.0180751
0.0191702
0.0193828
0.0187138
0.0189296
0.0178348
0.0179411
0.0171881
0.0172971
0.0171639
0.0171629
0.0176727
0.0180716
0.0182242
0.0175143
0.0177935
0.0176474
0.0233994
0.0233714
0.0230376
0.0226005
0.0227283
0.0178215
0.0179933
0.0191285
0.0180744
0.0178631
0.0183816
0.0182779
0.0192716
0.0177847
0.0177753
0.0216799
0.0216775
0.0240598
0.0240597
0.0240731
0.0240596
0.0240595
0.0240729
0.0240595
0.0240595
0.024073
0.0240597
0.0240599
0.0240732
0.0240333
0.0240331
0.0240465
0.0240328
0.0240325
0.024053
0.0240323
0.0240319
0.0240527
0.024032
0.0240324
0.0240528
0.0240328
0.0240332
0.0240533
0.0240337
0.0240339
0.0240469
0.0240072
0.0240066
0.0240264
0.0240061
0.0240048
0.0240256
0.0240181
0.0240178
0.0240287
0.0240171
0.0240175
0.0240283
0.024019
0.0240195
0.024026
0.0240075
0.0240081
0.0240209
0.0239815
0.0239808
0.0240001
0.0239931
0.0239929
0.0239994
0.0239974
0.0239971
0.0240005
0.0239921
0.0239935
0.0240031
0.0239822
0.023983
0.0239955
0.0239561
0.0239556
0.0239744
0.0239677
0.0239677
0.0239739
0.0239721
0.0239721
0.0239751
0.023968
0.023969
0.023978
0.0239578
0.0239582
0.0239706
0.0239308
0.0239307
0.0239493
0.0239429
0.0239431
0.0239493
0.0239482
0.0239483
0.0239512
0.0239452
0.0239456
0.0239544
0.0239337
0.0239336
0.0239459
0.0239054
0.0239055
0.0239244
0.0239181
0.0239185
0.0239247
0.0239244
0.0239245
0.0239275
0.0239222
0.023922
0.0239309
0.0239093
0.0239087
0.0239212
0.0238798
0.02388
0.0238992
0.0238997
0.0238999
0.023903
0.0238981
0.0238972
0.0239065
0.0238842
0.0238835
0.0238962
0.0238538
0.0238539
0.0238735
0.0238723
0.0238722
0.0238786
0.0238584
0.0238579
0.0238708
0.0238271
0.0238267
0.02384
0.023827
0.0238264
0.0238463
0.0238395
0.0238335
0.0238436
0.0182588
0.0234623
0.0234946
0.0238322
0.0238326
0.0238524
0.0238317
0.023832
0.023845
0.0238008
0.0238005
0.0238136
0.0238008
0.0237999
0.0238198
0.0237996
0.0203665
0.0203057
0.0222817
0.0238052
0.0238253
0.0238054
0.0238061
0.0238257
0.0238053
0.0238056
0.0238187
0.0237746
0.023774
0.0237873
0.0237608
0.0220218
0.0203833
0.0230755
0.0237774
0.0237985
0.0237792
0.0237798
0.0237929
0.0239782
0.0239813
0.0239813
0.0239824
0.0239835
0.0239787
0.024001
0.0239978
0.0239979
0.0239542
0.0239571
0.0239571
0.0239594
0.0239594
0.0239552
0.0239771
0.0239725
0.0239736
0.0239305
0.0239335
0.0239334
0.0239368
0.0239372
0.023933
0.0239538
0.0239496
0.0239509
0.0239061
0.0239093
0.0239091
0.0239135
0.0239143
0.0239099
0.0239316
0.0239274
0.0239282
0.0238887
0.0238885
0.0238853
0.0239069
0.0239039
0.0239044
0.023847
0.0238601
0.0238638
0.0155385
0.0193497
0.0193752
0.0215005
0.0215073
0.013461
0.0238821
0.0238789
0.0238791
0.0240029
0.0240142
0.0240146
0.0239995
0.0239994
0.0239984
0.0240284
0.0240174
0.0240171
0.0239993
0.0239995
0.024008
0.0240078
0.0240043
0.0240288
0.024018
0.0240184
0.0239802
0.0239865
0.0239867
0.0239882
0.0239863
0.0239801
0.0239991
0.0239927
0.0239914
0.0239899
0.0239895
0.0239865
0.024
0.0239981
0.0239985
0.0239811
0.0239904
0.0239889
0.023988
0.023988
0.0239819
0.0240004
0.0239941
0.0239942
0.0239554
0.0239616
0.0239615
0.0239633
0.0239616
0.0239555
0.0239739
0.0239677
0.0239664
0.0239661
0.0239691
0.0239691
0.0239592
0.0239641
0.0239623
0.0239745
0.0239729
0.0239711
0.0239671
0.0239624
0.0239692
0.0239573
0.0239661
0.0239651
0.0239636
0.023964
0.0239581
0.0239759
0.0239699
0.0239696
0.0239309
0.023937
0.0239367
0.0239394
0.0239373
0.0239312
0.0239495
0.0239434
0.0239424
0.0239424
0.0239453
0.0239453
0.0239098
0.0239346
0.0239332
0.0239442
0.0239424
0.0239196
0.0239339
0.0239427
0.0239424
0.0239397
0.0239404
0.0239345
0.0239522
0.0239463
0.0239457
0.023906
0.0239123
0.0239118
0.0239152
0.0239127
0.0239064
0.0239251
0.0239189
0.0239183
0.0239185
0.0239215
0.0239213
0.0238985
0.023922
0.0239176
0.0239214
0.0239201
0.0239004
0.0238285
0.0236624
0.023684
0.0239097
0.0239188
0.0239193
0.0239157
0.0239165
0.0239104
0.0239285
0.0239225
0.0239217
0.0238807
0.0237723
0.0237955
0.0238472
0.023851
0.0238886
0.023885
0.0238913
0.0238949
0.0238909
0.0238917
0.0238854
0.0239042
0.023898
0.0238972
0.0238684
0.0238559
0.0238555
0.0238548
0.0238556
0.0238746
0.0238226
0.0238301
0.0238328
0.0183532
0.0237727
0.0237597
0.022552
0.022559
0.0168372
0.0238153
0.0238242
0.0205376
0.0238387
0.023839
0.02383
0.0238533
0.0238423
0.0238455
0.0239769
0.0239778
0.0239762
0.0239885
0.0239837
0.0239821
0.0239844
0.0239844
0.0239875
0.0239849
0.0239823
0.0239866
0.0239986
0.0239982
0.0240001
0.0239877
0.0239895
0.0239898
0.0239738
0.0239708
0.0239694
0.0239872
0.0239863
0.0239866
0.0239882
0.0239851
0.0239853
0.0239856
0.023986
0.0239876
0.0239766
0.0239781
0.0239773
0.0239292
0.023948
0.0239461
0.0239603
0.0239583
0.0239488
0.0239601
0.0239601
0.0239631
0.0239233
0.023867
0.0238829
0.02369
0.0236971
0.0238465
0.0238934
0.0239009
0.0239375
0.0239652
0.0239608
0.0239622
0.0239481
0.0239557
0.0239572
0.0239701
0.0239735
0.0239751
0.0239584
0.0239594
0.0239527
0.0239708
0.023971
0.0239666
0.0239023
0.0239239
0.0239227
0.0239319
0.0239305
0.0239065
0.0239364
0.0239365
0.0239395
0.0238159
0.0236405
0.0236338
0.023706
0.0236998
0.0238376
0.0238348
0.0236768
0.0236833
0.0236293
0.0236268
0.0238113
0.0239427
0.0239386
0.0239397
0.0239182
0.0239183
0.0238909
0.0239481
0.0239482
0.0239441
0.023819
0.0233431
0.0232669
0.0236331
0.0236174
0.0238356
0.0238437
0.0237183
0.0237123
0.0232427
0.0231579
0.0238068
0.0238858
0.0238377
0.0238428
0.0237071
0.0237263
0.0238491
0.0239202
0.0239158
0.0239165
0.0239025
0.0239156
0.0239168
0.0239078
0.0239091
0.0239035
0.0238913
0.0239176
0.0239179
0.0239181
0.0239193
0.0238995
0.0239253
0.023926
0.0239217
0.0238539
0.0237472
0.0237396
0.0237792
0.0237753
0.0238545
0.0238431
0.0236622
0.0236479
0.0237311
0.0237219
0.0238515
0.0238775
0.0238525
0.0238538
0.0238022
0.0238191
0.0238805
0.0239006
0.023905
0.0239064
0.0238972
0.0239018
0.0238973
0.0239013
0.0239009
0.0238978
0.0238439
0.0233169
0.0232665
0.0231779
0.0232805
0.023841
0.0238535
0.0237857
0.0237827
0.0238591
0.0237647
0.0237638
0.0239907
0.0239939
0.0239941
0.0239938
0.0239951
0.0239902
0.0240002
0.0239968
0.0239956
0.0239986
0.0239974
0.0239979
0.02389
0.0238873
0.0238809
0.0239001
0.0238938
0.0238932
0.0238935
0.0238967
0.0238965
0.0238869
0.0238958
0.0238927
0.023902
0.0238989
0.0238879
0.0234493
0.0231706
0.0232125
0.0228926
0.0229584
0.0233069
0.0238592
0.0238657
0.023869
0.0239984
0.023998
0.0239992
0.0239903
0.023992
0.0239929
0.0239955
0.0239971
0.0240022
0.0239904
0.0239954
0.0239938
0.0239947
0.0239945
0.0239914
0.0238936
0.0239099
0.023905
0.023916
0.0239115
0.0238943
0.0239122
0.0239124
0.0239154
0.0218742
0.0208085
0.0206977
0.0213646
0.0212616
0.0222481
0.0231878
0.0227735
0.0228285
0.0238947
0.0238916
0.0238919
0.0238884
0.0238909
0.0238955
0.0238845
0.0238892
0.023887
0.0224364
0.0215605
0.0214658
0.021956
0.0218965
0.0226481
0.0238765
0.0238781
0.0238813
0.0238717
0.0238749
0.0238749
0.0238758
0.0238756
0.0238724
0.0240153
0.0240092
0.0240088
0.0240099
0.0240096
0.0240155
0.0240012
0.0240075
0.024008
0.0240042
0.024004
0.024002
0.0240155
0.0240096
0.02401
0.0240089
0.0240092
0.0240153
0.0239935
0.0239905
0.0239916
0.0239961
0.0239976
0.0239996
0.0239923
0.0239933
0.0239927
0.0239967
0.0239963
0.0239945
0.0237307
0.0237627
0.0238804
0.0238906
0.0238659
0.0238681
0.0236172
0.0234301
0.0234529
0.0232511
0.0232847
0.0235182
0.0235854
0.0237929
0.023786
0.0238041
0.0237989
0.0236019
0.0238734
0.023856
0.0238563
0.0239741
0.0239805
0.0239832
0.0239771
0.0239528
0.0239707
0.0239662
0.0239802
0.0239765
0.0239921
0.023991
0.0239897
0.0239915
0.0239912
0.0239928
0.023979
0.0239777
0.0239792
0.0239821
0.0239812
0.0239801
0.0237565
0.0237672
0.0238865
0.0238702
0.023738
0.0237469
0.0239385
0.0239436
0.0239597
0.0239523
0.0239284
0.0239335
0.0239413
0.0239426
0.0239213
0.0239615
0.0239605
0.023959
0.0239636
0.023962
0.023963
0.0239558
0.0239546
0.0239532
0.0239576
0.0239561
0.0239572
0.0239185
0.0239394
0.0239403
0.0239679
0.0239691
0.0239663
0.0239733
0.0239727
0.0239712