/*--------------------------------*- C++ -*----------------------------------*\
| =========                 |                                                 |
| \\      /  F ield         | OpenFOAM: The Open Source CFD Toolbox           |
|  \\    /   O peration     | Version:  5.x                                   |
|   \\  /    A nd           | Web:      www.OpenFOAM.org                      |
|    \\/     M anipulation  |                                                 |
\*---------------------------------------------------------------------------*/
FoamFile
{
    version     2.0;
    format      ascii;
    class       volScalarField;
    location    "400";
    object      p;
}
// * * * * * * * * * * * * * * * * * * * * * * * * * * * * * * * * * * * * * //

dimensions      [0 2 -2 0 0 0 0];

internalField   nonuniform List<scalar> 
6584
(
20.998
19.1735
17.3486
15.5239
13.6994
11.8749
10.0505
8.22656
6.40288
4.57916
2.75486
0.929394
-0.89763
-2.72609
-4.5554
-6.38491
-8.21409
-10.0428
-11.8712
-13.6992
-15.527
-17.354
-19.1802
-21.0054
20.9995
19.1779
17.3542
15.5299
13.7056
11.8801
10.0533
8.22789
6.40403
4.58058
2.75657
0.931291
-0.895787
-2.72454
-4.55426
-6.38456
-8.2151
-10.0454
-11.8756
-13.7049
-15.5329
-17.3601
-19.185
-21.0066
20.9999
19.1811
17.3608
15.5381
13.7141
11.8887
10.0598
8.23083
6.40567
5.03793
3.21528
1.39111
-0.435507
-2.26472
-4.09553
-6.38827
-8.22334
-10.0556
-11.8859
-13.7144
-15.5413
-17.3664
-19.1879
-21.0076
20.9999
19.1817
17.3631
15.5432
13.7209
11.8966
10.0679
8.23759
6.40976
5.04019
3.21926
1.39688
-0.429486
-2.26122
-4.10062
-5.9393
-8.23931
-10.0698
-11.8975
-13.7238
-15.5483
-17.3699
-19.1893
-21.0084
20.9995
19.1815
17.3633
15.5449
13.7251
11.9025
10.0771
8.25237
6.87482
5.04493
3.22482
1.40513
-0.420432
-2.26494
-4.11975
-5.96317
-7.79611
-10.0826
-11.9077
-13.7314
-15.5525
-17.3719
-19.1905
-21.0092
20.9991
19.1812
17.363
15.5449
13.7265
11.9065
10.0855
8.7195
6.89622
5.07245
3.47006
1.6477
-0.173384
-2.04861
-4.14363
-5.98204
-7.81016
-10.0933
-11.9161
-13.7365
-15.5552
-17.3735
-19.1916
-21.0098
20.9987
19.1808
17.3626
15.5444
13.7261
11.9073
10.0877
8.72169
6.90256
5.087
3.50366
1.80173
-0.0128615
-2.071
-3.93719
-6.00144
-7.82464
-10.103
-11.9224
-13.74
-15.5575
-17.375
-19.1926
-21.0105
20.9983
19.1803
17.362
15.5437
13.7251
11.9061
10.0871
8.7219
6.89965
5.07863
3.49108
1.80697
-2.02441
-3.97425
-6.02142
-7.83763
-10.1094
-11.9265
-13.7427
-15.5594
-17.3763
-19.1935
-21.0109
20.998
19.1798
17.3615
15.543
13.7241
11.9045
10.0845
8.71921
6.89312
5.06262
3.45707
1.71741
-2.14146
-4.01459
-6.03717
-7.84478
-10.1114
-11.9281
-13.7445
-15.5607
-17.3771
-19.194
-21.0111
20.9977
19.1795
17.3611
15.5424
13.7233
11.9035
10.0828
8.71597
6.88648
5.05121
3.43639
1.68036
-2.19323
-4.03623
-6.04375
-7.84674
-10.1095
-11.9259
-13.7437
-15.561
-17.3774
-19.1942
-21.011
20.9976
19.1792
17.3608
15.542
13.7229
11.903
10.0822
8.71446
6.88451
5.0504
3.43822
1.69577
-2.16841
-4.02629
-6.03631
-7.84083
-10.1034
-11.92
-13.739
-15.5591
-17.377
-19.1939
-21.0107
20.9976
19.1791
17.3607
15.5419
13.723
11.9035
10.0828
8.71486
6.887
5.05816
3.45601
1.73912
-2.09793
-3.9923
-6.01719
-7.82773
-10.0932
-11.9113
-13.7315
-15.5536
-17.3748
-19.1932
-21.01
20.9977
19.1792
17.3609
15.5422
13.7235
11.9046
10.0844
8.71695
6.89188
5.06872
3.47675
1.78457
-2.02269
-3.94972
-5.99215
-7.80996
-10.0795
-11.9
-13.7219
-15.5458
-17.3707
-19.1919
-21.0091
20.9979
19.1794
17.3611
15.5427
13.7242
11.9058
10.086
8.26392
6.89601
5.074
3.48213
1.77709
0.0623802
-2.06856
-3.91056
-5.96423
-7.78976
-10.0632
-11.8866
-13.7105
-15.5376
-17.3649
-19.1888
-21.0079
20.9981
19.1796
17.3614
15.543
13.7247
11.9063
10.0854
8.25946
6.89173
5.05771
3.45985
1.6473
-0.172887
-2.03359
-4.10677
-5.94093
-8.22563
-10.0518
-11.8776
-13.7024
-15.5302
-17.3572
-19.1822
-21.0052
20.9982
19.1797
17.3615
15.5431
13.7247
11.9058
10.0828
8.25125
6.87577
5.04932
3.22867
1.6352
-0.194791
-2.2587
-4.09809
-5.93254
-8.21888
-10.046
-11.8719
-13.6999
-15.5258
-17.3516
-19.1767
-21.0023
20.9983
19.1798
17.3613
15.5428
13.7242
11.9042
10.0784
8.24603
6.41544
5.04744
3.22413
1.39902
-0.425877
-2.26047
-4.09608
-5.92763
-8.21254
-10.0393
-11.8664
-13.6944
-15.5215
-17.3479
-19.1753
-21.0009
20.9983
19.1797
17.3611
15.5423
13.7231
11.9011
10.073
8.24147
6.41375
4.59008
3.22097
1.39671
-0.433925
-2.26276
-4.55096
-6.3807
-8.20868
-10.0358
-11.863
-13.6904
-15.5172
-17.3441
-19.1714
-20.9988
20.9983
19.1795
17.3606
15.5417
13.722
11.8977
10.0677
8.23822
6.41191
4.58786
2.75982
0.937416
-0.890646
-2.72346
-4.54959
-6.37901
-8.20634
-10.0335
-11.8604
-13.6875
-15.5143
-17.3414
-19.1683
-20.9968
20.9982
19.1792
17.3601
15.5409
13.7207
11.895
10.0643
8.23652
6.4106
4.58641
2.75888
0.934944
-0.892433
-2.72281
-4.54883
-6.37777
-8.20455
-10.0317
-11.8584
-13.6853
-15.5122
-17.3392
-19.1659
-20.9952
20.998
19.1788
17.3594
15.5399
13.7195
11.8931
10.0621
8.2353
6.40964
4.58523
2.75804
0.932962
-0.894027
-2.72261
-4.54849
-6.37684
-8.20325
-10.0304
-11.8567
-13.6835
-15.5105
-17.3374
-19.1639
-20.9939
20.9978
19.1784
17.3587
15.5389
13.7182
11.8916
10.0607
8.23432
6.40859
4.58426
2.75728
0.931862
-0.894849
-2.72263
-4.54835
-6.37621
-8.20231
-10.0293
-11.8555
-13.6822
-15.5091
-17.3358
-19.1622
-20.9928
20.9976
19.178
17.358
15.538
13.7169
11.8904
10.0595
8.23316
6.40768
4.58349
2.75676
0.931151
-0.89537
-2.72263
-4.54828
-6.37574
-8.20163
-10.0285
-11.8545
-13.6812
-15.5079
-17.3345
-19.1608
-20.9918
20.9973
19.1775
17.3573
15.537
13.7157
11.8892
10.0584
8.23209
6.40687
4.58267
2.75635
0.930649
-0.895744
-2.72265
-4.54824
-6.37536
-8.20112
-10.0279
-11.8537
-13.6803
-15.5069
-17.3334
-19.1596
-20.991
20.9971
19.177
17.3565
15.5361
13.7145
11.888
10.0574
8.23109
6.40594
4.58187
2.75603
0.93027
-0.896005
-2.72264
-4.5482
-6.37508
-8.20072
-10.0273
-11.8531
-13.6796
-15.506
-17.3325
-19.1586
-20.9903
20.9968
19.1766
17.3559
15.5351
13.7134
11.8869
10.0565
8.23015
6.40502
4.58111
2.75523
0.929586
-0.896559
-2.72289
-4.54839
-6.37505
-8.20063
-10.0272
-11.8529
-13.6794
-15.5055
-17.3317
-19.1577
-20.9897
20.9965
19.1761
17.3552
15.5343
13.7123
11.8859
10.0557
8.22933
6.40413
4.57969
2.75381
0.928228
-0.897756
-2.72393
-4.5494
-6.37588
-8.20141
-10.0279
-11.8536
-13.6799
-15.5058
-17.3319
-19.1577
-20.9896
20.9963
19.1756
17.3545
15.5335
13.7113
11.8849
10.0549
8.22853
6.40288
4.57793
2.75211
0.926496
-0.899457
-2.72554
-4.55098
-6.37732
-8.20279
-10.0291
-11.8548
-13.681
-15.5068
-17.3329
-19.1586
-20.9899
20.996
19.1752
17.3539
15.5327
13.7104
11.884
10.0541
8.22734
6.40124
4.57623
2.75043
0.924809
-0.901118
-2.72712
-4.55253
-6.37875
-8.20417
-10.0304
-11.856
-13.6821
-15.5078
-17.3339
-19.1596
-20.9902
20.9958
19.1748
17.3533
15.5319
13.7095
11.8831
10.0529
8.22566
6.39961
4.57454
2.74879
0.923157
-0.902744
-2.72867
-4.55408
-6.38017
-8.20556
-10.0317
-11.8573
-13.6833
-15.5089
-17.3349
-19.1606
-20.9906
20.9956
19.1744
17.3528
15.5312
13.7085
11.8817
10.0511
8.22399
6.39799
4.57287
2.74716
0.921533
-0.904344
-2.7302
-4.55559
-6.3816
-8.20697
-10.033
-11.8585
-13.6845
-15.51
-17.336
-19.1616
-20.991
20.9953
19.174
17.3522
15.5306
13.707
11.8793
10.0491
8.22232
6.39638
4.57124
2.74555
0.919929
-0.905922
-2.73172
-4.5571
-6.383
-8.20836
-10.0344
-11.8597
-13.6857
-15.5112
-17.3371
-19.1627
-20.9914
20.9952
19.1737
17.3518
15.5296
13.7046
11.8764
10.0471
8.22066
6.39479
4.56959
2.74396
0.918345
-0.907483
-2.73323
-4.55857
-6.38443
-8.20974
-10.0357
-11.861
-13.6869
-15.5124
-17.3382
-19.1637
-20.9918
20.995
19.1734
17.3513
15.528
13.7016
11.8736
10.0451
8.21898
6.39319
4.56797
2.74236
0.916775
-0.909035
-2.7347
-4.56005
-6.38583
-8.21113
-10.037
-11.8623
-13.6881
-15.5136
-17.3393
-19.1648
-20.9922
20.9949
19.1731
17.3509
15.5265
13.6989
11.8709
10.0431
8.21731
6.39157
4.56632
2.74075
0.915224
-0.910572
-2.73616
-4.56153
-6.38718
-8.21253
-10.0383
-11.8636
-13.6894
-15.5148
-17.3404
-19.1659
-20.9925
20.9948
19.1729
17.3506
15.5255
13.697
11.8685
10.0412
8.21564
6.39002
4.56469
2.73913
0.913667
-0.912117
-2.7376
-4.56298
-6.38858
-8.21393
-10.0396
-11.865
-13.6906
-15.516
-17.3416
-19.167
-20.993
1.72615
-1.9127
-1.79243
1.68184
-1.9795
-1.92618
1.69169
-1.9597
-1.98184
1.73296
-1.88691
-1.95231
1.7801
-1.80505
-1.87658
1.79036
0.189179
0.067381
-1.73562
-1.79543
1.81646
0.217087
-1.77537
-1.70838
3.46524
1.96051
2.02978
-1.03246
-0.888255
-2.12956
-3.55894
-3.51958
3.43937
1.91848
1.95255
1.69668
0.918574
0.946681
-1.20655
-1.16244
-2.19081
-3.59339
-3.5704
3.43582
1.92542
1.91706
1.68077
0.905453
0.901749
-1.24213
-1.24666
-2.17529
-3.59014
-3.59628
3.45074
1.96199
1.92906
1.71011
0.957324
0.933119
-1.12996
-1.1848
-2.1075
-3.55511
-3.5836
-1.00428
-1.0794
-2.03167
-3.50732
-3.5436
-0.905415
-0.947065
1.65131
0.163717
0.179387
-0.0644079
-1.56604
-1.72744
0.951751
1.00235
1.75799
0.883577
0.830835
0.991441
0.893348
-1.15896
-1.07357
-1.86574
-1.1539
-1.21204
0.902309
0.915336
1.6917
0.826154
0.810054
0.826057
0.827315
-1.24228
-1.2119
-1.96444
-1.26509
-1.28459
-1.21491
-1.26128
-1.95694
0.929666
0.90828
1.68262
0.81551
0.841787
0.810509
0.813151
-1.19031
-1.23812
-1.97667
-1.27986
-1.24508
-1.28763
-1.28341
-1.98011
0.844944
0.874917
0.844245
0.841064
-1.08265
-1.12872
-1.91659
-1.18428
-1.16662
-1.24056
-1.18627
-1.92621
0.920222
0.947092
0.879299
0.915571
-0.953317
-0.997982
-1.16039
-1.11623
-1.84522
0.967516
0.939849
0.949418
0.965941
-0.852372
-0.901003
1.77012
1.01249
1.09907
-0.536926
-0.385386
3.47197
2.00433
1.96753
1.75803
1.02737
0.993541
-0.495905
-0.520371
-1.96591
-3.4621
-3.49523
0.613207
0.488843
-1.01074
-1.13954
-1.84762
0.989263
0.961137
1.71551
0.425024
0.444672
0.520931
0.535224
0.442412
0.466479
-0.524198
-0.547835
-1.83507
-1.10997
-1.06667
0.536694
0.543969
-1.0607
-1.0204
-1.7676
0.222945
0.953082
1.00379
-0.869865
-0.744768
0.0958799
-0.564529
-0.974929
-0.615647
-0.455912
-0.596759
-0.953833
-1.18434
-1.18592
-1.25548
-1.25544
-1.15906
-1.15684
-1.02276
-0.630837
-1.05495
-0.471085
-0.493403
-0.578647
-0.554995
-0.928311
0.423008
0.856416
0.460894
0.480029
0.463008
0.848845
0.483007
0.541549
0.932514
0.474469
0.421835
-1.12371
-1.11917
0.812843
0.813053
0.838961
0.83792
-1.21611
-1.21289
-1.25787
-1.60714
-1.59689
-1.61789
-1.61007
-1.26104
-1.23604
-1.57261
-1.55297
-1.59282
-1.57805
-1.2366
0.828598
0.830538
0.80907
0.809834
-1.20006
-1.20477
-1.24939
-1.60536
-1.61572
-1.58736
-1.60115
-1.24508
-1.29613
-1.62266
-1.61971
-1.61835
-1.62243
-1.29612
0.428888
0.856966
0.480984
0.459356
0.500191
0.479413
0.86121
0.825159
0.463071
0.828833
-1.10546
-1.10781
-1.21297
-1.56603
-1.58192
-1.54385
-1.56064
-1.21203
0.499687
0.517945
0.894503
0.522775
0.500171
0.554141
0.52711
0.899888
0.470542
0.498014
-0.972307
-0.603856
-0.582094
-0.623614
-0.603324
-0.978898
-0.540968
0.527013
0.537871
0.196513
0.544931
0.524558
-0.0172654
-0.417048
-0.468384
-0.0455532
3.48616
2.13089
2.00846
1.79544
1.1301
1.1174
-0.0289773
-0.740802
-0.787919
0.424045
1.05765
1.03177
1.76407
0.305033
0.29849
0.17197
0.523541
0.505373
0.307446
0.319687
-0.365026
-0.402283
0.0346327
0.310574
0.620565
0.625987
-0.363922
-0.271614
0.176951
0.927997
1.28924
1.27837
-1.18966
-1.02547
-1.17071
0.901767
1.26396
1.26565
1.26422
1.26258
0.901329
-1.2504
-1.25152
-1.14275
-1.1643
-0.232405
-0.235641
-0.92229
-0.552209
-0.559709
0.882523
0.87263
0.201594
0.947333
0.553702
0.664129
-1.14183
-0.984423
-1.01836
-1.19383
-1.50945
-1.47527
-1.54539
-1.51859
-1.20457
0.90508
1.26844
1.26383
1.27672
1.26901
0.906444
0.817889
0.623206
0.649838
0.620397
0.619429
0.81163
0.65239
0.651612
0.832103
-1.2334
-1.20502
-1.26151
-1.41942
-1.39127
-1.44035
-1.43451
-1.27606
1.268
1.27249
0.91769
0.821699
0.644731
0.621293
0.809224
0.619944
0.620691
0.616783
0.615472
0.81101
-1.1875
-1.22586
-1.26839
-1.4305
-1.43623
-1.37219
-1.40676
-1.2444
-1.29285
-1.44483
-1.44068
-1.43906
-1.4425
-1.29123
-1.09183
-0.91934
-0.917196
-0.981616
-0.963656
-1.12149
-1.19261
-1.52084
-1.53811
-1.49779
-1.51492
-1.18659
0.9332
0.572427
0.556234
0.617254
0.606664
0.93702
0.327542
0.329574
0.957175
0.626395
0.620351
0.328371
0.327741
-0.2249
-0.225874
-0.482455
-0.153137
-0.458552
-0.276082
-0.507829
-0.337184
-0.312528
-0.348459
-0.51248
0.552888
0.376695
0.479033
0.354128
0.533179
0.417666
0.428941
0.312392
0.308467
0.528592
0.359999
0.359483
0.360848
0.358112
0.529635
0.43943
0.445328
-0.531814
-0.532793
0.540663
0.374198
0.367479
0.316521
0.310399
-0.660331
-0.814642
-0.774472
-0.857468
-0.826428
-0.681003
-1.18477
-1.17547
-1.25256
-1.25415
-1.14861
-1.15832
-0.663759
-0.816687
-0.826731
-0.804427
-0.815138
-0.659462
-0.836602
-0.859424
-0.831542
-0.833016
-0.480513
-0.299913
-0.292886
-0.319674
-0.301278
-0.483185
-0.240262
-0.270832
0.451368
0.648071
0.638884
0.670729
0.652547
0.452025
0.616788
0.617681
0.634351
0.618391
0.508282
0.696184
0.676158
0.449506
0.444599
-0.96756
-0.977257
-1.13808
-0.924365
-0.888874
-0.867194
-0.913363
-0.89584
-1.10079
-0.946502
-0.960143
0.616237
0.618018
0.816557
0.557001
0.556118
0.594604
0.559289
0.559843
0.561443
0.557279
0.56066
0.811306
0.61947
0.617108
0.590778
0.583864
0.617372
0.59964
0.591341
0.595952
0.585208
0.589591
0.832728
0.650911
0.649384
-1.23045
-1.20506
-1.42532
-1.41958
-1.2569
-1.27297
-1.43365
-1.42641
0.652139
0.647892
0.824286
0.593553
0.594542
0.550233
0.588359
0.587152
0.598719
0.59346
0.589086
0.618469
0.619852
0.809801
0.560758
0.558667
0.561973
0.560751
0.554687
0.5517
0.558213
0.556254
0.809948
0.616434
0.617963
-1.18732
-1.21991
-1.4198
-1.42714
-1.26335
-1.24023
-1.40945
-1.41631
-1.44647
-1.44448
-1.29459
-1.29319
-1.44458
-1.44528
0.428564
0.464538
0.647767
0.654406
0.636566
0.644376
0.451718
0.493277
0.668001
0.644453
0.656635
0.664731
0.485545
0.615743
0.614541
0.607709
0.615327
0.471728
0.629309
0.635127
0.615247
0.626342
0.466347
-0.944102
-0.925954
-1.09579
-0.875401
-0.90184
-0.863364
-0.865978
-0.905609
-1.11698
-0.954299
-0.937611
0.503416
0.324648
0.338098
0.35383
0.322608
0.506019
0.310288
0.481716
0.341791
0.4867
-0.623782
-0.793297
-0.801086
-0.779022
-0.789845
-0.615818
-0.562746
-0.573305
0.332595
0.345468
0.314223
0.327555
-0.199312
-0.222959
-2.01022
-3.50684
-3.47631
-1.75919
-1.07
-1.03693
0.36117
0.491241
0.476896
-0.017127
0.0238942
0.293336
-1.74034
-0.999382
-0.994335
1.30644
1.29207
0.931815
-1.20068
-1.15723
-1.16395
-1.24636
-1.24835
1.28539
1.29312
0.942809
-1.14134
-1.13366
-1.17829
-0.914464
-0.897335
-1.06874
0.969693
1.32856
1.3106
0.677861
0.681366
0.835849
-0.917544
-0.940142
-1.0952
0.8483
0.662231
0.676451
-1.23888
-1.17114
-1.17721
-1.21546
-1.33969
-1.33727
-1.28162
-1.38669
-1.38047
-1.24686
0.920459
1.27547
1.28204
0.659754
0.651185
0.836396
-1.19431
-1.15375
-1.14753
-1.23414
-1.27629
-1.33303
-1.33595
-1.2896
-1.34374
-1.3419
-1.3388
-1.34133
-1.28683
0.819161
0.672617
0.664651
-1.2242
-1.36241
-1.36876
-1.14118
-1.47434
-1.4919
0.215194
0.213897
0.634971
0.628445
0.958981
0.218997
0.216768
-0.553876
-0.535045
-0.884816
-0.524479
-0.474377
0.421206
0.392837
0.396375
0.445466
0.439786
0.38416
0.388632
0.410095
0.404313
0.461925
-0.500372
-0.491432
-0.543788
0.370441
0.372836
0.541126
-0.828094
-0.417039
-0.436318
-0.583683
-0.627951
-0.681083
-0.666237
-0.759397
-0.742967
-0.761541
-0.722175
-0.538987
-1.12839
-1.13041
-1.18213
-1.18448
-1.13171
-1.13392
-1.25689
-1.25555
-1.10616
-1.10403
-1.15806
-1.15411
-1.0999
-1.09978
-0.706652
-0.715606
-0.686307
-0.693072
-0.640444
-0.725346
-0.734
-1.0653
-0.893622
-0.887453
0.424842
0.458534
0.516205
0.51655
0.544137
0.537809
0.475856
0.497497
0.500376
0.513593
0.497064
0.457601
0.695938
0.701955
0.51564
0.46262
0.397285
0.400439
0.424075
-0.788662
-0.777416
0.649189
0.656177
0.84637
0.502466
0.504443
-1.22029
-1.2098
-1.36473
-1.35889
-1.22718
-1.24253
-1.37437
-1.36937
0.834416
0.651135
0.652085
-1.19447
-1.20937
-1.34914
-1.34898
-1.29603
-1.29633
-1.34889
-1.34901
0.432192
0.481374
0.536227
0.53746
0.515218
0.514013
0.455043
0.676283
0.67406
0.821888
0.498379
0.49478
0.506259
0.512824
0.466767
0.518915
0.517303
0.49079
0.488015
-1.35036
-1.35575
-1.21914
-1.20201
-1.33928
-1.34538
0.507482
0.658635
0.665537
0.64746
0.652069
0.502857
-0.59283
-0.738896
-0.776038
-0.726559
-0.732917
-0.590455
-0.621711
-0.682739
-0.682688
-0.544259
-0.505127
-0.587178
0.189162
0.225041
0.237246
0.223719
0.551158
0.381471
0.37288
0.384531
0.382745
0.522716
-0.0624013
-0.090374
-0.28798
-0.283264
-0.456877
0.394525
0.423422
0.360495
0.3012
0.298354
0.328132
0.328233
0.167456
0.31995
0.275733
0.272156
0.268948
0.273264
0.321522
0.103062
-0.151937
-0.187884
-0.32726
-0.067311
-0.108101
-1.14547
-1.15106
-1.19502
-1.02889
-1.05833
-1.06201
-1.06855
-1.06181
-1.24918
-1.24965
-1.02758
-1.03519
-1.01379
-1.01964
-1.17116
-1.12522
-1.11707
-0.239926
-0.186084
-0.17546
-0.197662
-0.194283
-0.243683
-0.994715
-1.04037
-1.03299
-1.05798
-1.04958
-1.00671
-1.23576
-1.21423
-1.17916
-1.17813
-1.27874
-1.33492
-1.33241
-1.16278
-1.15901
-1.1943
-1.2313
-1.3264
-1.32991
-1.27288
-1.34652
-1.34512
-1.29115
-1.28943
-1.3435
-1.34511
-0.978347
-1.01971
-1.01281
-1.01114
-1.01712
-0.971163
0.212449
0.211088
0.223545
0.220363
0.328291
0.272371
0.274067
-0.121434
-0.123644
-0.223424
-0.160289
-0.168878
-0.166541
-0.160392
-0.222742
-0.429571
-0.446645
-0.505078
-0.372335
-0.190185
-0.269878
-0.230058
-0.33557
-0.311236
-0.24192
-0.326159
-0.382854
-0.39127
-0.376066
-0.377496
-0.317301
-0.362123
-0.397976
-0.401311
-0.400031
-0.405086
-0.358167
0.390495
0.458472
0.428421
0.374463
0.369228
0.391199
0.383809
0.417667
0.443245
0.398085
0.393184
0.31236
0.310991
0.41217
0.414969
0.361372
0.376313
0.379674
0.43806
0.358492
0.360062
0.350599
0.454281
0.384803
0.37601
-0.469479
-0.47634
-0.531879
-0.428836
-0.433804
-0.409275
-0.419286
-0.53729
-0.481522
-0.473212
0.313127
0.259055
0.264089
0.250532
0.254201
0.310541
-0.711013
-0.695264
-0.638859
-0.69862
-0.734282
-0.725821
-1.10072
-1.18145
-1.13337
-1.13946
-1.08361
-1.07633
-1.09697
-1.091
-1.25509
-1.2558
-1.05986
-1.06661
-1.04362
-1.05207
-1.154
-1.09816
-1.09101
-1.10961
-1.10321
-1.15446
-1.07053
-0.697861
-0.700101
-0.650563
-0.700445
-0.704557
-0.843643
-0.791884
-0.782016
-0.811612
-0.802472
-0.852041
-0.834049
-0.778888
-0.775047
-0.774689
-0.772254
-0.833239
-0.738439
-0.314575
-0.372785
-0.37618
-0.24916
-0.260401
0.419345
0.514982
0.514639
0.454275
0.459837
0.528365
0.51973
0.490212
0.493769
0.556676
0.554615
0.61729
0.49017
0.488234
0.394034
0.393011
0.453628
0.361095
0.428909
0.388691
0.394636
-0.973691
-1.02557
-1.0205
-1.0297
-1.02829
-0.972789
-0.943823
-0.934933
-0.881177
-0.829593
-0.843907
-0.818168
-0.82224
-0.874944
-0.903292
-0.855768
-0.863131
-0.896573
0.556016
0.555227
0.589317
0.538668
0.540135
0.52773
0.564769
0.560311
0.560927
0.558401
0.559584
0.585029
0.522602
0.525946
0.524233
0.522499
0.583307
0.615224
0.557946
0.558081
0.533553
0.553655
0.60985
0.50448
0.495882
0.593096
0.536723
0.534418
0.541082
0.538912
0.594722
0.586948
0.529202
0.52632
0.532009
0.529922
0.588085
-1.22477
-1.20594
0.595376
0.543747
0.545717
0.539721
0.541415
0.595386
0.55375
0.544518
0.536493
0.570624
0.586993
0.525482
0.52884
0.525837
0.523462
0.59073
0.592228
0.536182
0.538015
0.53207
0.534506
0.590881
0.56085
0.560551
0.56247
0.560913
0.553943
0.552829
0.557837
0.557937
-1.18953
-1.2145
-1.2958
-1.34867
-1.34771
-1.34671
-1.34799
-1.2951
0.433794
0.530597
0.534725
0.479009
0.451429
0.515905
0.522457
0.505074
0.501778
0.615352
0.556832
0.559125
0.612144
0.556941
0.541313
0.560378
0.560202
0.613986
0.512146
0.508393
0.516746
0.519066
0.470081
0.488066
0.502599
-0.940782
-0.99509
-0.997316
-0.984245
-0.990127
-0.933898
-0.885528
-0.894186
-0.857008
-0.824249
-0.820098
-0.859066
-0.94544
-0.997942
-1.00392
-0.996232
-0.995276
-0.939098
0.328663
0.383472
0.38188
0.388838
0.386157
0.333256
0.336189
0.398648
0.407102
0.383232
0.389219
0.324538
0.300176
0.365562
0.365301
0.36235
0.3648
0.344764
0.38842
0.390251
0.366247
0.374057
0.341599
-0.679999
-0.683138
-0.628393
-0.552447
-0.582666
0.211367
0.214572
0.32064
0.260547
0.250056
0.274668
0.272351
0.325219
0.227987
0.226785
-0.103191
-0.114408
3.231
2.09546
2.31482
1.64252
0.278415
0.493676
-0.178881
-1.57088
-1.3384
-2.04218
-3.20503
-3.194
5.085
3.9535
4.16169
3.49944
2.13484
2.10111
1.68024
0.207711
0.284244
-0.02138
-1.58615
-1.5783
-2.06021
-3.46942
-3.44562
-3.93075
-5.07598
-5.06456
5.08413
3.94924
3.95549
3.49737
2.03784
2.14623
1.82678
1.16226
1.1278
0.0173644
-0.74297
-0.749915
-1.97137
-2.55683
-2.54391
-3.96448
-5.10052
-5.08722
5.07106
3.92373
3.94432
3.48317
3.02778
3.03825
1.79578
1.57164
1.58534
-2.07112
-2.74675
-2.71828
-4.00544
-5.12528
-5.11287
5.05573
3.90185
3.91707
3.44985
2.98631
2.99495
1.70953
1.47317
1.48168
-2.16952
-2.81555
-2.7929
-4.03387
-5.14366
-5.13598
5.04943
3.89772
3.89921
3.43478
2.96981
2.97115
1.67961
1.44198
1.44254
-2.19298
-2.8349
-2.83296
-4.03175
-5.14488
-5.14682
5.05357
3.90912
3.89949
3.44163
2.98037
2.97576
1.70016
1.46704
1.462
-2.14432
-2.80123
-2.8172
-4.0023
-5.12735
-5.13813
5.06344
3.92641
3.91336
1.74543
1.51763
1.51033
-2.06889
-2.74162
-2.76498
-3.96046
-5.09873
-5.11379
5.0731
3.93925
3.93044
-1.99654
-2.57164
-2.58653
-3.91979
-5.06724
-5.083
5.06813
4.15145
4.16168
3.46115
2.10281
2.11809
1.76885
1.09625
1.10373
0.0318324
-0.306798
-0.351485
-2.0343
-3.42411
-3.452
-4.11803
-5.03453
-5.05145
5.05138
4.14068
4.14375
3.23056
2.09327
2.10028
1.63777
0.26768
0.28653
-0.190508
-1.56949
-1.56751
-2.02941
-3.18021
-3.41858
-4.10053
-5.02032
-5.02466
3.22619
2.31598
2.31843
1.39981
0.492099
0.262868
-0.422929
-1.34504
-1.57031
-2.25901
-3.17913
-3.17795
1.49132
1.5022
1.73593
-1.89736
-1.6271
-1.65128
-1.55734
-1.57802
-1.81042
1.444
1.44643
1.68429
-1.97576
-1.71345
-1.72004
-1.65828
-1.67738
-1.9379
1.45727
1.45297
1.68814
-1.96628
-1.70383
-1.69251
-1.72115
-1.72299
-1.98275
1.5034
1.497
1.72695
-1.89657
-1.6245
-1.66497
-1.68794
-1.67346
-1.94422
-1.8149
-1.589
-1.57869
-1.65498
-1.64354
-1.86601
1.10831
1.13386
1.79771
0.162088
0.295939
0.289528
-0.0641955
-0.0939148
0.101308
-1.56846
-1.55804
-1.7858
1.10971
1.17196
1.82748
0.420488
0.450779
0.475272
0.899706
0.939808
0.263789
0.26146
0.354065
-1.76139
-1.52159
-1.53735
-0.992688
-0.992335
-1.73188
3.00506
3.01627
3.47417
1.98922
2.55931
2.54517
2.58748
2.57399
1.99958
-1.01524
-0.878658
-0.908512
-0.76268
-0.787226
-0.90888
-2.78546
-2.75626
-2.08678
-3.54625
-3.09614
-3.11234
-3.06278
-3.07913
-3.53292
2.97433
2.97941
3.44394
1.92833
2.51378
2.50797
2.53254
2.522
1.93295
1.45941
1.46577
1.70271
0.921572
1.04191
1.03881
1.06688
1.06179
0.942061
-1.1134
-1.11375
-1.16486
-2.8326
-2.81955
-2.1765
-3.58788
-3.14894
-3.15576
-3.12697
-3.13934
-3.58026
2.97231
2.97023
3.43466
1.91808
2.50443
2.50745
2.50454
2.50341
1.91656
1.44376
1.4424
1.67983
0.903659
1.02525
1.02676
1.02332
1.02287
0.90137
-2.8231
-2.83168
-2.19024
-3.59456
-3.15749
-3.15209
-3.15946
-3.16003
-3.59676
2.99212
2.98593
3.44592
1.94647
2.52528
2.53311
2.51211
2.51816
1.94158
1.47824
1.4725
1.70502
0.946376
1.29668
1.3055
1.05059
1.05358
0.93598
-1.13273
-1.07186
-1.06987
-2.77301
-2.79383
-2.13545
-3.56583
-3.12276
-3.11
-3.1442
-3.13435
-3.57548
-1.01055
-0.871827
-0.86228
-1.02413
-1.02054
-1.07601
-2.6025
-2.61729
-2.05956
-3.51947
-3.0687
-3.0548
-3.09645
-3.08251
-3.53166
-0.910863
-0.79591
-0.79032
-0.833759
-0.827276
-0.940752
1.19896
1.09325
1.65395
0.191618
0.868605
0.860332
0.5022
0.497187
0.147632
-0.746177
-0.739801
-0.0383576
-1.57097
-0.9773
-1.09832
-1.02479
-0.985199
-1.7013
0.957135
1.0777
1.07207
1.3562
1.33428
0.976852
1.74645
1.51424
1.52765
0.873241
0.71616
0.73178
0.977452
0.867789
0.885272
0.772899
0.785326
0.904852
-1.15383
-1.1035
-1.11
-1.0215
-1.03017
-1.08229
-1.64475
-1.66407
-1.88259
-1.16881
-1.27473
-1.26092
-1.33611
-1.32807
-1.22364
0.903059
1.0248
1.0239
1.03594
1.03304
0.911628
1.68748
1.44976
1.45411
0.823151
0.76265
0.766015
0.747392
0.747601
0.810986
0.768135
0.769667
0.829495
-1.70062
-1.71092
-1.97073
-1.26748
-1.31506
-1.31198
-1.22365
-1.3521
-1.34478
-1.30982
-1.30543
-1.25646
-1.94813
-1.68258
-1.69689
0.926318
1.04435
1.0474
1.02882
1.03107
0.911792
1.68502
1.44919
1.4461
0.817101
0.755518
0.752114
0.782126
0.779712
0.840045
0.80961
0.747149
0.747389
0.749487
0.748004
0.812479
-1.71616
-1.70757
-1.97201
-1.29547
-1.29819
-1.24808
-1.98216
-1.72235
-1.71863
0.849072
0.703868
0.696945
0.758496
0.754603
0.870668
0.846084
0.786717
0.784675
0.695074
0.6893
0.837289
-1.08545
-1.02934
-1.02702
-1.07162
-1.07354
-1.12767
-1.64699
-1.63036
-1.90671
-1.17708
-1.31463
-1.32035
-1.27724
-1.28341
-1.17295
-1.23541
-1.28705
-1.29111
-1.32605
-1.33246
-1.19718
-1.93548
-1.66823
-1.65253
0.924732
0.813426
0.808728
0.837124
0.833969
0.943966
0.884094
0.768404
0.763073
0.803914
0.79866
0.910604
-0.959646
-0.846784
-0.840252
-0.859057
-0.850671
-0.991706
-1.15384
-1.26474
-1.27104
-1.45113
-1.46841
-1.1351
-1.85554
-1.63229
-1.62132
0.973409
0.647026
0.637775
0.612798
0.642429
0.969839
0.95248
0.842406
0.839826
-0.879933
-0.524953
-0.495957
1.54208
1.557
1.78293
1.04815
1.3878
1.36361
1.36619
1.34941
1.06127
-0.30898
-0.339571
-0.40945
1.98973
2.55808
2.56569
2.5414
2.54984
1.98436
1.53193
1.52487
1.75177
1.01284
1.29826
1.30637
1.28156
1.28991
1.00786
-0.498989
-0.439139
-0.436412
-0.460883
-0.459864
-0.517845
-2.54433
-2.55777
-1.98857
0.593347
0.542776
0.566625
0.418889
0.430363
0.501738
-1.06768
-1.4124
-1.37767
-1.46361
-1.4254
-1.08736
-1.82898
-1.60042
-1.62293
0.976987
1.32284
1.27477
1.30922
1.31899
0.973007
1.72109
1.49048
1.48425
0.524473
0.469187
0.465965
0.478195
0.475727
0.532871
-0.528874
-0.471935
-0.46526
-1.61044
-1.59967
-1.82493
-1.09116
-1.42812
-1.44544
-1.35169
-1.42263
-1.08497
0.538603
0.482821
0.480676
0.487248
0.486285
0.542676
-1.04247
-1.3301
-1.34142
-1.30938
-1.31936
-1.03674
-1.77651
-1.54805
-1.53861
0.57067
0.607846
0.285129
1.02176
0.710008
0.676035
0.703679
0.718335
1.02163
-0.854152
-0.721868
-0.740712
-0.425178
-0.412664
-0.818757
0.15402
-0.272437
-0.296894
-0.831062
-0.867778
-0.995608
-0.518171
-0.660983
-0.632669
-0.650026
-0.633392
-0.57862
-0.931757
-0.813473
-0.837371
-0.883673
-0.874056
-1.01678
-1.05889
-1.00354
-1.00082
-0.474759
-0.416139
-0.412754
-0.434593
-0.431675
-0.490496
-0.56976
-0.713423
-0.719916
-0.700076
-0.706762
-0.565947
-0.934515
-0.820779
-0.814281
0.701099
0.71194
0.864298
0.841714
0.683666
0.696944
0.489261
0.555435
0.549239
0.607459
0.59666
0.530971
0.918103
0.80016
0.814673
-1.072
-1.07688
-1.12953
-1.11262
-1.0608
-1.06661
0.748471
0.74904
0.814167
0.811997
0.748183
0.748367
0.77705
0.778877
0.841629
0.835615
0.774509
0.775789
-1.31685
-1.31414
-1.25527
-1.60391
-1.49931
-1.50248
-1.49282
-1.49547
-1.60051
-1.61554
-1.51082
-1.51298
-1.50543
-1.50828
-1.61302
-1.26482
-1.32313
-1.31983
-1.28892
-1.28578
-1.23404
-1.56655
-1.46293
-1.46886
-1.44928
-1.45641
-1.5601
-1.58816
-1.48413
-1.48879
-1.47416
-1.47921
-1.58331
-1.23737
-1.29172
-1.2894
0.769895
0.768706
0.827614
0.831494
0.772159
0.771139
0.746293
0.746539
0.809728
0.809358
0.746263
0.746331
-1.31072
-1.31461
-1.25383
-1.60917
-1.50075
-1.49649
-1.50828
-1.50474
-1.61274
-1.59217
-1.4851
-1.48287
-1.49224
-1.48853
-1.59686
-1.24108
-1.30317
-1.30681
-1.62214
-1.51678
-1.517
-1.51473
-1.51604
-1.62125
-1.62026
-1.5137
-1.51134
-1.51653
-1.5155
-1.62175
0.74133
0.706438
0.853257
0.499249
0.554933
0.556822
0.53821
0.539189
0.478233
0.865884
0.74968
0.744887
0.833124
0.686668
0.677777
-1.05116
-1.04847
-1.10305
-1.10993
-1.05435
-1.05273
-1.2671
-1.26799
-1.21352
-1.57128
-1.46405
-1.45841
-1.47686
-1.47027
-1.57662
-1.54951
-1.44152
-1.43563
-1.45297
-1.44737
-1.55518
-1.21005
-1.26381
-1.26529
0.500829
0.443908
0.444296
0.461815
0.456362
0.514053
0.780351
0.774294
0.889226
0.518253
0.577508
0.581585
0.558199
0.559492
0.499912
0.544011
0.686556
0.692413
0.672411
0.679602
0.539606
0.905328
0.792774
0.786549
0.474238
0.416206
0.413471
0.443749
0.441684
0.495548
-0.859671
-0.853407
-0.965922
-0.601237
-0.658646
-0.661229
-0.639534
-0.643167
-0.585859
-0.662791
-0.665052
-0.603908
-0.985464
-0.872297
-0.866073
0.530263
0.389196
0.385065
0.401473
0.392011
0.534173
0.546661
0.489851
0.488468
-0.425582
-0.281283
-0.264477
-0.409561
-0.40654
-0.464561
2.13435
2.58268
2.58303
2.57244
2.5782
2.01873
1.12607
1.3473
1.35105
1.33881
1.3432
1.12163
-0.264243
-0.260053
-0.0224131
-0.751287
-0.500408
-0.49986
-0.488072
-0.515888
-0.770572
1.04782
1.32784
1.33371
1.31408
1.32126
1.04417
1.76984
1.54512
1.53871
0.221469
0.231002
0.197195
0.515706
0.404631
0.383933
0.398003
0.401269
0.509419
-0.376043
-0.244081
-0.22323
-0.254085
-0.257178
-0.385712
0.112407
-0.0188836
-0.0482986
0.422149
0.484101
0.33403
0.62984
0.536316
0.521525
0.507432
0.530749
0.628716
-0.345573
-0.263817
-0.283624
-0.123436
-0.0677626
-0.276824
0.266902
0.0180513
0.0288758
1.04871
1.04511
0.924618
1.28465
1.16528
1.16904
1.15894
1.16216
1.28243
-1.16716
-1.11356
-1.11542
1.02336
1.02408
0.902487
1.26358
1.1442
1.14364
1.14661
1.1454
1.26545
1.26269
1.14309
1.14369
1.14305
1.14311
1.26356
0.901243
1.02278
1.02286
-1.08368
-1.07708
-1.13728
-0.807831
-0.8017
-0.916412
-0.571606
-0.687385
-0.69364
-0.675238
-0.681173
-0.565669
0.880616
0.659389
0.610108
0.649743
0.654413
0.876739
0.210217
0.428878
0.42407
0.831263
0.849367
0.962541
0.596179
0.737708
0.715219
0.781225
0.760682
0.613035
-1.08915
-1.09603
-1.14839
-1.29861
-1.28713
-1.18197
-1.49785
-1.39214
-1.40344
-1.36771
-1.38045
-1.48762
-1.53727
-1.43286
-1.44132
-1.41384
-1.4238
-1.52859
-1.21427
-1.31886
-1.30911
1.02714
1.02581
0.903962
1.26593
1.14627
1.14784
1.14419
1.14529
1.26585
1.27315
1.15356
1.15632
1.14931
1.15145
1.27203
0.908496
1.03064
1.02863
0.754506
0.758469
0.821117
0.632038
0.695309
0.689427
0.706988
0.702378
0.643862
0.620057
0.684015
0.684057
0.683975
0.683925
0.619673
0.810611
0.747633
0.74792
0.652704
0.710591
0.709501
0.711285
0.711003
0.652278
0.830119
0.770595
0.771631
-1.3137
-1.31533
-1.26624
-1.41734
-1.36882
-1.36833
-1.43781
-1.38452
-1.38642
-1.38087
-1.3829
-1.43724
1.2687
1.15023
1.14846
1.15457
1.15247
1.27137
0.914929
1.03348
1.03591
0.76259