/*--------------------------------*- C++ -*----------------------------------*\
| =========                 |                                                 |
| \\      /  F ield         | OpenFOAM: The Open Source CFD Toolbox           |
|  \\    /   O peration     | Version:  5.x                                   |
|   \\  /    A nd           | Web:      www.OpenFOAM.org                      |
|    \\/     M anipulation  |                                                 |
\*---------------------------------------------------------------------------*/
FoamFile
{
    version     2.0;
    format      ascii;
    class       volScalarField;
    location    "400";
    object      p_rgh;
}
// * * * * * * * * * * * * * * * * * * * * * * * * * * * * * * * * * * * * * //

dimensions      [0 2 -2 0 0 0 0];

internalField   nonuniform List<scalar> 
6584
(
0.00436065
0.00477166
0.00526465
0.00600103
0.00694135
0.00814979
0.00960913
0.0113299
0.013125
0.0148636
0.0160228
0.016045
0.014533
0.0115909
0.00779472
0.00383573
0.000254064
-0.00279673
-0.00523385
-0.00712524
-0.00853696
-0.00958937
-0.0102754
-0.0108235
0.00421607
0.00466567
0.00512928
0.00585892
0.006778
0.00798735
0.0094668
0.0112782
0.0132136
0.0151849
0.0165829
0.016768
0.0152067
0.0120125
0.00792315
0.00365797
-6.35097e-05
-0.00316474
-0.00557946
-0.00742647
-0.0087814
-0.0098007
-0.010434
-0.0110207
0.00390559
0.00436261
0.00477034
0.00546053
0.00632448
0.0075204
0.00904988
0.0111146
0.0133692
0.0154677
0.018137
0.0193607
0.018208
0.014552
0.00952056
0.00302219
-0.00103379
-0.00423099
-0.00656285
-0.00826171
-0.00945906
-0.0103602
-0.0108809
-0.0114432
0.00349834
0.00392108
0.00424655
0.00485133
0.00560888
0.00672604
0.00828023
0.0106029
0.0137129
0.0167204
0.0210363
0.023969
0.0230618
0.0176393
0.0104049
0.00385165
-0.00270714
-0.00599662
-0.00811716
-0.00953016
-0.0104671
-0.0111613
-0.0115183
-0.0119832
0.00302657
0.00337364
0.00358607
0.0040413
0.00461258
0.00551231
0.0069275
0.00929055
0.0122081
0.0176283
0.0245166
0.0310682
0.0309752
0.0216949
0.010198
0.00152341
-0.00397236
-0.00873982
-0.0103683
-0.011219
-0.0117596
-0.0121402
-0.0122834
-0.0125829
0.00251868
0.00274905
0.0028159
0.00304391
0.00331975
0.00373838
0.00471353
0.00620455
0.0100476
0.0160725
0.0260722
0.0428419
0.0491065
0.0303307
0.00726527
-0.00379627
-0.0089198
-0.0123674
-0.0131915
-0.0132484
-0.0132624
-0.0132284
-0.0131144
-0.0131865
0.00201587
0.00209623
0.00199621
0.00193444
0.00183253
0.00159421
0.00182646
0.0026608
0.00445677
0.00921955
0.0222517
0.0536316
0.0953728
0.032184
-0.000691942
-0.0141474
-0.0161406
-0.017029
-0.0164646
-0.0154812
-0.0148467
-0.0143203
-0.0139242
-0.0137227
0.00156471
0.00147884
0.00121304
0.000837439
0.000313387
-0.000675609
-0.00156665
-0.00189678
-0.00358097
-0.00473869
-0.000718973
0.0197282
-0.0110652
-0.0296672
-0.0302259
-0.0255855
-0.0221564
-0.019802
-0.0176533
-0.0163179
-0.0152779
-0.0146083
-0.0141154
0.00120843
0.000964523
0.000563657
-8.88469e-05
-0.000992363
-0.00264357
-0.00467925
-0.00655503
-0.0121256
-0.0217013
-0.0358351
-0.073135
-0.124205
-0.0697346
-0.0475273
-0.0348875
-0.0266217
-0.0225247
-0.0193732
-0.0174282
-0.0159473
-0.0150591
-0.0142959
0.000978748
0.000611579
0.000136675
-0.000687627
-0.00181329
-0.00380153
-0.00653582
-0.00956754
-0.0172945
-0.0314734
-0.0552171
-0.109928
-0.175871
-0.0936319
-0.0574098
-0.0404548
-0.0290776
-0.023909
-0.0202426
-0.0179438
-0.0161926
-0.015186
-0.0142151
0.000887936
0.000452207
-1.92585e-05
-0.000870347
-0.00199505
-0.00388039
-0.00659412
-0.00988267
-0.0169749
-0.0294589
-0.0502156
-0.0917931
-0.154613
-0.0891244
-0.0554883
-0.0401423
-0.0287281
-0.0235654
-0.0200425
-0.0177356
-0.0159407
-0.0149408
-0.0138545
0.000925301
0.000481953
8.53137e-05
-0.000655063
-0.00157471
-0.00299145
-0.00504581
-0.00769283
-0.0120318
-0.0185542
-0.0285229
-0.0440275
-0.0913875
-0.0637795
-0.0441086
-0.0345725
-0.0258007
-0.0216347
-0.018821
-0.0168322
-0.0152084
-0.014333
-0.0132331
0.00106065
0.000662324
0.000386819
-0.000153535
-0.000748805
-0.00153302
-0.00262517
-0.00414162
-0.00526937
-0.00539006
-0.00404685
0.00646039
-0.0279934
-0.0333354
-0.0292872
-0.0263151
-0.0213311
-0.0186905
-0.0168589
-0.015399
-0.0141001
-0.013425
-0.0124014
0.00125367
0.000935209
0.000794684
0.000481357
0.000224861
3.82601e-05
-0.000188294
0.000554776
0.000466575
0.00459407
0.0110888
0.0316436
0.0892883
0.0119122
-0.0102524
-0.0163889
-0.0180997
-0.0165296
-0.0154135
-0.0145389
-0.0136706
-0.0127526
-0.0123129
-0.0114277
0.00146408
0.0012404
0.00122131
0.00111174
0.00113319
0.00137028
0.00176899
0.0029463
0.00415094
0.00889014
0.015794
0.0289931
0.0385284
0.0172944
-0.000167006
-0.00792801
-0.0110437
-0.0122023
-0.0123199
-0.0121999
-0.0118652
-0.0113071
-0.0110977
-0.0103824
0.0016589
0.00152887
0.00160248
0.00164881
0.00185909
0.00234157
0.00305146
0.0045539
0.00594541
0.00968219
0.015083
0.0198376
0.0187061
0.012182
0.00341042
-0.00331102
-0.00742521
-0.00894776
-0.00972431
-0.0100737
-0.0101438
-0.00988757
-0.00986941
-0.00933297
0.00181578
0.00176841
0.00190167
0.0020529
0.00236327
0.00296014
0.00372489
0.00528538
0.00701218
0.00880306
0.0115732
0.0131534
0.0157639
0.0101547
0.00387017
-0.001022
-0.00464015
-0.00652895
-0.00762113
-0.00825281
-0.00859302
-0.0085602
-0.00868749
-0.00831821
0.00192257
0.00194254
0.00210499
0.00231754
0.00265419
0.00326836
0.00393321
0.00524942
0.00651486
0.00872989
0.00892025
0.0113606
0.00828618
0.00717848
0.00275196
-0.000599047
-0.00277963
-0.00482882
-0.00597046
-0.00675505
-0.00724744
-0.00737088
-0.00759425
-0.00736989
0.00197548
0.00204725
0.00221491
0.00245765
0.00277116
0.00335266
0.00385334
0.00495268
0.00549086
0.00743111
0.00554934
0.00946552
0.0085139
0.00236009
0.00270793
-0.000494209
-0.00194025
-0.00374157
-0.00474069
-0.00556693
-0.00611343
-0.00633739
-0.00661285
-0.0065084
0.00197658
0.00208685
0.00224345
0.00249845
0.00276279
0.00330239
0.003629
0.0046156
0.00468359
0.00653784
0.00516082
0.00728169
0.0065902
0.00241414
0.00251395
-0.000423074
-0.0013509
-0.00298409
-0.00381308
-0.00463074
-0.0051697
-0.00545502
-0.0057493
-0.00574073
0.00193134
0.00206984
0.00220552
0.00246387
0.00266667
0.00316857
0.00333414
0.00423773
0.00402694
0.00558188
0.0044119
0.00518735
0.00465736
0.00201947
0.00208912
-0.000380732
-0.000941694
-0.00243949
-0.0030996
-0.00389008
-0.00438705
-0.00470918
-0.00499903
-0.00506562
0.00184683
0.0020061
0.00211554
0.0023735
0.00251092
0.0029799
0.0030073
0.00382428
0.0034417
0.00468617
0.00364282
0.00392649
0.00350266
0.00152709
0.00164167
-0.00039176
-0.000699213
-0.00205296
-0.00255164
-0.00330409
-0.00373942
-0.00408247
-0.00435254
-0.00447725
0.00173074
0.0019057
0.00198698
0.00224372
0.00231831
0.00275949
0.00267813
0.00341491
0.0029432
0.00395513
0.00305004
0.00306234
0.00271941
0.00115767
0.00127841
-0.000415876
-0.000556186
-0.00177091
-0.0021285
-0.00283818
-0.00320314
-0.00355689
-0.00379787
-0.00396704
0.00159073
0.00177806
0.00183167
0.00208783
0.00210615
0.00252453
0.00236295
0.00302909
0.00252107
0.00335292
0.00256702
0.00239741
0.00211778
0.000859752
0.000980539
-0.000440068
-0.000468813
-0.00155635
-0.00179694
-0.0024632
-0.00275702
-0.00311509
-0.0033222
-0.00352508
0.00143393
0.00163153
0.00165941
0.00191606
0.00188636
0.00228594
0.0020682
0.00267207
0.00215882
0.00284817
0.0021671
0.00188453
0.00165289
0.000613658
0.000734029
-0.000461832
-0.000415021
-0.00138732
-0.00153267
-0.00215663
-0.00238284
-0.00274107
-0.00291271
-0.00314088
0.00126682
0.00147323
0.00147811
0.00173613
0.00166706
0.0020509
0.00179628
0.00234588
0.00184667
0.00242367
0.00183023
0.00148165
0.00129208
0.000417493
0.000534356
-0.00047814
-0.00038051
-0.00124938
-0.00131812
-0.00190116
-0.00206542
-0.00242087
-0.0025576
-0.00280434
0.00109507
0.00130911
0.00129399
0.00155385
0.00145359
0.00182388
0.00154747
0.00205017
0.00157681
0.00206881
0.00154734
0.00116591
0.00101713
0.000262073
0.00037465
-0.000487855
-0.000355939
-0.00113196
-0.0011395
-0.0016837
-0.00179238
-0.00214292
-0.00224631
-0.00250586
0.000923631
0.00114408
0.00111189
0.0013735
0.00124923
0.00160743
0.00132075
0.00178336
0.00134118
0.00176969
0.00131168
0.000916251
0.000796594
0.000130373
0.00024823
-0.00048884
-0.000332924
-0.00102605
-0.000985067
-0.00149235
-0.00155241
-0.00189599
-0.00196863
-0.00223618
0.000756807
0.00098204
0.000935446
0.00119794
0.00105594
0.00140264
0.0011143
0.0015432
0.0011336
0.00151329
0.00111114
0.000710821
0.000617842
2.69413e-05
0.000150605
-0.000481726
-0.000308329
-0.000927241
-0.000847349
-0.00131925
-0.00133699
-0.00167159
-0.00171609
-0.00198737
0.000598349
0.000826169
0.000767503
0.00102918
0.000874556
0.00120949
0.000925399
0.00132543
0.000949632
0.00129157
0.000938925
0.00054056
0.000472489
-5.27207e-05
7.69606e-05
-0.000466091
-0.000279706
-0.000831629
-0.000720521
-0.00115782
-0.00113888
-0.00146211
-0.001481
-0.00175175
0.000451613
0.000678827
0.000610067
0.00086814
0.000705283
0.00102789
0.000751228
0.00112462
0.000783373
0.0010962
0.000788554
0.000398239
0.000353823
-0.000112291
2.37672e-05
-0.000441134
-0.000245319
-0.000735701
-0.000599771
-0.00100267
-0.000952242
-0.00126104
-0.00125683
-0.00152229
0.000319769
0.000541817
0.000464908
0.000714947
0.000548185
0.000856114
0.000590451
0.000937716
0.000630779
0.000919911
0.000654237
0.000278076
0.000256021
-0.00015425
-1.19309e-05
-0.000406282
-0.000204417
-0.000636821
-0.000482178
-0.000849453
-0.000772747
-0.00106309
-0.00103835
-0.00129288
0.000205831
0.000415677
0.000333217
0.000568802
0.000402415
0.000689296
0.000440156
0.000758474
0.00048703
0.000754476
0.000529928
0.000176111
0.000175484
-0.000177922
-3.15195e-05
-0.000359303
-0.000156884
-0.000531702
-0.000365662
-0.000693471
-0.000596713
-0.000862214
-0.000820073
-0.0010559
0.000113239
0.000301817
0.000217509
0.000430109
0.000270193
0.000527511
0.000301642
0.000584501
0.000351126
0.000594359
0.00040922
8.81919e-05
0.00010728
-0.000183352
-3.76127e-05
-0.000299793
-0.000105056
-0.000419874
-0.000252228
-0.000534561
-0.000426094
-0.000658681
-0.000603778
-0.000811497
4.44224e-05
0.000190222
0.000114229
0.000281123
0.000146126
0.000348388
0.000166678
0.000388563
0.000209624
0.000409478
0.000276728
2.16163e-05
5.42278e-05
-0.000155763
-2.88148e-05
-0.000214067
-5.02141e-05
-0.000284816
-0.000138441
-0.000352389
-0.00025034
-0.000427822
-0.000370456
-0.000528016
4.87098e-06
0.000108806
4.74328e-05
0.000169068
6.52264e-05
0.000213021
7.81003e-05
0.00023916
0.000108816
0.000258985
0.000136342
-5.13807e-05
-1.02729e-05
-0.000116635
-1.42148e-05
-0.00013291
-7.34016e-06
-0.000171204
-5.5752e-05
-0.000207029
-0.00012232
-0.000248193
-0.000197611
-0.000307704
-0.06432
-0.122272
-0.00649759
-0.108606
-0.188144
-0.13541
-0.0963551
-0.171006
-0.19058
-0.0508106
-0.104637
-0.164228
0.0013728
-0.0334747
-0.0953787
0.0304775
0.0995891
0.0935134
0.0149551
-0.025624
0.0304867
0.0958484
0.00877085
0.0431647
-0.0277006
-0.0567415
0.0154885
-0.0944598
0.0438924
-0.112592
-0.0679474
-0.0296849
-0.0527291
-0.0985331
-0.0647478
-0.0940255
-0.136376
-0.107386
-0.23403
-0.194373
-0.17331
-0.103593
-0.0794363
-0.053549
-0.0890496
-0.0997787
-0.108814
-0.146652
-0.151805
-0.263416
-0.267274
-0.160838
-0.104704
-0.107213
-0.0347979
-0.0481992
-0.0849329
-0.0759831
-0.0939532
-0.119553
-0.169035
-0.213026
-0.0998224
-0.0773775
-0.0997615
-0.0694914
-0.113388
-0.035176
-0.0410134
-0.0683718
0.0181478
-0.0177326
0.0318926
0.0297411
0.0911967
0.031037
0.0248351
0.0171637
-0.102085
-0.050369
-0.0318488
-0.0557168
-0.109495
0.0571211
-0.0456678
-0.190529
-0.106622
-0.0765295
-0.10173
-0.186578
-0.151167
-0.139215
-0.0989846
-0.143946
-0.157292
-0.114747
-0.143189
-0.264724
-0.236001
-0.173116
-0.234929
-0.25396
-0.189694
-0.233055
-0.165698
-0.122938
-0.144171
-0.106652
-0.149894
-0.125493
-0.156962
-0.151838
-0.215402
-0.261263
-0.186469
-0.249897
-0.215941
-0.255444
-0.251837
-0.189527
-0.0929976
-0.0613481
-0.123323
-0.097266
-0.116668
-0.165293
-0.131413
-0.162317
-0.116074
-0.213215
-0.165521
-0.140205
-0.0135045
0.015623
-0.0565977
-0.0184337
-0.0233001
-0.0636665
-0.110061
-0.0691417
-0.0676954
0.0390534
0.0546018
0.0182768
0.0371778
0.0457206
0.0217535
-0.0193206
-0.0399387
0.0507495
-0.0444368
0.113504
-0.00963705
-0.000929152
-0.0420438
-0.0232312
-0.0193494
-0.0552569
0.00892945
-0.0135176
0.00979048
-0.0115478
-0.0324811
0.109065
-0.0169589
0.0352961
-0.0878264
-0.0590466
-0.0598364
-0.0898861
-0.0700318
-0.0875374
-0.0708995
0.0104797
0.0277914
-0.0684331
-0.0451065
-0.0171115
-0.040832
-0.0588641
-0.0634013
-0.0247133
0.0285902
0.0361465
-0.019507
0.0146608
-0.00425305
0.1583
0.104752
0.0711388
0.0604376
0.100365
0.158638
-0.0628305
-0.0386084
-0.060078
0.102074
-0.042169
-0.0184179
-0.222179
-0.218978
-0.269437
-0.269613
-0.190843
-0.193729
-0.0870029
-0.0717139
-0.0903969
0.0339164
0.0118327
-0.0142866
0.0074685
-0.00138767
-0.0918208
-0.0833828
-0.115584
-0.0877623
-0.117564
-0.0907258
-0.0823003
-0.0227195
-0.00522493
-0.0307025
-0.0864651
-0.157552
-0.152876
-0.152582
-0.152639
-0.129423
-0.130759
-0.256999
-0.256912
-0.2451
-0.212075
-0.201549
-0.222054
-0.214853
-0.245862
-0.212295
-0.177879
-0.158562
-0.197588
-0.183327
-0.215614
-0.140716
-0.138423
-0.158079
-0.157074
-0.244993
-0.246469
-0.235215
-0.211217
-0.220498
-0.193688
-0.207291
-0.233368
-0.258447
-0.22654
-0.223718
-0.22284
-0.226374
-0.258344
-0.0895129
-0.0804144
-0.0900937
-0.106042
-0.0704374
-0.0874962
-0.075806
-0.113214
-0.107885
-0.108909
-0.138679
-0.142024
-0.191798
-0.1736
-0.18851
-0.152531
-0.168388
-0.18795
-0.0112778
0.0082788
-0.0405839
-0.0448581
-0.0675164
-0.0135714
-0.0401238
-0.0349589
-0.0397388
-0.0133471
-0.0404147
-0.0415902
-0.0176194
-0.0683203
-0.0439093
-0.0464367
-0.0429988
0.0486858
0.0623055
0.0755653
0.0371279
0.0452823
0.0878564
0.0557855
0.0363679
0.212628
0.00869494
0.0231065
0.00376076
0.0191222
0.0320776
0.0173888
0.061421
0.0445059
0.0474413
0.159259
0.0135085
-0.014657
-0.0165721
0.0298153
0.0320793
0.0755194
0.0618565
0.0744733
0.0340026
0.0341742
0.0680376
0.0599787
0.0829004
0.238712
0.169991
0.123589
0.133233
0.175215
0.242061
-0.126213
-0.104936
-0.115906
-0.229534
-0.213979
-0.206575
-0.151319
-0.129814
-0.127726
-0.129877
-0.131295
-0.152005
-0.26702
-0.268026
-0.178959
-0.204417
0.0410149
0.0345445
0.00377662
0.0102411
0.0294083
0.0555927
0.0489022
0.0626613
0.0101927
-0.0107001
0.102005
-0.177513
-0.20055
-0.212045
-0.141418
-0.116145
-0.0830078
-0.151197
-0.125082
-0.152385
-0.14771
-0.125762
-0.13031
-0.117556
-0.125212
-0.146127
-0.148951
-0.162813
-0.155534
-0.169759
-0.168694
-0.155205
-0.153967
-0.150459
-0.137992
-0.262671
-0.244636
-0.240534
-0.223574
-0.221972
-0.241858
-0.237437
-0.251166
-0.125251
-0.120313
-0.136222
-0.146816
-0.155361
-0.160019
-0.158366
-0.171393
-0.17004
-0.16352
-0.168694
-0.154561
-0.228263
-0.256086
-0.24447
-0.234108
-0.238182
-0.204021
-0.211979
-0.224614
-0.257155
-0.245051
-0.241776
-0.240548
-0.242918
-0.255718
-0.126191
-0.129336
-0.120089
-0.174358
-0.16366
-0.154877
-0.141607
-0.130974
-0.147131
-0.109672
-0.125462
-0.135055
0.000402455
0.00591486
-0.0113577
0.0242706
0.0118092
0.00453655
0.0496894
0.0569706
0.0271403
0.0338214
0.0270554
0.041934
0.0476194
0.0524639
0.0443946
0.0174968
0.159069
0.0423243
0.0116947
-0.00128743
-0.000671475
0.0137469
-0.00312973
-0.00454018
0.0485103
0.0462754
0.15049
0.0193243
0.0296518
-0.0831826
-0.0778284
0.0170931
0.0280212
0.0196654
0.0249507
0.0141492
0.0324004
0.027195
0.0216347
-0.0598796
-0.055398
-0.0264074
-0.0299345
0.0315024
0.0335468
0.0335397
0.0348411
0.0379494
-0.0996582
-0.0792124
-0.0400513
-0.119962
-0.090282
-0.110096
-0.228035
-0.210037
-0.268297
-0.269595
-0.181924
-0.201604
-0.0847052
-0.0815349
-0.0913376
-0.0691215
-0.0785559
-0.0803111
-0.106649
-0.116258
-0.0945476
-0.103027
0.0244741
0.0312793
0.0390165
0.0147066
0.0273587
0.0216832
0.0268219
0.0156587
-0.105749
-0.0891973
-0.100738
-0.0688349
-0.0847894
-0.102123
-0.11677
-0.124302
-0.10423
-0.114157
-0.0601988
-0.0435257
-0.0634629
-0.0616334
-0.0692055
-0.17585
-0.197282
-0.173995
-0.186398
-0.152722
-0.129154
-0.182612
-0.159109
-0.133885
-0.153522
-0.171378
-0.165743
-0.163496
-0.14932
-0.164668
-0.169073
-0.159117
-0.164534
-0.172907
-0.173683
-0.169549
-0.17096
-0.155279
-0.1677
-0.16617
-0.140253
-0.147134
-0.126894
-0.137259
-0.155261
-0.157773
-0.148963
-0.154148
-0.137039
-0.149106
-0.143855
-0.262109
-0.252898
-0.231095
-0.224708
-0.24239
-0.250172
-0.237154
-0.231708
-0.149741
-0.156159
-0.145016
-0.158848
-0.152511
-0.171885
-0.159984
-0.143891
-0.13183
-0.150504
-0.145201
-0.171497
-0.171352
-0.157743
-0.175732
-0.176509
-0.173886
-0.175877
-0.173717
-0.171005
-0.175892
-0.174059
-0.156018
-0.169298
-0.171123
-0.236274
-0.252944
-0.225948
-0.231383
-0.24181
-0.226918
-0.215604
-0.22298
-0.246215
-0.24449
-0.258045
-0.256864
-0.244752
-0.245043
-0.0956481
-0.0963974
-0.0898849
-0.0851263
-0.101084
-0.0920046
-0.102909
-0.073388
-0.0705059
-0.0663326
-0.0823164
-0.0733375
-0.0766266
-0.126888
-0.119716
-0.128873
-0.129381
-0.112249
-0.109679
-0.104023
-0.117002
-0.109684
-0.11437
-0.142063
-0.132795
-0.129612
-0.137543
-0.145675
-0.119445
-0.133933
-0.151074
-0.151508
-0.160726
-0.146299
-0.00335236
-0.00480551
-0.00815923
0.0101754
-0.00286455
-0.000257617
0.012463
-0.0225754
-0.00970029
-0.0184726
-0.0580307
-0.0573148
-0.0659712
-0.044271
-0.0544314
-0.0547663
-0.0567997
-0.0593028
0.0599736
0.0710435
0.0398441
0.0406379
0.0704506
0.0551869
0.00174669
-0.0179391
0.0046564
0.00164093
0.0195274
0.0357466
0.319147
0.243795
0.212233
0.232505
0.263733
0.326335
0.0360116
0.0809835
0.0499836
-0.087492
-0.102056
-0.122149
-0.232232
-0.242815
-0.244427
-0.265819
-0.267536
-0.10644
-0.0979847
-0.109102
-0.222377
-0.219572
-0.210399
-0.117093
-0.107167
-0.103817
-0.0836473
-0.0650123
-0.0832558
-0.120792
-0.112523
-0.103676
-0.122348
-0.146434
-0.12812
-0.12039
-0.132697
-0.123375
-0.263539
-0.246891
-0.249325
-0.238052
-0.253336
-0.252207
-0.252804
-0.218079
-0.213596
-0.227044
-0.133111
-0.117151
-0.109995
-0.131093
-0.139465
-0.130995
-0.218065
-0.227047
-0.224219
-0.259236
-0.248056
-0.248539
-0.250155
-0.256135
-0.255312
-0.254428
-0.251825
-0.253265
-0.253735
-0.120575
-0.126971
-0.129605
-0.204917
-0.196685
-0.201305
-0.0921535
-0.0882755
-0.104269
0.0498649
0.0521867
0.0434295
0.0361172
0.0292912
0.0463474
0.0477932
0.0347581
0.0494896
0.034312
-0.0335788
-0.0281285
-0.0857092
-0.0704363
-0.072547
-0.073431
-0.0660966
-0.066509
-0.0683812
-0.0470248
-0.0520532
-0.048174
-0.0410825
-0.0384082
-0.0378391
0.0376094
0.034419
0.0322694
0.0926533
0.150203
0.119893
-0.0763026
-0.0776385
-0.0668227
-0.0513254
-0.134755
-0.125978
-0.0272252
0.0120421
0.0195413
-0.227463
-0.235926
-0.225036
-0.215958
-0.218118
-0.22107
-0.271103
-0.27002
-0.19109
-0.187571
-0.187916
-0.196302
-0.204033
-0.197148
-0.0901452
-0.0927937
-0.0692929
-0.0725559
-0.0746943
-0.095477
-0.0986586
-0.100578
-0.103532
-0.0935837
-0.0957897
-0.111518
-0.107743
-0.111037
-0.080202
-0.0857204
-0.0925109
-0.129244
-0.132121
-0.113632
-0.118662
-0.120871
-0.0137306
-0.0376048
-0.0520092
-0.0419514
-0.0453115
-0.0425108
-0.0796123
-0.152442
-0.144341
-0.14198
-0.135452
-0.122028
-0.135239
-0.13756
-0.257973
-0.256616
-0.197332
-0.191219
-0.203181
-0.224821
-0.208661
-0.20318
-0.133343
-0.141663
-0.14764
-0.242442
-0.248088
-0.257705
-0.2577
-0.258583
-0.258779
-0.257582
-0.257542
-0.0914871
-0.0926112
-0.0915912
-0.0892065
-0.105307
-0.102739
-0.105049
-0.117362
-0.124482
-0.117399
-0.125873
-0.124433
-0.134475
-0.132256
-0.109626
-0.109918
-0.10753
-0.123764
-0.123204
-0.185266
-0.191155
-0.201805
-0.177991
-0.172983
-0.179122
-0.0538443
-0.0493743
-0.0434596
-0.061863
-0.0557742
-0.0576042
-0.0309724
-0.0329789
-0.0410926
-0.020711
-0.0270157
-0.0273942
-0.0628603
-0.0632671
-0.0659518
-0.0497488
-0.0454216
-0.0661666
0.0659033
0.0667074
0.0738596
0.0399572
0.0430362
0.0403351
0.0388885
0.0470047
0.0415735
0.0426967
0.0849896
0.067586
0.0424124
0.0508201
0.0474519
0.121407
0.211422
0.0770203
0.030815
0.0313943
0.0682344
0.0939766
0.10197
0.0337511
0.035095
0.0349418
0.0355609
0.0352449
0.0336424
0.100288
0.0906456
0.0737184
0.162643
0.2364
0.205874
-0.241342
-0.241816
-0.230815
-0.218436
-0.210483
-0.203951
-0.222902
-0.21876
-0.267008
-0.267466
-0.183249
-0.185103
-0.175687
-0.179886
-0.207369
-0.216141
-0.212921
0.0376648
0.0395603
0.0427445
0.034539
0.0376185
0.0354037
-0.203937
-0.193208
-0.189768
-0.200692
-0.196906
-0.207835
-0.262711
-0.239698
-0.249951
-0.253643
-0.251847
-0.251229
-0.250169
-0.239446
-0.230999
-0.220958
-0.258762
-0.245012
-0.246886
-0.246678
-0.256512
-0.255856
-0.256521
-0.254982
-0.254462
-0.25529
-0.168699
-0.163874
-0.168667
-0.157902
-0.160626
-0.165248
0.0542655
0.0560651
0.0424915
0.0436801
0.0436553
0.0430344
0.0416017
0.0548062
0.0520316
0.0505091
0.0528436
0.0541587
0.045497
0.0483847
0.0477412
0.00892572
-0.00555784
-0.00681023
0.0218336
0.130485
0.111322
0.14792
0.0502307
0.0686061
0.091151
0.00244795
0.00375428
-9.99957e-05
0.0115268
0.00795375
0.00630798
-0.00836514
-0.00666055
-0.0128078
-0.00345088
-0.00591386
-0.00554237
0.0627909
0.0699218
0.0416248
-0.0140262
-0.0291038
0.0125645
0.00437909
-0.0848412
-0.0750645
-0.0744989
-0.0770013
0.021531
0.025269
0.0131656
0.016747
0.0183245
-0.0638162
-0.0650142
-0.063509
-0.0515797
-0.0463877
-0.0570178
-0.0511917
-0.0597841
-0.0624977
-0.024552
-0.0228072
-0.0239792
-0.0225735
-0.0268538
-0.016294
-0.0194253
-0.0340754
-0.0353337
-0.0314179
0.0355625
0.0362881
0.0359631
0.0364842
0.0364573
0.036504
-0.0935067
-0.0807678
-0.0870777
-0.122614
-0.117816
-0.104588
-0.236757
-0.226268
-0.237806
-0.240145
-0.226843
-0.225643
-0.230565
-0.22844
-0.270004
-0.270626
-0.193479
-0.197303
-0.187747
-0.190606
-0.184854
-0.184344
-0.181321
-0.209997
-0.206801
-0.198919
-0.204351
-0.0811509
-0.087254
-0.077343
-0.0757175
-0.0785692
-0.11013
-0.114073
-0.110549
-0.118934
-0.117029
-0.113335
-0.0974834
-0.0966499
-0.0936112
-0.106596
-0.0998459
-0.0999131
-0.103664
0.0180061
0.0168928
0.0136144
0.022796
0.0190313
-0.101138
-0.101258
-0.104702
-0.10871
-0.098775
-0.0917976
-0.0969034
-0.125134
-0.127088
-0.129075
-0.126592
-0.121701
-0.119604
-0.12297
-0.0640409
-0.0562751
-0.053102
-0.0415594
-0.0772921
-0.0790951
-0.0714331
-0.180757
-0.176629
-0.171134
-0.186786
-0.182323
-0.189027
-0.19865
-0.190299
-0.145653
-0.154783
-0.163179
-0.135804
-0.146428
-0.138102
-0.177336
-0.168442
-0.174074
-0.168048
-0.16614
-0.168373
-0.15993
-0.166212
-0.16517
-0.170828
-0.16876
-0.173274
-0.173437
-0.17007
-0.170516
-0.143076
-0.146132
-0.143067
-0.150577
-0.148604
-0.145269
-0.129683
-0.133764
-0.131512
-0.142989
-0.13603
-0.132651
-0.139746
-0.144548
-0.156262
-0.16039
-0.159354
-0.162263
-0.161464
-0.157157
-0.150591
-0.153868
-0.152588
-0.158378
-0.157001
-0.152674
-0.259252
-0.25446
-0.156687
-0.157618
-0.15791
-0.154787
-0.156699
-0.154518
-0.170091
-0.159117
-0.161225
-0.162419
-0.14141
-0.145937
-0.14652
-0.143091
-0.145318
-0.136981
-0.148564
-0.150928
-0.15281
-0.147395
-0.148852
-0.146688
-0.17545
-0.175401
-0.174009
-0.175799
-0.172416
-0.171539
-0.175136
-0.173841
-0.239242
-0.250366
-0.258694
-0.257647
-0.257105
-0.25627
-0.257048
-0.258082
-0.0931822
-0.0908028
-0.0914437
-0.0939619
-0.104537
-0.0989469
-0.0940418
-0.129386
-0.127595
-0.124524
-0.126315
-0.128137
-0.130334
-0.133329
-0.135345
-0.130441
-0.132479
-0.13116
-0.131195
-0.130945
-0.113128
-0.112302
-0.111109
-0.122434
-0.114697
-0.138929
-0.139415
-0.142342
-0.133047
-0.136315
-0.136009
-0.140595
-0.14257
-0.123179
-0.127465
-0.122292
-0.129912
-0.157066
-0.151481
-0.154831
-0.144987
-0.147986
-0.153036
-0.00617774
-0.00675791
-0.00453936
-0.0100672
-0.00852018
-0.00733213
0.00510385
0.00693545
0.0102081
-0.00140601
0.002711
0.000120966
0.00564421
-0.0233832
-0.019203
-0.0385045
-0.0299652
-0.010176
-0.0125246
-0.0115842
-0.0167357
-0.0150591
-0.0107867
-0.0583987
-0.0612082
-0.0608328
-0.0536694
-0.0621314
0.058258
0.0610492
0.0411176
0.040736
0.0369221
0.0403657
0.0399719
0.0405494
0.0408116
0.0418069
0.0610171
0.0563625
0.026142
0.0357041
0.0280457
0.0394329
0.0444882
0.032292
0.043616
0.0337832
0.0272584
0.0285516
0.0161524
0.0158821
0.0133162
0.0199714
0.0209945
0.0246743
0.0445755
0.0381857
0.0547489
0.0866302
0.0500359
0.0861214
0.0461751
0.036587
0.0335796
0.00880309
0.0139423
0.00325911
-0.00407303
0.000815315
0.0031469
0.00447648
0.0176051
0.00713395
0.0246115
0.0446638
0.0536262
0.086659
0.0747639
0.137121
0.096416
0.0779435
0.0313139
0.0149482
0.0209178
-0.0204378
-0.0199904
-0.0107095
-0.013506
-0.023778
-0.00193175
-0.00957129
-0.0104582
0.000895785
0.00750957
0.0104176
0.0251942
-0.0556297
-0.0504562
-0.0234662
-0.0604265
-0.0440706
-0.031538
-0.0279747
-0.0446784
-0.0303533
-0.0429258
-0.0521787
-0.0436293
-0.0811003
-0.090849
-0.0822243
-0.151935
-0.11844
-0.0957259
-0.0904589
-0.0646403
-0.0556984
-0.0319033
-0.0460966
-0.0468108
-0.0561936
-0.0670192
-0.0662985
-0.11049
-0.12171
-0.121312
-0.176456
-0.139797
-0.136684
-0.0929582
-0.0703293
-0.0696774
-0.0247317
-0.0310535
-0.0434236
-0.0458778
-0.052911
-0.058506
-0.0869112
-0.0937827
-0.0993126
-0.132725
-0.111865
-0.125381
-0.0713011
-0.0598739
-0.0667901
-0.0118318
-0.0101421
-0.0258766
-0.0370931
-0.0386462
-0.0465647
-0.0661996
-0.0618707
-0.0811855
-0.0406681
-0.0406204
-0.0507403
0.000125841
0.00585754
-0.00539233
-0.0082713
-0.0182182
-0.0290716
-0.0148025
-0.0216021
-0.0306217
0.00729549
0.0108775
0.00800011
0.0158387
0.0270603
0.0263984
0.0334815
0.0445587
0.0488413
0.0616353
0.0688117
0.0658739
0.0179429
0.0026898
-0.00661837
-0.00376203
-0.00835987
-0.0141854
0.0096293
0.0129698
0.0124548
0.0161602
0.0206078
0.0254464
0.0219055
0.0230863
0.0393209
0.0229201
0.0172056
0.0227196
0.0145958
0.00725709
0.00385235
0.00249536
-0.00203461
-0.00459213
0.0132048
0.0162933
0.0181384
0.013696
0.019555
0.0185662
0.018982
0.0107408
0.0154514
0.0113608
0.00679897
0.00764159
-0.0724666
-0.0614245
-0.0544164
-0.107226
-0.120252
-0.14384
0.00111127
-0.0181452
-0.0233908
-0.119964
-0.11762
-0.106258
-0.184368
-0.204859
-0.211236
-0.150635
-0.169334
-0.146897
-0.104497
-0.109212
-0.100346
-0.177047
-0.196739
-0.186006
-0.212308
-0.214201
-0.191642
-0.0541185
-0.0611282
-0.0574065
-0.113299
-0.122495
-0.107861
-0.181703
-0.168139
-0.156757
-0.0417125
-0.0405128
-0.0317811
-0.0988934
-0.0885272
-0.0859378
0.0469866
0.0363809
0.0219628
0.0981913
0.090965
0.0860293
0.088894
0.0789364
0.0961014
-0.0233037
-0.0148957
-0.0180064
0.0627339
0.0880868
0.0507824
0.374174
0.328802
0.336338
0.0822984
0.100844
0.13728
0.371122
0.388252
0.0204941
0.0319712
0.0188207
0.0690506
0.0800113
0.0405298
-0.0335187
-0.022234
-0.0187385
-0.0275336
-0.0249973
-0.0393333
0.0047154
-0.0098436
-0.0167995
-0.0777191
-0.0844549
-0.113422
0.0551193
0.0321041
0.0245538
-0.0883679
-0.0596317
-0.0707609
-0.0553222
-0.0590889
-0.0750865
-0.0272724
-0.0427392
-0.0424396
-0.0636036
-0.0588681
-0.0485485
-0.0889954
-0.0705293
-0.0760615
-0.051984
-0.0624724
-0.0844207
-0.104723
-0.098321
-0.0879799
-0.133294
-0.125982
-0.12911
-0.100482
-0.10564
-0.11198
-0.201583
-0.205309
-0.19855
-0.136056
-0.12254
-0.158884
-0.0975523
-0.112076
-0.119295
-0.0896462
-0.102137
-0.0895137
-0.0629048
-0.0658171
-0.0555491
-0.0976701
-0.0778239
-0.0739511
-0.079061
-0.0796055
-0.099538
-0.119421
-0.12106
-0.11003
-0.148665
-0.141428
-0.139799
-0.144104
-0.144537
-0.152211
-0.13052
-0.137118
-0.174151
-0.107689
-0.123662
-0.11964
-0.123617
-0.125074
-0.108661
-0.0390908
-0.0463473
-0.0406368
-0.0654842
-0.053114
-0.0441584
-0.0683156
-0.0612676
-0.0709258
-0.0816141
-0.0878506
-0.0815744
-0.1052
-0.0941901
-0.0846396
-0.115173
-0.112011
-0.116635
-0.172659
-0.172981
-0.16958
-0.0879718
-0.105427
-0.124727
-0.0857853
-0.0955414
-0.0850394
-0.113295
-0.105119
-0.0934046
-0.0753813
-0.0781151
-0.0691178
-0.114594
-0.111482
-0.110281
-0.0413443
-0.0527412
-0.0582295
-0.0499196
-0.0519772
-0.0414216
-0.0740013
-0.0627677
-0.0591253
0.0135188
0.0169338
0.0218144
-0.0163048
-0.0105083
-0.012191
0.0360519
0.0424363
0.0333818
0.0541822
0.0459287
0.0404134
0.0725009
0.0699993
0.0627834
0.0377788
0.0420234
0.0535967
0.0249587
0.0368698
0.0306591
0.0389846
0.0380573
0.0233058
-0.096388
-0.0893545
-0.09514
-0.0366525
-0.0591515
-0.0764766
-0.0436365
-0.0490821
-0.0353695
-0.0662084
-0.0799926
-0.0652004
0.0419788
0.0461637
0.0650043
-0.0524016
-0.0397593
-0.0338215
-0.18648
-0.193744
-0.197908
-0.111606
-0.120256
-0.115249
-0.0822701
-0.10095
-0.0928737
-0.116369
-0.108804
-0.0953653
-0.168587
-0.161163
-0.171448
-0.150237
-0.142562
-0.143515
-0.131849
-0.134457
-0.141953
-0.10315
-0.114342
-0.110027
-0.14612
-0.149799
-0.148069
-0.161336
-0.160861
-0.156219
-0.146653
-0.14511
-0.141043
-0.192121
-0.202395
-0.17934
-0.237142
-0.229983
-0.226626
-0.200262
-0.184628
-0.177179
-0.225481
-0.222689
-0.230948
-0.156968
-0.174468
-0.188472
-0.126412
-0.121722
-0.118495
-0.13778
-0.13569
-0.141557
-0.103876
-0.113371
-0.116794
-0.149146
-0.151587
-0.153342
-0.127424
-0.129377
-0.12707
-0.157945
-0.161976
-0.161569
-0.155245
-0.156752
-0.152496
-0.208091
-0.200231
-0.182259
-0.211141
-0.214194
-0.218878
-0.191272
-0.213636
-0.210355
-0.0885723
-0.0910382
-0.0987142
-0.0649297
-0.0689643
-0.0658469
-0.121731
-0.124328
-0.125639
-0.101338
-0.106735
-0.101041
-0.119726
-0.120716
-0.117674
-0.166631
-0.16401
-0.161731
-0.143329
-0.127903
-0.12244
-0.153361
-0.149334
-0.1551
-0.114079
-0.119894
-0.122267
-0.210664
-0.205217
-0.207721
-0.160978
-0.166941
-0.174788
-0.148687
-0.163168
-0.148497
-0.00869392
-0.0073553
-0.0123639
0.0182821
0.0147934
0.0121593
-0.0514425
-0.0538334
-0.059752
-0.0173993
-0.022779
-0.0236532
-0.0289749
-0.0282644
-0.0222254
-0.0660858
-0.0577645
-0.0579015
-0.104058
-0.102426
-0.108263
-0.0673445
-0.0828948
-0.0865723
-0.0767269
-0.0784629
-0.0687009
0.046634
0.0581298
0.0467348
0.0681538
0.0602446
0.048035
0.021708
0.0241827
0.0212729
0.0367117
0.0536944
0.0604138
-0.0204851
-0.00495785
-0.00599251
-0.00309756
-0.00385259
-0.0290206
0.0331941
0.0152793
0.0105627
0.12987
0.101227