/*--------------------------------*- C++ -*----------------------------------*\
| =========                 |                                                 |
| \\      /  F ield         | OpenFOAM: The Open Source CFD Toolbox           |
|  \\    /   O peration     | Version:  5.x                                   |
|   \\  /    A nd           | Web:      www.OpenFOAM.org                      |
|    \\/     M anipulation  |                                                 |
\*---------------------------------------------------------------------------*/
FoamFile
{
    version     2.0;
    format      ascii;
    class       surfaceScalarField;
    location    "400";
    object      phi;
}
// * * * * * * * * * * * * * * * * * * * * * * * * * * * * * * * * * * * * * //

dimensions      [0 3 -1 0 0 0 0];

internalField   nonuniform List<scalar> 
13181
(
8.65998e-06
0.00915668
8.31252e-06
0.00916735
7.14193e-06
0.00916767
5.86319e-06
0.00916778
3.83173e-06
0.00916903
-3.71031e-06
0.00917404
-8.41704e-06
0.00917136
-9.1311e-06
0.00916741
-7.82504e-06
0.00916534
-2.85292e-06
0.00916168
6.2837e-06
0.00915756
1.78405e-05
0.00915509
2.84871e-05
0.009156
3.4959e-05
0.00916023
3.61626e-05
0.00916545
3.30386e-05
0.00916977
2.72295e-05
0.00917251
2.01035e-05
0.00917378
8.74436e-06
0.00917786
-1.01506e-06
0.00917676
-1.35635e-05
0.00917905
-1.86679e-05
0.0091716
-1.96717e-05
0.009168
0.00914528
1.23204e-05
0.00914142
3.51036e-05
0.00914456
3.53665e-05
0.00916741
3.47413e-05
0.0091684
2.8605e-05
0.00917517
9.29611e-06
0.00919335
-1.59065e-05
0.00919656
-2.39056e-05
0.00917541
-2.27173e-05
0.00916416
-1.30174e-05
0.00457588
0.00457609
5.48147e-06
0.00456948
0.00456958
2.98029e-05
0.00456518
0.00456559
5.22645e-05
0.00456629
0.00456725
6.57655e-05
0.00457277
0.00457395
6.80149e-05
0.00458102
0.00458218
5.38172e-05
0.00918397
3.19445e-05
0.00919438
1.0143e-05
0.00919558
-1.27945e-05
0.0092008
-2.08298e-05
0.00918479
-2.14318e-05
0.00917965
-2.24431e-05
0.00917262
-4.24851e-07
0.00914599
0.00914098
-3.91256e-06
0.00914054
-8.57549e-07
0.00914151
1.89676e-05
0.00914758
1.69481e-05
0.00917042
1.79139e-05
0.0091742
1.90988e-05
0.00919217
-1.386e-05
0.00922952
-3.55937e-05
0.00919715
-1.87501e-05
0.00917075
-2.34358e-05
0.00457266
-1.55268e-05
0.00456413
-6.01318e-06
1.13618e-05
-1.0985e-06
0.00455696
9.31182e-06
-1.83098e-05
0.00455773
2.68649e-05
-3.42361e-05
0.0045672
3.98112e-05
-4.27913e-05
0.00458084
4.29749e-05
4.259e-05
0.00461014
-3.32044e-05
-4.45007e-05
0.00460894
4.52953e-06
0.00923244
-8.18085e-06
0.00920829
-6.86244e-06
0.00919948
-8.29435e-06
0.00918623
-9.82166e-06
0.00918118
7.59616e-06
0.0091552
8.45255e-06
0.00914513
0.00914324
-9.80807e-06
0.00914379
-1.27455e-05
0.00914445
-1.32125e-05
0.00914805
4.57174e-07
0.00915675
-4.18817e-06
0.00917885
-4.02897e-06
0.00919201
-8.53405e-06
0.00923402
-2.8907e-05
0.00921752
-3.43652e-05
0.00461544
-3.73687e-05
0.00459814
0.00456746
-3.06866e-05
-0.00457114
0.00454977
-1.79867e-05
-0.00455756
2.57758e-05
6.3177e-06
0.00453063
8.80528e-06
-0.00454575
-2.59508e-05
0.00452925
4.24802e-05
-0.00454578
-5.48574e-05
0.00456206
5.39671e-05
-0.00456117
-3.71866e-05
0.00461094
1.62034e-05
-0.00458996
-2.34667e-06
0.00461304
-5.50553e-07
3.23942e-05
0.00461259
-1.36425e-05
-2.27749e-06
0.00460338
2.57896e-05
0.00921489
1.74526e-05
0.00920782
6.7116e-06
0.00919697
1.81544e-05
0.00916974
1.73935e-05
0.00915596
1.20515e-05
0.00915047
0.00914709
-1.16425e-05
0.00914735
-1.62631e-05
0.00914907
-2.16974e-05
0.00915348
-2.3675e-05
0.00915873
-1.7287e-05
0.00917246
-2.08675e-05
0.00919559
1.22301e-05
0.00920093
2.04627e-05
0.0045904
8.34304e-06
0.00461054
0.00464291
-7.0137e-06
0.00457515
-3.34155e-05
-0.00456839
2.66555e-05
0.00454736
-4.09076e-05
-0.00454317
3.67131e-05
2.48117e-05
2.02668e-06
-0.00451048
0.00224154
0.00224211
-3.52009e-05
6.78745e-05
-0.0045066
0.002237
0.00223693
-7.88601e-05
4.33867e-05
-0.00457945
0.00230137
0.00231356
-5.42083e-05
0.00461079
5.56879e-05
-0.00461227
-4.74263e-05
0.00462061
4.76307e-05
-0.00462082
-4.56355e-05
0.00461366
4.45623e-05
5.15589e-05
0.00924276
-4.25861e-05
-3.68368e-05
3.16535e-05
0.00922772
3.35463e-05
0.00919507
2.81192e-05
0.00917516
1.99027e-05
0.00916418
1.4e-05
0.00915637
0.00915144
-1.26788e-05
0.00915086
-1.75307e-05
0.00915392
-2.38732e-05
0.00915983
-3.27959e-05
0.00916765
-3.80545e-05
0.00917772
-4.10636e-05
0.0091986
-2.60457e-05
0.00922043
-3.45177e-05
0.00459956
-3.51976e-05
0.00460519
1.81255e-06
-0.00463712
3.01171e-05
0.00458209
2.05398e-05
-0.0045846
-1.80244e-05
-0.00228294
-5.71201e-07
0.00228822
-4.70897e-06
-0.00222871
1.42882e-05
0.00223053
-1.61103e-05
-0.00221356
-2.16879e-05
0.00220037
3.48773e-05
-0.00229051
-2.91625e-05
0.00226201
5.76618e-05
-4.25022e-05
0.000106421
-0.00461761
-4.64954e-05
0.00229586
0.00230433
-0.000102413
0.00463661
8.80745e-05
-0.00462227
-7.21275e-05
-0.00462401
0.00463755
5.85843e-05
6.56109e-05
0.00927911
-5.31767e-05
-4.8785e-05
5.2165e-05
0.00924117
4.08548e-05
0.00920639
2.88031e-05
0.00918721
2.06307e-05
0.00917235
1.4464e-05
0.00916254
0.00915568
-1.32428e-05
0.0091544
-1.82592e-05
0.00915894
-2.42376e-05
0.0091658
-3.24732e-05
0.00917589
-4.44448e-05
0.00918969
-5.58561e-05
0.00921001
-3.69201e-05
0.00923831
-3.6823e-05
-0.0046086
0.00461846
-4.67732e-05
-0.00460694
0.00462216
-7.43828e-05
5.91656e-05
-0.00459305
0.00461794
9.40344e-05
-5.61213e-05
-6.27968e-05
-0.00227617
5.75389e-05
0.00227726
-5.86254e-05
-0.00111126
2.01804e-05
0.00110728
-1.61929e-05
-1.26131e-05
-0.00105556
0.00104985
1.832e-05
-4.80068e-05
-0.00228026
9.43256e-05
-3.44076e-05
0.00112118
0.00114716
-0.000106383
-0.00231024
0.00232249
9.41357e-05
-0.000141392
-0.00466063
0.00468987
0.00011215
-8.84253e-05
-0.00465316
0.00467239
6.91993e-05
7.4958e-05
0.00931047
-5.27399e-05
-5.3585e-05
5.55269e-05
0.0092606
3.75116e-05
0.0092244
2.56211e-05
0.0091991
1.77123e-05
0.00918026
1.22061e-05
0.00916805
0.00915812
-1.22749e-05
0.0091571
-1.68692e-05
0.00916353
-2.21404e-05
0.00917108
-3.03092e-05
0.00918406
-4.12397e-05
0.00920062
-5.72079e-05
0.00922598
-3.53051e-05
0.00925648
-4.00671e-05
-0.00462886
0.0046398
-4.62462e-05
-0.00464177
0.00466093
-7.98522e-05
6.0692e-05
-0.00465258
0.00469077
0.000106526
-7.09107e-05
-7.38003e-05
-0.00231343
9.951e-05
0.00233406
-0.000120144
-0.00112629
0.000105809
0.00114009
-0.000119602
-0.000145994
-0.00115925
0.00117331
0.000131937
-0.000148244
-0.00236894
0.00239103
0.000126146
-0.000163956
-0.00472814
0.00476569
0.000126407
-9.84464e-05
-0.00469531
0.00471563
7.81302e-05
7.00272e-05
0.00935664
-5.48613e-05
-6.13344e-05
4.07222e-05
0.0092899
2.69651e-05
0.00923816
1.78968e-05
0.00920817
1.26041e-05
0.00918555
9.69941e-06
0.00917095
0.00915967
-1.0882e-05
0.00915919
-1.35509e-05
0.0091662
-1.73654e-05
0.00917489
-2.21498e-05
0.00918884
-2.88077e-05
0.00920728
-3.8222e-05
0.00923539
-2.97693e-05
0.00927186
-2.38368e-05
-0.00464268
0.00465144
-3.85315e-05
-0.00468342
0.00469821
-6.8501e-05
5.37139e-05
-0.00472794
0.00475489
8.76236e-05
-6.04734e-05
-5.41007e-05
-0.00239355
8.53107e-05
0.00240909
-0.000100846
-0.00122974
8.99574e-05
0.00123868
-9.88978e-05
-0.000122756
-0.00127581
0.0012868
0.000111766
-0.000113203
-0.00245284
0.00247089
9.5161e-05
-0.000112735
-0.00480083
0.00482726
8.63031e-05
-6.60318e-05
-0.00473368
0.00474723
5.24827e-05
4.90848e-05
0.00937629
-2.86387e-05
-4.00977e-05
2.44033e-05
0.00931458
1.10428e-05
0.00925152
7.2358e-06
0.00921198
5.19306e-06
0.00918759
4.14881e-06
0.009172
0.00915841
-8.34059e-06
0.00916006
-1.03271e-05
0.00916819
-1.17936e-05
0.00917636
-1.401e-05
0.00919106
-1.52193e-05
0.00920849
-1.65799e-05
0.00923675
-1.21424e-05
0.0092727
-5.27639e-06
-0.0046591
0.00466671
-1.97572e-05
-0.0047073
0.00471035
-2.5737e-05
2.26914e-05
-0.00477036
0.00477292
2.82049e-05
-1.96001e-05
-1.11631e-05
-0.00243688
2.55441e-05
0.00243914
-2.78082e-05
-0.00127092
2.04674e-05
0.00127151
-2.10626e-05
-2.42029e-05
-0.00132888
0.00133002
2.30536e-05
-2.53294e-05
-0.00250273
0.00250576
2.22988e-05
-2.10191e-05
-0.00484241
0.0048448
1.86279e-05
-1.6648e-05
-0.00475584
0.00475858
1.39051e-05
1.26741e-05
0.00937314
6.89121e-07
-1.02079e-05
1.49196e-05
0.00931234
-1.39112e-06
0.00926783
-5.97286e-06
0.00921656
-3.1729e-06
0.00918479
-1.45732e-06
0.00917028
0.00915519
-6.04519e-06
0.00916032
-6.38714e-06
0.00916853
-6.10439e-06
0.00917607
-4.41166e-06
0.00918937
-2.53706e-06
0.00920661
4.18787e-06
0.00923003
4.70966e-06
0.00926373
8.44931e-06
-0.00466892
0.00466908
4.55603e-06
-0.00470751
0.0046993
1.80585e-05
-9.84564e-06
-0.00476333
0.00474445
-3.11266e-05
2.14299e-05
2.85852e-05
-0.0024268
-3.3492e-05
0.00241754
4.27506e-05
-0.00125134
-4.15278e-05
0.00124608
4.67911e-05
6.85786e-05
-0.00130393
0.00129647
-6.11196e-05
6.2147e-05
-0.00249109
0.00248031
-5.13648e-05
6.76828e-05
-0.0048352
0.00481623
-4.87125e-05
3.33954e-05
-0.00475447
0.00474522
-2.41454e-05
-2.3276e-05
0.00935139
2.63822e-05
1.8645e-05
-8.19605e-06
0.00929726
4.43277e-07
0.00925919
-1.88249e-05
0.00923583
-1.28578e-05
0.00917882
-7.46977e-06
0.00916489
0.0091502
-3.39358e-06
0.0091597
-1.91106e-06
0.00916704
9.08519e-08
0.00917407
3.75819e-06
0.0091857
1.06227e-05
0.00919975
2.27255e-05
0.00921792
1.65286e-05
0.00925027
1.96532e-05
-0.00466308
0.00465655
2.30552e-05
-0.00468761
0.00467402
4.65774e-05
-3.29858e-05
-0.00471906
0.00469159
-6.60264e-05
4.57708e-05
4.77274e-05
-0.00238086
-6.61614e-05
0.00236728
7.97455e-05
-0.00119994
-7.10746e-05
0.0011924
7.86158e-05
0.00010833
-0.00123504
0.00122622
-9.95118e-05
0.000109956
-0.00243531
0.00241872
-9.33643e-05
0.000122653
-0.00478838
0.00475553
-8.98026e-05
6.76068e-05
-0.00473149
0.00471545
-5.15721e-05
-4.72234e-05
0.00931611
4.30047e-05
3.94988e-05
-2.54702e-05
0.00927551
-1.09363e-05
0.00924466
-3.90477e-06
0.0092288
-2.12511e-05
0.00919617
-1.37262e-05
0.00915737
0.00914334
-1.20176e-06
0.00915857
1.1105e-06
0.00916473
4.07007e-06
0.00917111
9.45363e-06
0.00918032
1.71918e-05
0.00919201
3.04558e-05
0.00920466
2.4095e-05
0.00923189
2.47413e-05
-0.00464844
0.00464052
3.20164e-05
-0.0046598
0.00464663
5.45876e-05
-4.141e-05
-0.00466465
0.00464146
-7.19422e-05
4.85517e-05
4.65794e-05
-0.00232922
-6.62649e-05
0.00231886
7.66318e-05
-0.00114536
-6.15816e-05
0.00114096
6.59773e-05
0.000100377
-0.0011655
0.00115769
-9.25689e-05
0.000109855
-0.00237035
0.00235633
-9.58417e-05
0.000128303
-0.00471983
0.00469031
-9.87874e-05
7.69159e-05
-0.00469899
0.00468315
-6.10717e-05
-5.62473e-05
0.0092801
4.58966e-05
4.63636e-05
-3.28312e-05
0.00925209
-1.65761e-05
0.0092284
-1.33964e-05
0.00922562
-2.45531e-05
0.00920733
-1.92009e-05
0.00915202
0.00913522
8.6548e-07
0.00915675
2.99199e-06
0.00916261
6.67072e-06
0.00916743
1.16093e-05
0.00917538
1.89519e-05
0.00918467
2.95015e-05
0.00919411
4.3188e-05
0.00921821
3.70313e-05
0.00924884
2.77173e-05
-0.00463358
-0.00463681
-0.00463571
0.00462833
4.44114e-05
-0.00462347
0.00463035
3.95689e-05
-4.64462e-05
-0.00230461
-7.86011e-06
0.00233007
-1.76023e-05
-0.00114882
3.5348e-05
0.0011306
-1.71207e-05
-0.000300887
7.71631e-06
0.00031248
-1.93092e-05
3.79555e-05
-0.00112518
0.00226219
-7.76866e-05
3.27468e-05
-0.00113003
-0.00232627
7.67488e-05
0.00232175
-7.22331e-05
9.6806e-05
-0.00466767
0.00465053
-7.966e-05
6.51362e-05
-0.00467129
0.00466708
-6.09289e-05
-5.23116e-05
0.00925309
3.73038e-05
4.20128e-05
-3.21745e-05
0.00923195
-1.75779e-05
0.0092138
-2.87167e-05
0.00923676
-1.33084e-06
0.00917994
-2.10743e-05
0.00917176
0.00912893
1.27778e-06
0.00915555
3.29444e-06
0.00916059
6.12693e-06
0.0091646
9.83769e-06
0.00917167
1.57276e-05
0.00917878
2.14006e-05
0.00918844
1.57897e-05
0.00922382
-5.53297e-06
0.00929789
-2.77321e-05
-0.00463787
0.00465575
-2.34153e-05
-0.00464074
0.00462096
-1.97439e-06
2.17588e-05
-0.00229662
-1.70469e-05
0.00229286
2.08025e-05
-0.00226204
-1.15785e-05
0.00226887
4.74341e-06
-0.000880452
3.09879e-05
0.00187706
-5.69693e-05
-0.000970628
-0.00228995
6.56249e-05
0.0022844
-6.00818e-05
-0.00461578
7.16683e-05
0.00462628
-0.000130125
4.79562e-05
0.000121051
-0.00464114
0.00462912
-0.000109034
-0.000134395
0.0092439
6.78556e-05
9.98347e-05
-0.0046824
-0.00459479
-0.000106533
0.00922523
-8.54508e-05
0.00921087
-6.64302e-05
0.00919478
-1.13553e-05
0.00918168
-1.21398e-06
0.0091698
6.75394e-06
0.00916379
0.00915354
1.61256e-06
0.00915466
2.72731e-06
0.00915947
4.37651e-06
0.00916295
6.97644e-06
0.00916907
9.48972e-06
0.00917626
8.09889e-06
0.00918983
-1.57877e-05
0.0092477
-2.80468e-05
0.00930021
9.93785e-06
-0.00465233
0.00462339
8.88901e-07
-0.00460846
0.00460805
1.64618e-05
-1.6057e-05
-0.00459364
0.00460219
4.50288e-06
-1.30543e-05
-0.00228424
2.7958e-06
0.00228736
-5.91541e-06
-0.00192908
2.1777e-05
0.00194881
-4.15093e-05
-0.00228384
4.04917e-05
0.00458033
-8.96137e-05
-0.00228605
3.86835e-05
-0.00461732
9.95882e-05
0.00461088
-9.31497e-05
-0.00462172
8.83684e-05
0.00461547
-8.21195e-05
-9.9991e-05
0.00920668
6.40472e-05
7.31599e-05
-7.05941e-05
0.00919583
-5.97468e-05
0.00920002
-5.35558e-05
0.00918859
-4.70318e-05
0.00917516
-3.95621e-05
0.00916233
-2.92839e-05
0.00915351
0.00914446
9.86425e-07
0.00915471
2.04659e-06
0.00915841
2.87533e-06
0.00916212
3.77317e-06
0.00916817
3.93937e-06
0.0091761
-6.72948e-06
0.0092005
-2.29102e-05
0.00926388
7.92633e-06
0.00926938
5.23386e-06
0.00923892
-0.00462207
-0.00461595
1.78653e-06
-0.00461061
0.00461184
4.00473e-06
-0.00460927
0.00461523
-5.29002e-06
-6.69192e-07
-0.00458606
1.34293e-05
0.00458991
-1.72778e-05
-0.00416515
3.52699e-05
0.00418781
-5.79264e-05
-0.00459011
6.27518e-05
0.00459448
-6.712e-05
-0.00460568
6.72037e-05
0.00460322
-6.47396e-05
-0.00461134
6.30805e-05
0.00460836
-6.01055e-05
-9.69707e-05
0.00919492
5.29789e-05
5.57496e-05
-8.06987e-05
0.00917956
-6.37181e-05
0.00918304
-4.61905e-05
0.00917107
-3.05167e-05
0.00915948
-2.3731e-05
0.00915555
-2.14739e-05
0.00915126
0.00914491
5.31944e-07
0.00915522
4.89114e-07
0.00915846
1.88876e-09
0.00916261
-1.91054e-07
0.00916836
-4.07141e-06
0.00917998
-2.57974e-05
0.00922222
-2.48938e-05
0.00926298
-2.77235e-06
0.00924725
-8.38775e-06
0.00924454
-8.41469e-06
0.00923999
-0.00461372
-0.00461468
-1.15641e-05
-0.00462055
0.00462468
-1.25426e-05
-0.00458958
2.0186e-05
0.00457919
-9.79652e-06
-0.00420778
3.12853e-05
0.00423161
-5.51115e-05
-0.00459905
4.39803e-05
0.00460333
-4.82643e-05
-9.40239e-05
0.00920669
-0.0046031
-0.00460297
4.48465e-05
4.85588e-05
-9.09661e-05
0.00920836
-0.00460629
-0.00460513
-8.3208e-05
0.00918716
-7.61961e-05
0.00917255
-6.14604e-05
0.00916831
-4.86524e-05
0.00915826
-3.78611e-05
0.00914869
-2.90354e-05
0.00914672
-1.674e-05
0.00913896
0.00915112
-1.37459e-07
0.00915618
-1.25367e-06
0.00915957
-1.96009e-06
0.00916332
-3.04288e-06
0.00916944
-6.06558e-06
0.009183
-2.25415e-05
0.0092387
-1.42618e-05
0.0092547
-5.78602e-06
0.00923878
-1.3438e-05
0.00925219
-2.35551e-05
0.00925011
-3.11655e-05
0.00926324
-0.00463099
-0.00462465
-5.39297e-05
0.00885943
-0.00453444
-0.00430222
-7.64409e-05
0.00881932
-0.00428108
-0.00451573
-7.91588e-05
0.0092264
-0.00460939
-0.0046143
-7.91373e-05
0.00920667
-7.74841e-05
0.00920671
-7.21096e-05
0.00918179
-6.66683e-05
0.00916711
-5.61622e-05
0.0091578
-4.71386e-05
0.00914923
-4.0559e-05
0.00914211
-3.01441e-05
0.00913631
-2.1391e-05
0.00913021
0.00915319
-9.33853e-07
0.00915756
-2.05102e-06
0.00916069
-3.85501e-06
0.00916512
-5.62271e-06
0.00917121
-8.95531e-06
0.00918633
-1.81941e-05
0.00924794
-1.3585e-05
0.00925009
-1.06877e-05
0.00923588
-1.64127e-05
0.00925792
-2.49825e-05
0.00925868
-3.12673e-05
0.00926953
-4.55043e-05
0.00887367
-5.95407e-05
0.00883336
-6.40663e-05
0.00923093
-6.71767e-05
0.00920978
-6.65445e-05
0.00920608
-6.31007e-05
0.00917835
-5.87511e-05
0.00916276
-5.12873e-05
0.00915034
-4.40928e-05
0.00914204
-3.75233e-05
0.00913554
-2.98492e-05
0.00912863
-2.26304e-05
0.00912299
0.0091541
-1.7962e-06
0.00915928
-3.83168e-06
0.00916273
-6.10373e-06
0.00916739
-8.37881e-06
0.00917349
-1.07514e-05
0.00918871
-1.39583e-05
0.00925114
-1.3579e-05
0.00924971
-1.38586e-05
0.00923616
-1.87311e-05
0.00926279
-2.60519e-05
0.009266
-3.02516e-05
0.00927373
-4.04448e-05
0.00888386
-5.05114e-05
0.00884343
-5.39776e-05
0.00923439
-5.7742e-05
0.00921354
-5.75641e-05
0.0092059
-5.5364e-05
0.00917615
-5.23817e-05
0.00915977
-4.69728e-05
0.00914493
-4.12198e-05
0.00913629
-3.54268e-05
0.00912975
-2.88482e-05
0.00912205
-2.25877e-05
0.00911673
0.00915482
-2.68485e-06
0.00916129
-5.0483e-06
0.00916509
-7.16602e-06
0.00916951
-9.79919e-06
0.00917612
-1.25091e-05
0.00919142
-1.34873e-05
0.00925212
-1.52062e-05
0.00925143
-1.91217e-05
0.00924008
-2.01104e-05
0.00926378
-2.62006e-05
0.00927209
-2.95058e-05
0.00927703
-3.65968e-05
0.00889095
-4.35613e-05
0.00885039
-4.68334e-05
0.00923767
-5.01393e-05
0.00921685
-5.02465e-05
0.00920601
-4.89659e-05
0.00917487
-4.70342e-05
0.00915784
-4.22954e-05
0.00914019
-3.86589e-05
0.00913265
-3.29171e-05
0.00912401
-2.7773e-05
0.00911691
-2.2859e-05
0.00911181
0.00915477
-4.07814e-06
0.00916401
-5.68261e-06
0.00916669
-8.54387e-06
0.00917237
-1.09127e-05
0.00917849
-1.38045e-05
0.00919431
-1.49153e-05
0.00925323
-1.67711e-05
0.00925329
-2.0449e-05
0.00924376
-2.07631e-05
0.00926409
-2.58066e-05
0.00927713
-2.84185e-05
0.00927965
-3.3425e-05
0.00889596
-3.8252e-05
0.00885522
-4.11574e-05
0.00924057
-4.40438e-05
0.00921974
-4.42502e-05
0.00920621
-4.34857e-05
0.0091741
-4.16205e-05
0.00915598
-3.87474e-05
0.00913732
-3.54763e-05
0.00912938
-3.05735e-05
0.00911911
-2.62102e-05
0.00911254
-2.15331e-05
0.00910714
0.00915536
-4.46064e-06
0.00916638
-7.237e-06
0.00916947
-9.74953e-06
0.00917488
-1.22634e-05
0.009181
-1.5226e-05
0.00919727
-1.58663e-05
0.00925387
-1.77905e-05
0.00925521
-2.11622e-05
0.00924713
-2.34798e-05
0.00926641
-2.52765e-05
0.00927893
-2.71948e-05
0.00928156
-3.0768e-05
0.00889953
-3.41152e-05
0.00885856
-3.66511e-05
0.00924311
-3.91021e-05
0.00922219
-3.93519e-05
0.00920646
-3.88835e-05
0.00917363
-3.75217e-05
0.00915462
-3.47896e-05
0.00913458
-3.21672e-05
0.00912676
-2.89345e-05
0.00911587
-2.52025e-05
0.00910881
-2.16441e-05
0.00910358
0.00915499
-5.33288e-06
0.00916884
-7.71266e-06
0.00917185
-1.08082e-05
0.00917798
-1.33957e-05
0.00918359
-1.58514e-05
0.00919973
-1.64566e-05
0.00925448
-1.84721e-05
0.00925723
-2.15113e-05
0.00925017
-2.45132e-05
0.00926941
-2.45375e-05
0.00927895
-2.59728e-05
0.009283
-2.83125e-05
0.00890187
-3.08466e-05
0.0088611
-3.27232e-05
0.00924498
-3.49965e-05
0.00922446
-3.52585e-05
0.00920673
-3.50817e-05
0.00917346
-3.41184e-05
0.00915365
-3.23484e-05
0.00913281
-3.02153e-05
0.00912462
-2.65208e-05
0.00911218
-2.32962e-05
0.00910559
-2.02454e-05
0.00910053
0.00915507
-6.19386e-06
0.00917134
-8.6245e-06
0.00917428
-1.12418e-05
0.0091806
-1.38494e-05
0.0091862
-1.67543e-05
0.00920263
-1.72844e-05
0.00925501
-1.8832e-05
0.00925877
-2.15923e-05
0.00925293
-2.42542e-05
0.00927207
-2.95947e-05
0.0092843
-2.90537e-05
0.00928246
-3.00397e-05
0.00890286
-3.08329e-05
0.00886189
-3.2397e-05
0.00924655
-3.38977e-05
0.00922596
-3.40919e-05
0.00920692
-3.42083e-05
0.00917357
-3.3781e-05
0.00915323
-3.33446e-05
0.00913238
-2.90868e-05
0.00912037
-2.58151e-05
0.00910891
-2.24889e-05
0.00910226
-1.93513e-05
0.00909739
0.00915502
-7.04573e-06
0.00917384
-9.48246e-06
0.00917672
-1.15783e-05
0.00918269
-1.46695e-05
0.00918929
-1.69866e-05
0.00920495
-1.79205e-05
0.00925594
-1.90635e-05
0.00925992
-2.15592e-05
0.00925542
-2.64182e-05
0.00927693
-3.08905e-05
0.00928877
-3.15485e-05
0.00928312
-3.28249e-05
0.00890413
-3.40422e-05
0.00886311
-3.57543e-05
0.00924826
-3.71433e-05
0.00922735
-3.72599e-05
0.00920704
-3.71507e-05
0.00917346
-3.59453e-05
0.00915202
-3.47504e-05
0.00913118
-3.32151e-05
0.00911883
-3.07428e-05
0.00910644
-2.86995e-05
0.00910022
-2.58798e-05
0.00909457
0.0091473
-7.88845e-06
0.00917629
-1.02961e-05
0.00917913
-1.28406e-05
0.00918524
-1.48815e-05
0.00919133
-1.70968e-05
0.00920716
-1.79216e-05
0.00925677
-1.9232e-05
0.00926123
-2.39077e-05
0.0092601
-2.80495e-05
0.00928107
-3.0351e-05
0.00929107
-3.06143e-05
0.00928338
-3.14957e-05
0.00890501
-3.2269e-05
0.00886388
-3.3622e-05
0.00924961
-3.47982e-05
0.00922853
-3.48984e-05
0.00920714
-3.4784e-05
0.00917335
-3.40997e-05
0.00915134
-3.25729e-05
0.00912966
-3.12128e-05
0.00911747
-2.94679e-05
0.00910469
-2.71418e-05
0.00909789
-2.50526e-05
0.00909248
0.00913929
-8.72175e-06
0.00917866
-1.05693e-05
0.00918097
-1.30346e-05
0.0091877
-1.5013e-05
0.00919331
-1.76189e-05
0.00920977
-1.8337e-05
0.00925749
-2.16951e-05
0.00926459
-2.62199e-05
0.00926462
-2.79379e-05
0.00928279
-2.98125e-05
0.00929294
-2.99435e-05
0.00928351
-3.04239e-05
0.00890549
-3.08122e-05
0.00886427
-3.20019e-05
0.0092508
-3.29593e-05
0.00922948
-3.29858e-05
0.00920716
-3.28379e-05
0.0091732
-3.2139e-05
0.00915064
-3.12119e-05
0.00912873
-2.94674e-05
0.00911573
-2.73927e-05
0.00910262
-2.61995e-05
0.0090967
-2.37812e-05
0.00909006
0.0091314
-9.03879e-06
0.00918042
-1.18105e-05
0.00918375
-1.36746e-05
0.00918957
-1.6084e-05
0.00919572
-1.75738e-05
0.00921126
-2.12094e-05
0.00926112
-2.48758e-05
0.00926825
-2.63189e-05
0.00926607
-2.7869e-05
0.00928434
-2.94966e-05
0.00929457
-2.93448e-05
0.00928336
-2.95972e-05
0.00890575
-2.96329e-05
0.00886431
-3.06326e-05
0.0092518
-3.15052e-05
0.00923036
-3.13998e-05
0.00920706
-3.12541e-05
0.00917306
-3.05069e-05
0.00914989
-2.96438e-05
0.00912787
-2.79611e-05
0.00911404
-2.64933e-05
0.00910115
-2.43886e-05
0.00909459
-2.25709e-05
0.00908824
0.00912358
-1.03354e-05
0.00918254
-1.20072e-05
0.00918542
-1.37585e-05
0.00919132
-1.60952e-05
0.00919805
-2.09992e-05
0.00921616
-2.7064e-05
0.00926719
-2.50732e-05
0.00926626
-2.63902e-05
0.00926738
-2.77641e-05
0.00928571
-2.92644e-05
0.00929607
-2.9027e-05
0.00928312
-2.90067e-05
0.00890573
-2.8853e-05
0.00886415
-2.96815e-05
0.00925263
-3.02886e-05
0.00923096
-3.01944e-05
0.00920696
-2.99944e-05
0.00917286
-2.91708e-05
0.00914907
-2.78429e-05
0.00912654
-2.71725e-05
0.00911337
-2.52771e-05
0.00909925
-2.36982e-05
0.00909302
-2.19338e-05
0.00908648
0.00911526
-1.05875e-05
0.009184
-1.26588e-05
0.00918749
-1.47841e-05
0.00919344
-1.60511e-05
0.00919932
-3.09108e-05
0.00923102
-2.68519e-05
0.00926313
-2.53131e-05
0.00926472
-2.65541e-05
0.00926862
-2.78395e-05
0.009287
-2.91808e-05
0.00929741
-2.8856e-05
0.0092828
-2.86508e-05
0.00890552
-2.82623e-05
0.00886376
-2.89681e-05
0.00925334
-2.94803e-05
0.00923148
-2.92271e-05
0.00920671
-2.89716e-05
0.0091726
-2.80969e-05
0.00914819
-2.72824e-05
0.00912572
-2.56009e-05
0.00911169
-2.47395e-05
0.00909839
-2.26465e-05
0.00909092
-2.08952e-05
0.00908473
0.00910689
-1.17764e-05
0.00918576
-1.27454e-05
0.00918846
-1.47304e-05
0.00919543
-2.50106e-05
0.0092096
-3.17038e-05
0.00923772
-2.76271e-05
0.00925905
-2.54857e-05
0.00926258
-2.67135e-05
0.00926985
-2.79407e-05
0.00928823
-2.92662e-05
0.00929874
-2.88618e-05
0.00928239
-2.854e-05
0.0089052
-2.80617e-05
0.00886329
-2.85219e-05
0.0092538
-2.88994e-05
0.00923185
-2.8564e-05
0.00920637
-2.82672e-05
0.0091723
-2.72574e-05
0.00914718
-2.64652e-05
0.00912493
-2.52236e-05
0.00911045
-2.34015e-05
0.00909657
-2.17439e-05
0.00908926
-1.94856e-05
0.00908247
0.0090989
-1.18614e-05
0.00918678
-1.37578e-05
0.00919035
-1.50837e-05
0.00919675
-2.78789e-05
0.0092224
-3.09136e-05
0.00924075
-2.73757e-05
0.00925551
-2.56784e-05
0.00926088
-2.69182e-05
0.00927109
-2.81077e-05
0.00928942
-2.95257e-05
0.00930016
-2.92315e-05
0.0092821
-2.86966e-05
0.00890467
-2.8121e-05
0.00886271
-2.83215e-05
0.009254
-2.85761e-05
0.00923211
-2.80635e-05
0.00920586
-2.77594e-05
0.009172
-2.66222e-05
0.00914604
-2.58799e-05
0.00912419
-2.45384e-05
0.00910911
-2.32591e-05
0.00909529
-2.10018e-05
0.00908701
-1.92206e-05
0.00908069
0.00909025
-1.22626e-05
0.00918755
-1.36613e-05
0.00919175
-1.47734e-05
0.00919787
-2.46613e-05
0.00923228
-2.9486e-05
0.00924558
-2.81343e-05
0.00925416
-2.57262e-05
0.00925848
-2.72312e-05
0.0092726
-2.83371e-05
0.00929052
-3.00559e-05
0.00930188
-2.9984e-05
0.00928203
-2.91817e-05
0.00890386
-2.8538e-05
0.00886207
-2.83757e-05
0.00925383
-2.85539e-05
0.00923229
-2.77092e-05
0.00920502
-2.7575e-05
0.00917186
-2.66513e-05
0.00914512
-2.55706e-05
0.00912311
-2.40328e-05
0.00910757
-2.23871e-05
0.00909364
-2.09409e-05
0.00908556
-1.87036e-05
0.00907845
0.00908136
-1.30237e-05
-1.4457e-05
-1.48603e-05
-1.98592e-05
-2.24472e-05
-2.83534e-05
-2.57752e-05
-2.747e-05
-2.84146e-05
-3.06228e-05
-3.10719e-05
-2.99905e-05
-2.9332e-05
-2.85586e-05
-2.85675e-05
-2.74846e-05
-2.74867e-05
-2.58252e-05
-2.54244e-05
-2.36801e-05
-2.26762e-05
-2.0055e-05
-1.88631e-05
9.72813e-05
-0.000107216
-0.00121981
0.00128239
0.000132209
-0.00126853
-7.18563e-05
-7.42122e-05
-0.00114922
-0.000161633
0.00116486
2.97294e-05
-3.11831e-05
-0.00126947
0.00133949
3.75056e-05
-0.00133727
-1.85122e-05
-2.12115e-05
0.00129452
-6.63899e-05
-6.84966e-05
-3.53166e-05
4.02293e-05
-0.00125625
0.00130979
-5.95309e-05
-0.00131721
3.44801e-05
3.24684e-05
0.00134028
-1.11634e-05
-1.38323e-05
-6.93803e-05
7.67042e-05
-0.00120726
0.00123523
-0.000106801
-0.0012452
0.00011677
0.00130174
3.92191e-05
3.74143e-05
-6.42847e-05
6.97279e-05
-0.0011508
0.00115933
-0.000103607
-0.00116815
0.000112424
0.000118797
0.00122476
3.72997e-05
-5.2275e-05
-0.00113385
-7.52604e-06
0.00033085
-3.03668e-06
-0.000169954
-0.000150333
-2.49891e-05
-0.00012106
-0.000162364
0.00111727
-5.6209e-05
-0.00111643
5.5367e-05
0.000107622
0.00115209
9.9575e-05
-0.000110113
-0.00111576
-0.00104916
-1.44912e-07
0.00103669
0.00013529
-0.00113589
-0.00014862
-0.00111138
-5.37544e-05
0.00111713
9.56366e-05
-0.00011433
-0.00237486
0.00122464
-0.00121581
8.84509e-05
-0.00113798
9.5077e-05
0.00114872
0.000309053
0.000125267
-0.000610083
0.000310304
-6.65125e-05
-6.80276e-05
0.000113211
-0.000536848
-0.000122874
0.000546511
0.000119861
-0.00126346
0.00246773
0.000129486
-0.00244318
-0.000154037
-0.00236314
-0.000174533
0.00238943
4.20395e-05
-4.77455e-05
-0.00243117
0.00126317
-0.00126171
2.82744e-05
8.17619e-05
0.00123283
0.00125876
6.58877e-05
-7.14486e-05
-0.0012532
0.000644391
-2.25512e-05
-0.000642766
4.23569e-05
-2.14308e-05
-0.000629804
-6.6399e-05
6.37014e-05
0.000632502
0.000329042
9.8677e-06
-0.000337514
-1.39587e-06
-0.000330865
5.17455e-05
-5.68642e-05
0.000335983
3.51226e-05
-0.00132649
0.00252617
4.95839e-05
-0.00251886
-5.6896e-05
-0.000134859
0.00248938
-2.0449e-05
2.76172e-05
-0.00243397
0.00124705
-0.0012514
-3.09674e-05
1.95929e-05
0.00126404
0.00126761
-5.92602e-06
8.00511e-06
-0.00126969
0.000658284
8.62073e-06
-0.000659735
-1.00911e-05
2.92125e-06
-0.000657903
-7.27658e-06
1.23589e-05
0.000657604
-4.78319e-06
0.000307213
2.06095e-07
-0.000306749
-6.6991e-07
-0.000308091
4.08852e-07
0.000308505
-8.22616e-07
-5.26599e-05
-0.0013108
0.00250819
-4.23976e-05
-0.00251908
5.32825e-05
-2.78058e-05
0.00252865
-6.13147e-05
7.4523e-05
-0.00239407
0.00120007
-0.00120683
-6.26215e-05
-3.68548e-05
0.00124238
0.00122791
-5.68002e-05
6.32381e-05
-0.00123435
4.41542e-05
0.000620152
-0.000622293
-4.2013e-05
-0.000637116
1.69519e-05
-3.14062e-05
0.000634054
1.75166e-05
0.000338309
-4.29964e-05
-0.000346737
5.14243e-05
-0.000320752
-9.38097e-06
1.88405e-06
0.000328249
-9.71339e-05
-0.00124471
0.00243992
-0.000101107
-0.00245954
0.000120727
7.59091e-05
0.00249443
0.000586238
-7.73624e-05
-0.000588913
4.03438e-05
3.96945e-05
-0.000306801
-3.86362e-05
3.94947e-05
0.000305943
-9.55339e-05
-0.00117358
0.00236366
-0.000113546
-0.00238153
0.000131419
0.000129513
0.00242037
0.000540424
-5.6974e-05
-0.000542677
5.92274e-05
-0.000561808
-7.01368e-05
7.3045e-05
0.0005589
-1.85502e-05
1.07834e-05
-0.00225427
-1.71598e-05
0.00087958
-0.000854361
-8.0592e-06
-5.32548e-07
0.000339099
-4.16566e-05
-0.000855955
-7.20218e-05
0.0022808
-0.00228953
8.07533e-05
3.39138e-05
0.00112132
-6.76975e-05
-0.000628234
6.61276e-05
-9.03593e-05
-0.000598208
8.47978e-05
0.00060377
-0.00118351
0.000112211
0.0011964
-0.000125092
-0.000599296
0.000605682
-4.87368e-05
-4.80084e-05
0.000630744
-0.000631931
-3.35222e-05
-3.29887e-05
8.63961e-05
-0.000537092
0.000544313
-9.36167e-05
9.23903e-05
-9.81436e-05
-0.000593543
4.60331e-05
-0.000332944
-4.39537e-05
6.2403e-05
-6.42373e-05
0.000310887
-0.00122024
0.000152746
-0.000169823
0.00123732
-0.000615754
-6.16284e-05
0.000623535
0.00011625
0.000332287
4.60735e-05
-0.000332327
-6.05987e-06
-0.000658346
1.54015e-05
-8.89911e-06
-2.2765e-05
4.09477e-05
0.000649888
-2.36796e-05
5.69454e-05
0.0012634
-6.15868e-05
-0.00032049
0.000323246
-2.55215e-05
0.000334955
-6.54303e-06
-0.000334471
0.000317417
0.000317665
-3.41008e-05
-3.66358e-05
-2.30161e-05
-0.000320025
-1.30479e-06
-0.000309867
3.08089e-06
1.62362e-05
-5.87567e-06
0.000318682
-0.00132188
7.64474e-05
0.00132843
-4.02314e-05
-4.27694e-05
-0.000332876
0.000326366
2.27457e-05
0.000337988
1.47266e-06
-0.000340765
0.000336083
4.79497e-05
1.74674e-05
-0.000340475
8.89563e-05
-0.00131423
-4.70333e-05
-4.95739e-05
1.71492e-05
-0.000640028
-2.93943e-05
1.51564e-05
7.75474e-06
-1.47184e-05
0.000652379
1.28685e-05
-1.38612e-05
0.00126437
1.71021e-05
-0.000339856
0.000335827
1.1784e-05
0.000321303
1.86916e-05
-0.000322845
0.000333803
-6.12526e-06
7.95577e-06
-0.000339191
-1.58622e-05
-0.000311771
6.88115e-06
-5.52896e-07
0.000307353
4.1333e-07
-0.00133408
-2.71357e-05
0.00132945
1.70133e-05
1.4753e-05
-0.000337377
0.000339061
-2.23689e-06
0.000326029
-2.13951e-05
-0.000320496
0.00033658
1.81671e-06
-1.71297e-06
-0.000335458
-1.49413e-05
-0.00133748
1.03389e-05
7.99695e-06
-0.000619585
-4.52013e-05
0.000618493
2.22963e-05
2.39968e-05
0.00060014
-5.27045e-05
5.49437e-05
-0.000602379
0.000318834
1.94203e-05
-0.000620938
2.27792e-05
2.27278e-05
-4.00798e-05
-0.00030871
4.19886e-05
-4.68709e-05
5.93253e-05
0.000325854
-0.00127449
-9.52126e-05
0.00126474
5.28076e-05
5.21463e-05
-0.000333925
0.000326752
-3.96973e-05
0.000614602
3.95929e-05
-7.44678e-05
-0.000619807
0.000332612
-1.59648e-05
-3.79565e-05
-0.000338965
-9.00392e-05
-0.00128396
5.03452e-05
4.91715e-05
-0.000575559
-5.23228e-05
0.000572816
5.50656e-05
0.000557971
-4.38256e-05
4.53946e-05
-0.00055954
-5.36636e-05
0.000598443
5.53603e-05
-5.31476e-05
5.62229e-05
-0.000578635
-7.08865e-05
-0.000565127