/*--------------------------------*- C++ -*----------------------------------*\
| =========                 |                                                 |
| \\      /  F ield         | OpenFOAM: The Open Source CFD Toolbox           |
|  \\    /   O peration     | Version:  5.x                                   |
|   \\  /    A nd           | Web:      www.OpenFOAM.org                      |
|    \\/     M anipulation  |                                                 |
\*---------------------------------------------------------------------------*/
FoamFile
{
    version     2.0;
    format      ascii;
    class       volScalarField;
    location    "400";
    object      pSat;
}
// * * * * * * * * * * * * * * * * * * * * * * * * * * * * * * * * * * * * * //

dimensions      [0 2 -2 0 0 0 0];

internalField   nonuniform List<scalar> 
6584
(
697.948
697.948
697.948
697.948
697.948
697.948
697.948
697.948
697.948
697.948
697.948
697.948
697.948
697.948
697.948
697.948
697.948
697.948
697.948
697.948
697.948
697.948
697.948
697.948
697.948
697.948
697.948
697.948
697.948
697.948
697.948
697.948
697.948
697.948
697.948
697.948
697.948
697.948
697.948
697.948
697.948
697.948
697.948
697.948
697.948
697.948
697.948
697.948
697.948
697.948
697.948
697.948
697.948
697.948
697.948
697.948
697.948
697.948
697.948
697.948
697.948
697.948
697.948
697.948
697.948
697.948
697.948
697.948
697.948
697.948
697.948
697.948
697.948
697.948
697.948
697.948
697.948
697.948
697.948
697.948
697.948
697.948
697.948
697.948
697.948
697.948
697.948
697.948
697.948
697.948
697.948
697.948
697.948
697.948
697.948
697.948
697.948
697.948
697.948
697.948
697.948
697.948
697.948
697.948
697.948
697.948
697.948
697.948
697.948
697.948
697.948
697.948
697.948
697.948
697.948
697.948
697.948
697.948
697.948
697.948
697.948
697.948
697.948
697.948
697.948
697.948
697.948
697.948
697.948
697.948
697.948
697.948
697.948
697.948
697.948
697.948
697.948
697.948
697.948
697.948
697.948
697.948
697.948
697.948
697.948
697.948
697.948
697.948
697.948
697.948
697.948
697.948
697.948
697.948
697.948
697.948
697.948
697.948
697.948
697.948
697.948
697.948
697.948
697.948
697.948
697.948
697.948
697.948
697.948
697.948
697.948
697.948
697.948
697.948
697.948
697.948
697.948
697.948
697.948
697.948
697.948
697.948
697.948
697.948
697.948
697.948
697.948
697.948
697.948
697.948
697.948
697.948
697.948
697.948
697.948
697.948
697.948
697.948
697.948
697.948
697.948
697.948
697.948
697.948
697.948
697.948
697.948
697.948
697.948
697.948
697.948
697.948
697.948
697.948
697.948
697.948
697.948
697.948
697.948
697.948
697.948
697.948
697.948
697.948
697.948
697.948
697.948
697.948
697.948
697.948
697.948
697.948
697.948
697.948
697.948
697.948
697.948
697.948
697.948
697.948
697.948
697.948
697.948
697.948
697.948
697.948
697.948
697.948
697.948
697.948
697.948
697.948
697.948
697.948
697.948
697.948
697.948
697.948
697.948
697.948
697.948
697.948
697.948
697.948
697.948
697.948
697.948
697.948
697.948
697.948
697.948
697.948
697.948
697.948
697.948
697.948
697.948
697.948
697.948
697.948
697.948
697.948
697.948
697.948
697.948
697.948
697.948
697.948
697.948
697.948
697.948
697.948
697.948
697.948
697.948
697.948
697.948
697.948
697.948
697.948
697.948
697.948
697.948
697.948
697.948
697.948
697.948
697.948
697.948
697.948
697.948
697.948
697.948
697.948
697.948
697.948
697.948
697.948
593.554
697.948
697.948
697.948
697.948
697.948
697.948
697.948
697.948
697.948
697.948
697.948
697.948
697.948
697.948
697.948
697.948
697.948
697.948
697.948
697.948
697.948
697.948
697.948
667.459
697.948
697.948
697.948
697.948
697.948
697.948
697.948
697.948
697.948
697.948
697.948
697.948
697.948
697.948
697.948
697.948
697.948
697.948
697.948
697.948
697.948
697.948
697.947
669.803
697.948
697.948
697.948
697.948
697.948
697.948
697.948
697.948
697.948
697.948
697.948
697.948
697.948
697.948
697.948
697.948
697.948
697.948
697.948
697.948
697.948
697.948
697.647
684.504
697.948
697.948
697.948
697.948
697.948
697.948
697.948
697.948
697.948
697.948
697.948
697.948
697.948
697.948
697.948
697.948
697.948
697.948
697.948
697.948
697.948
697.948
697.479
684.822
697.948
697.948
697.948
697.948
697.948
697.948
697.948
697.948
697.948
697.948
697.948
697.948
697.948
697.948
697.948
697.948
697.948
697.948
697.948
697.948
697.948
697.896
684.135
691.682
697.948
697.948
697.948
697.948
697.948
697.948
697.948
697.948
697.948
697.948
697.948
697.948
697.948
697.948
697.948
697.948
697.948
697.948
697.948
697.948
697.948
697.849
684.186
691.718
697.947
697.948
697.948
697.948
697.948
697.948
697.948
697.948
697.948
697.948
697.948
697.948
697.948
697.948
697.948
697.948
697.948
697.948
697.948
697.948
697.948
697.803
684.231
691.749
697.946
697.948
697.948
697.948
697.948
697.948
697.948
697.948
697.948
697.948
697.948
697.948
697.948
697.948
697.948
697.948
697.948
697.948
697.948
697.948
697.947
697.759
684.273
691.775
697.945
697.948
697.948
697.948
697.948
697.948
697.948
697.948
697.948
697.948
697.948
697.948
697.948
697.948
697.948
697.948
697.948
697.948
697.948
697.948
697.946
697.716
684.311
691.796
697.945
697.948
697.948
697.948
697.948
697.948
697.948
697.948
697.948
697.948
697.948
697.948
697.948
697.948
697.948
697.948
697.948
697.948
697.948
697.948
697.946
697.676
684.347
691.815
697.944
697.948
697.948
697.948
697.948
697.948
697.948
697.948
697.948
697.948
697.948
697.948
697.948
697.948
697.948
697.948
697.948
697.948
697.948
697.948
697.945
697.638
684.381
691.832
697.943
697.948
697.948
697.948
697.948
697.948
697.948
697.948
697.948
697.948
697.948
697.948
697.948
697.948
697.948
697.948
697.948
697.948
697.948
697.948
697.944
697.595
684.416
691.848
697.942
697.948
697.948
697.948
697.948
697.948
697.948
697.948
697.948
697.948
697.948
697.948
697.948
697.948
697.948
697.948
697.948
697.948
697.948
697.948
697.942
697.55
684.452
691.867
697.942
697.948
697.948
697.948
697.948
697.948
697.948
697.948
697.948
697.948
697.948
697.948
697.948
697.948
697.948
697.948
697.948
697.948
697.948
697.948
697.941
697.506
684.488
691.885
697.941
697.948
697.948
697.948
697.948
697.948
697.948
697.948
697.948
697.948
697.948
697.948
697.948
697.948
697.948
697.948
697.948
697.948
697.948
697.948
697.939
697.463
684.522
691.901
697.94
697.948
697.948
697.948
697.948
697.948
697.948
697.948
697.948
697.948
697.948
697.948
697.948
697.948
697.948
697.948
697.948
697.948
697.948
697.948
697.938
697.421
684.555
691.917
697.939
697.948
697.948
697.948
697.948
697.948
697.948
697.948
697.948
697.948
697.948
697.948
697.948
697.948
697.948
697.948
697.948
697.948
697.948
697.948
697.936
697.38
684.588
691.932
697.939
697.948
697.948
697.948
697.948
697.948
697.948
697.948
697.948
697.948
697.948
697.948
697.948
697.948
697.948
697.948
697.948
697.948
697.948
697.948
697.934
697.34
684.62
691.947
697.938
697.948
697.948
697.948
697.948
697.948
697.948
697.948
697.948
697.948
697.948
697.948
697.948
697.948
697.948
697.948
697.948
697.948
697.948
697.948
697.932
697.299
684.652
691.962
697.937
697.948
697.948
697.948
697.948
697.948
697.948
697.948
697.948
697.948
697.948
697.948
697.948
697.948
697.948
697.948
697.948
697.948
697.948
697.948
697.93
697.259
684.684
691.976
697.936
697.948
697.948
697.948
697.948
697.948
697.948
697.948
697.948
697.948
697.948
697.948
697.948
697.948
697.948
697.948
697.948
697.948
697.948
697.948
697.927
697.218
684.716
691.992
697.936
697.948
697.948
697.948
697.948
697.948
697.948
697.948
697.948
697.948
697.948
697.948
697.948
697.948
697.948
697.948
697.948
697.948
697.948
697.948
697.925
697.175
684.749
692.007
697.935
697.948
697.948
697.948
697.948
697.948
697.948
697.948
697.948
697.948
697.948
697.948
697.948
697.948
697.948
697.948
697.948
697.948
697.948
697.948
697.948
697.948
697.948
697.948
697.948
697.948
697.948
589.765
589.637
697.948
697.948
697.948
697.948
697.948
697.948
697.948
697.948
697.948
697.948
697.948
697.948
697.948
697.948
697.948
697.948
697.948
697.948
697.804
697.921
697.475
697.884
697.948
697.948
697.948
697.948
697.948
697.948
697.948
697.371
697.435
692.206
695.13
697.948
697.948
697.948
697.948
697.948
697.948
697.948
697.587
697.476
696.287
693.644
697.948
697.948
697.948
697.624
697.546
697.948
697.948
697.948
697.865
697.805
697.948
616.633
590.116
644.839
697.948
697.948
697.93
697.948
697.948
697.947
697.872
697.948
697.948
697.897
697.948
697.948
697.948
697.93
697.466
697.768
697.948
697.332
695.99
697.836
697.4
695.334
697.456
697.948
697.698
697.18
697.924
697.711
697.948
697.46
697.378
697.948
695.731
696.401
695.934
695.699
693.542
692.058
697.948
696.962
697.171
697.171
696.975
697.948
696.216
696.812
696.451
696.118
697.513
696.44
697.948
697.59
697.82
697.185
697.565
697.948
697.322
697.535
696.883
697.28
697.792
697.653
697.83
697.882
697.948
697.683
697.489
697.559
697.672
697.891
697.871
697.948
697.948
697.948
697.935
697.948
697.948
697.948
697.948
697.948
697.799
697.722
690.041
686.094
697.948
697.948
697.948
697.948
697.939
697.948
697.948
697.948
697.708
697.603
697.948
579.352
597.926
662.613
671.699
599.157
623.52
685.34
678.375
697.948
697.887
697.913
672.718
677.758
697.915
697.928
697.948
697.948
697.948
697.948
697.948
697.948
697.948
697.928
697.948
697.939
697.948
697.942
697.948
697.624
697.728
693.999
694.129
695.367
695.063
697.517
678.224
697.707
693.147
690.491
690.863
693.305
697.836
696.045
697.939
692.25
697.302
691.122
697.931
697.442
697.938
697.948
697.909
696.569
697.937
697.94
696.56
696.476
697.721
697.69
696.22
696.331
697.218
697.943
697.945
697.94
697.942
697.214
697.847
697.947
697.948
697.945
697.947
697.812
696.053
696.092
695.668
695.648
690.017
690.323
696.841
697.94
697.939
697.941
697.94
696.838
697.11
697.939
697.94
697.939
697.939
697.1
580.859
696.494
600.322
579.933
625.529
601.729
696.577
695.704
581.898
695.807
697.181
697.107
697.363
697.942
697.941
697.943
697.942
697.402
647.667
660.576
697.076
647.818
627.428
664.563
650.18
697.132
626.181
645.598
697.744
686.192
690.398
679.05
685.358
697.725
676.692
676.773
678.619
604.894
678.325
676.056
614.717
693.206
693.399
697.946
697.948
697.948
697.948
697.948
697.899
697.891
637.646
697.621
697.807
697.947
697.852
697.807
697.948
605.064
608.383
577.018
676.033
675.802
611.233
616.218
692.244
693.143
541.167
697.948
697.948
697.948
697.948
697.948
697.948
697.871
697.947
697.946
697.49
697.306
697.817
697.37
697.94
697.94
697.941
697.94
697.378
693.101
694.751
695.898
693.895
666.024
660.783
697.844
693.567
695.315
696.932
696.955
613.369
697.948
697.945
697.948
697.915
697.579
697.377
697.947
697.948
697.948
697.948
697.948
697.945
697.582
697.943
697.941
697.946
697.944
697.625
696.989
681.536
690.972
675.438
676.841
696.18
691.92
692.913
697.543
695.692
696.722
697.421
697.903
697.907
697.87
697.876
697.195
697.94
697.94
697.407
695.889
672.217
666.995
695.793
673.385
675.047
666.049
666.98
695.635
692.123
691.011
696.886
697.87
697.866
697.859
697.887
697.043
697.149
697.864
697.868
697.865
697.863
697.039
697.391
690.271
691.863
688.159
687.282
696.768
697.774
697.944
697.944
697.945
697.945
697.786
697.429
674.844
666.101
683.123
680.656
697.459
631.284
634.208
697.616
685.655
683.848
628.038
630.473
672.589
667.417
697.946
697.947
697.948
660.371
688.574
662.839
665.851
664.548
688.065
697.948
697.942
697.948
697.926
697.947
581.873
587.706
605.19
605.097
667.117
615.055
611.738
621.596
615.987
668.285
605.699
610.282
682.735
681.56
675.262
629.868
624.461
616.714
619.242
697.907
697.945
697.948
697.933
697.944
697.892
697.499
697.804
693.242
694.617
695.802
694.058
679.759
692.632
691.472
693.858
692.997
679.465
688.841
687.76
691.112
689.454
692.204
674.152
677.534
668.14
672.499
691.811
657.984
659.377
694.754
697.777
697.615
697.919
697.823
695.398
696.503
696.115
697.483
696.668
697.854
697.945
697.93
697.791
697.67
697.827
697.62
697.922
697.675
697.879
697.926
697.715
697.858
697.946
697.906
697.841
678.696
680.179
696.859
665.214
658.928
682.818
666.5
650.043
644.412
657.024
652.54
696.251
677.344
678.34
690.749
688.883
695.906
692.332
686.764
684.839
688.558
687.266
697.583
693.139
693.771
695.813
696.661
697.889
697.899
697.307
697.201
697.878
697.886
673.693
673.133
695.937
637.741
637.894
614.466
634.843
635.744
643.101
637.397
635.912
670.934
672.835
695.754
635.477
629.751
643.107
637.228
618.975
613.365
627.522
621.664
695.638
667.934
670.173
691.15
690.751
697.876
697.871
696.871
696.962
697.885
697.878
697.862
697.864
697.141
697.05
697.862
697.862
582.894
588.992
675.382
678.942
670.67
674.112
582.174
615.93
683.672
678.264
679.921
682.782
611.027
655.08
657.18
647.402
654.3
587.677
666.016
669.7
658.318
664.101
587.593
688.892
689.882
697.346
684.763
686.713
687.257
684.666
686.696
696.85
686.687
688.058
653.029
597.394
597.326
609.497
598.905
654.899
604.94
633.77
597.53
636.925
682.324
694.843
694.125
695.711
695.086
682.871
673.979
674.941
635.593
638.959
621.21
627
676.241
673.801
697.948
697.948
697.948
697.948
697.936
697.938
697.948
697.948
697.948
697.948
697.948
697.948
697.948
697.948
697.948
697.948
697.948
697.888
697.481
696.746
696.65
692.438
695
697.941
697.942
697.521
690.347
689.834
693.718
692.217
693.04
697.626
697.945
697.948
697.948
697.149
697.391
697.897
697.939
697.918
697.946
697.819
695.829
697.037
695.453
696.549
696.422
697.391
697.585
697.587
697.186
697.914
697.919
697.731
697.418
697.94
697.941
676.202
674.015
696.256
693.357
691.01
690.835
691.909
696.95
697.574
697.572
697.165
697.579
697.582
697.571
697.57
696.991
695.511
679.584
677.307
697.222
697.867
697.863
697.856
697.946
697.946
602.596
602.658
687.521
686.18
697.632
602.77
602.635
695.485
695.881
697.885
697.938
697.93
578.307
581.484
582.571
596.28
600.509
579.328
580.344
599.224
595.773
620.055
673.283
672.307
679.442
634.048
630.779
675.941
697.948
697.948
697.948
697.906
697.926
697.94
697.944
697.869
697.884
697.948
697.948
697.948
697.218
697.171
697.552
697.772
697.593
697.5
693.633
694.259
691.574
691.954
695.568
694.685
689.958
690.808
680.946
681.122
685.444
684.841
678.222
681.527
681.974
697.649
693.369
694.274
695.572
693.474
696.377
696.037
697.7
697.569
696.995
686.789
685.238
695.156
692.618
689.017
697.948
697.947
697.896
697.877
697.743
697.81
696.977
697.768
697.831
693.98
695.113
697.8
683.239
681.381
696.109
696.44
697.936
697.939
697.887
697.74
697.924
697.93
696.214
673.769
673.615
690.005
690.468
697.57
697.571
697.119
697.08
697.569
697.569
582.334
598.585
629.623
631.717
608.293
609.94
578.191
681.241
680.017
695.607
587.425
584.913
600.582
600.804
583.97
606.492
607.32
583.001
583.568
697.875
697.871
697.244
697.478
697.884
697.88
638.003
682.125
683.336
679.564
680.845
634.578
688.124
695.333
695.882
695.782
695.569
688.773
680.394
687.047
686.224
674.873
673.627
676.741
608.575
610.445
611.394
603.722
679.855
640.667
635.735
644.866
641.844
675.297
658.118
658.561
678.454
681.355
694.025
697.946
697.946
697.941
605.284
606.249
635.283
635.131
574.087
614.016
609.177
609.131
607.565
608.537
615.461
542.666
675.196
676.173
697.948
697.948
697.948
696.93
696.84
697.485
697.126
697.445
697.66
697.352
697.407
692.805
694.874
687.898
688.477
688.457
687.852
693.793
689.455
689.221
664.838
656.891
656.774
657.935
657.743
663.349
697.53
697.762
697.771
697.729
697.754
697.474
695.571
697.207
696.302
695.997
697.191
697.59
697.593
690.974
691.093
692.966
691.386
697.577
697.575
696.914
697.576
697.577
697.157
697.018
697.569
697.569
688.231
690.192
689.365
690.882
690.623
688.072
602.876
603.495
603.461
603.021
628.882
614.277
613.649
659.015
658.941
671.002
661.099
663.184
657.354
658.952
669.167
697.942
697.94
697.944
697.937
697.946
697.948
697.948
697.944
697.946
697.943
662.266
675.843
674.962
678.3
677.024
663.338
667.784
671.746
670.001
674.257
673.351
666.448
697.945
697.947
697.946
697.889
697.843
697.937
697.929
578.522
593.335
583.235
582.706
605.217
605.169
627.263
629.083
613.136
580.011
578.843
602.488
588.442
588.795
587.315
615.454
589.931
584.092
674.41
676.054
683.767
670.367
670.772
669.241
669.543
680.421
671.95
672.691
617.209
605.238
606.435
603.998
604.223
617.95
697.931
697.935
697.917
697.85
697.894
697.924
696.794
697.516
697.104
697.017
697.193
697.266
697.024
697.114
693.388
694.396
689.122
689.324
688.696
688.914
695.7
692.155
692.296
689.179
689.455
694.324
689.332
682.562
681.353
678.804
684.335
683.685
688.393
682.452
682.302
684.267
683.228
688.076
690.683
685.318
685.956
682.983
684.2
690.113
682.101
669.577
680.335
679.432
657.047
657.807
694.459
696.658
696.52
694.117
695.947
697.208
696.88
689.301
687.991
693.736
694.028
696.255
691.98
690.675
697.37
697.545
697.837
697.657
697.145
696.413
697.102
697.794
697.874
697.891
697.79
697.825
697.648
697.432
697.626
697.893
697.83
697.795
697.898
697.845
697.908
697.749
697.761
697.673
697.784
663.602
661.115
678.143
657.336
659.559
652.683
667.669
647.872
646.001
655.39
654.026
689.795
680.999
683.068
676.915
678.875
689.257
695.503
692.277
693.25
684.293
689.983
694.518
679.643
676.246
686.26
664.961
666.739
662.027
663.461
685.7
688.229
673.709
675.196
668.784
671.114
687.766
695.997
696.575
638.616
616.53
619.578
610.339
613.28
638.37
619.817
621.088
620.892
627.789
636.797
594.646
597.441
599.762
594.952
639.231
636.909
605.242
607.667
600.531
603.062
636.429
634.045
632.348
641.732
639.307
616.615
614.512
625.638
624.08
690.44
690.603
697.129
697.572
697.574
697.568
697.568
697.062
583.327
622.396
626.663
595.38
578.27
612.913
617.387
592.805
590.031
655.712
618.417
618.642
650.91
614.454
607.441
618.592
617.526
653.078
599.045
595.79
601.827
605.01
586.095
587.67
595.048
689.334
693.272
692.954
693.739
693.513
689.608
685.419
686.32
686.314
684.67
684.632
685.289
686.597
691.495
691.136
692.509
691.985
687.158
597.031
609.9
611.646
607.262
608.554
597.109
605.699
621.406
624.772
614.178
617.612
601.978
604.116
589.761
591.52
588.944
589.169
597.639
603.233
605.684
594.792
598.99
597.089
688.293
687.756
681.623
673.856
676.064
605.072
607.727
623.49
608.376
605.374
612.801
611.284
625.532
604.057
603.912
658.318
658.297
697.948
697.948
697.948
697.948
697.948
697.948
697.948
697.948
697.948
697.948
697.948
697.948
697.948
697.948
697.948
697.948
697.948
697.948
697.948
697.948
697.948
697.948
697.948
697.948
697.948
697.948
697.948
697.948
697.948
697.948
697.948
697.948
697.948
697.948
697.948
697.948
697.948
697.948
697.948
697.948
697.948
697.948
697.948
697.948
697.948
697.948
697.948
697.948
697.948
697.948
697.948
697.948
697.948
697.948
697.948
697.948
697.948
697.948
697.948
697.948
697.948
697.948
697.948
697.948
697.948
697.948
697.948
697.948
697.948
697.948
697.948
697.948
697.948
697.948
697.948
697.948
697.948
697.948
697.948
697.948
697.948
697.948
697.948
697.948
697.948
697.947
697.947
697.948
697.948
697.948
697.948
697.948
697.948
697.948
697.948
697.948
697.948
697.948
697.948
697.948
697.947
697.947
697.948
697.948
697.948
697.948
697.948
697.948
697.948
697.948
697.948
697.948
697.948
697.948
697.948
697.948
697.948
697.948
697.948
697.948
697.948
697.948
697.948
697.948
697.948
697.948
697.948
697.948
697.948
697.948
697.948
697.948
697.948
697.948
697.948
697.948
697.87
697.869
605.194
690.282
690.838
697.948
697.948
697.948
697.948
697.948
697.948
697.948
697.948
697.948
697.948
697.948
697.948
697.947
643.821
642.583
669.256
697.948
697.948
697.948
697.948
697.948
697.948
697.948
697.948
697.948
697.948
697.948
697.759
669.511
644.181
684.331
697.938
697.948
697.948
697.948
697.948
697.948
697.948
697.948
697.948
697.948
697.948
697.948
697.948
697.948
697.948
697.948
697.948
697.948
697.947
697.946
697.948
697.948
697.948
697.947
697.947
697.948
697.948
697.946
697.946
697.946
697.946
697.948
697.948
697.948
697.948
697.948
697.947
697.948
697.946
697.947
697.948
697.948
697.948
697.948
697.948
697.948
697.948
697.869
697.901
697.948
574.173
628.788
629.346
655.325
655.458
543.635
697.948
697.948
697.948
697.948
697.948
697.948
697.948
697.948
697.947
697.948
697.948
697.948
697.948
697.948
697.948
697.948
697.948
697.948
697.948
697.948
697.948
697.948
697.948
697.948
697.948
697.948
697.948
697.948
697.948
697.948
697.947
697.942
697.948
697.948
697.948
697.948
697.948
697.948
697.948
697.948
697.948
697.948
697.948
697.948
697.948
697.948
697.948
697.948
697.948
697.948
697.948
697.948
697.948
697.948
697.948
697.948
697.83
697.916
697.909
697.942
697.94
697.912
697.811
697.736
697.86
697.948
697.948
697.948
697.948
697.948
697.948
697.948
697.948
697.948
697.948
697.948
697.948
697.948
697.948
697.948
697.948
697.948
697.948
697.947
697.947
697.948
697.367
697.806
697.807
697.821
697.814
697.41
697.948
697.948
697.948
697.948
697.948
697.948
697.948
697.948
697.948
697.948
697.948
697.948
697.948
697.948
697.948
697.948
697.948
697.948
697.948
697.947
697.948
697.537
697.942
697.943
697.831
697.835
697.491
696.136
692.926
693.35
697.948
697.948
697.948
697.948
697.948
697.948
697.948
697.948
697.948
697.592
695.381
695.887
696.729
696.818
697.575
697.948
697.948
697.948
697.948
697.948
697.948
697.948
697.948
697.948
697.859
697.599
697.624
697.376
697.423
697.816
697.904
697.87
697.948
614.091
696.955
696.921
676.014
676.386
591.979
697.654
697.628
639.537
697.948
697.923
697.935
697.938
697.923
697.948
697.937
697.946
697.944
697.948
697.948
697.946
697.948
697.948
697.948
697.946
697.911
697.941
697.948
697.948
697.948
697.945
697.947
697.948
697.904
697.854
697.841
697.947
697.946
697.947
697.948
697.948
697.948
697.948
697.948
697.948
697.945
697.946
697.939
697.501
697.837
697.828
697.901
697.891
697.721
697.948
697.948
697.948
697.241
696.223
696.495
693.267
693.376
696.048
696.67
696.791
697.455
697.947
697.947
697.948
697.67
697.809
697.824
697.895
697.942
697.943
697.832
697.839
697.718
697.948
697.948
697.948
697.445
697.824
697.827
697.809
697.81
697.387
697.948
697.947
697.947
695.786
692.693
692.56
694.072
693.947
696.35
695.884
693.067
693.165
692.464
692.402
695.662
697.946
697.946
697.948
697.687
697.677
697.149
697.948
697.946
697.946
696.312
687.882
686.454
693.239
692.929
696.737
696.499
694.319
694.198
685.998
684.423
696.018
697.476
696.512
696.628
693.804
694.184
696.575
697.947
697.947
697.948
697.651
697.899
697.895
697.916
697.913
697.809
697.195
697.703
697.695
697.891
697.888
697.497
697.948
697.947
697.947
697.361
695.562
695.398
696.291
696.195
697.512
696.951
693.817
693.533
695.22
695.027
697.234
697.778
697.263
697.322
696.035
696.42
697.68
697.839
697.92
697.918
697.947
697.946
697.863
697.948
697.948
697.948
697.708
688.849
687.905
686.615
688.258
697.695
697.58
696.459
696.379
697.888
695.945
696.03
697.948
697.948
697.948
697.948
697.948
697.948
697.948
697.948
697.948
697.948
697.948
697.948
697.948
697.948
697.948
697.948
697.948
697.948
697.948
697.948
697.948
697.77
697.94
697.94
697.939
697.939
697.758
689.559
684.421
685.202
679.292
680.491
686.832
697.948
697.948
697.948
697.948
697.948
697.948
697.917
697.934
697.944
697.948
697.948
697.948
697.948
697.948
697.948
697.948
697.948
697.948
697.665
697.944
697.938
697.943
697.944
697.65
697.948
697.948
697.948
664.33
646.96
645.12
655.994
654.348
670.567
684.592
677.125
678.125
697.948
697.948
697.948
697.9
697.947
697.947
697.946
697.947
697.904
673.679
659.123
657.612
665.386
664.439
677.171
697.922
697.947
697.946
697.947
697.947
697.924
697.948
697.948
697.948
697.948
697.948
697.948
697.948
697.948
697.948
697.948
697.948
697.948
697.948
697.948
697.948
697.948
697.948
697.948
697.948
697.948
697.948
697.948
697.947
697.948
697.948
697.948
697.948
697.946
697.947
697.944
697.948
697.948
697.948
694.506
695.177
697.556
697.69
697.187
697.245
692.871
689.326
689.766
685.925
686.556
690.899
692.078
696.145
695.974
696.436
696.298
692.41
697.827
697.467
697.505
697.82
697.893
697.944
697.916
697.48
697.772
697.56
697.82
697.766
697.946
697.942
697.927
697.948
697.948
697.948
697.922
697.914
697.934
697.942
697.933
697.928
694.32
694.497
696.647
696.399
694.022
694.164
697.376
697.456
697.75
697.656
697.22
697.298
697.617
697.627
697.227
697.943
697.931
697.929
697.936
697.933
697.944
697.941
697.924
697.922
697.927
697.925
697.941
697.211
697.606
697.61
697.903
697.911
697.866
697.948
697.946
697.945
697.947
697.946
697.948
697.946
697.94
697.938
697.943
697.942
697.947
697.777
697.878
697.892
693.333
693.261
696.016
696.132
693.482
693.407
692.581
692.651
695.692
695.641
692.466
692.519
697.589
697.585
696.849
697.94
697.921
697.922
697.92
697.921
697.94
697.941
697.925
697.925
697.923
697.924
697.94
696.851
697.602
697.594
697.939
697.92
697.92
697.921
697.92
697.939
697.939
697.92
697.92
697.919
697.92
697.939
691.889
688.366
696.407
623.268
649.976
652.393
633.532
635.519
603.597
696.659
692.589
692.24
695.912
683.751
681.742
695.688
695.857
697.243
697.023
695.249
695.481
697.76
697.748
697.318
697.942
697.928
697.929
697.926
697.927
697.942
697.943
697.932
697.933
697.93
697.931
697.943
697.433
697.78
697.771
649.502
628.443
626.587
642.908
640.294
658.779
694.352
694.092
697.015
644.995
667.254
669.022
654.423
656.486
629.395
658.695
686.35
687.203
684.418
685.413
656.518
697.185
694.817
694.593
628.544
603.52
601.523
624.403
621.491
643.122
697.124
697.197
697.762
686.858
691.22
690.785
693.694
693.39
689.909
690.286
689.75
684.415
697.703
696.953
697.043
677.463
648.985
645.833
653.031
650.203
678.126
678.869
667.284
666.344
692.971
682.141
683.89
690.179
690.575
693.628
697.948
697.948
697.948
697.948
697.948
697.948
697.897
697.943
697.943
697.942
697.943
697.894
685.775
685.373
635.446
697.623
695.744
695.787
695.635
695.755
697.649
697.836
697.942
697.942
697.941
697.941
697.83
697.948
697.948
697.948
605.723
601.769
574.253
675.651
654.647
649.084
655.507
654.983
675.641
692.947
680.468
679.113
683.574
686.377
693.184
541.489
615.726
631.426
697.948
697.948
697.948
697.948
697.948
697.948
697.948
697.948
697.948
697.948
697.948
697.948
697.948
697.948
697.948
697.948
697.948
697.948
697.928
697.923
697.852
697.947
697.942
697.943
697.938
697.94
697.947
697.835
697.682
697.653
697.806
697.806
697.366
697.94
697.913
697.913
697.913
697.913
697.94
697.94
697.915
697.917
697.913
697.914
697.94
697.391
697.81
697.807
692.435
692.624
696.005
697.54
697.571
697.852
694.921
696.668
696.558
696.854
696.766
695.127
696.944
690.184
686.763
690.254
690.235
696.951
612.636
666.576
666.277
697.948
697.948
697.948
697.948
697.948
697.948
697.948
697.948
697.948
697.87
697.862
697.91
697.948
697.948
697.947
697.948
697.948
697.948
697.948
697.948
697.948
697.948
697.948
697.947
697.948
697.948
697.948
697.942
697.947
697.948
697.858
697.847
697.54
697.942
697.923
697.926
697.919
697.921
697.942
697.945
697.934
697.936
697.929
697.931
697.944
697.671
697.879
697.868
695.367
695.816
697.123
684.363
692.459
691.111
694.678
693.861
688.71
675.863
687.588
687.403
688.007
687.791
676.334
696.113
693.495
693.622
692.378
695.335
695.093
695.657
695.508
692.672
697.501
696.888
696.975
697.73
697.781
697.595
697.905
697.893
697.876
697.872
697.79
697.787
697.797
697.793
697.874
697.94
697.914
697.913
697.915
697.914
697.94
697.397
697.813
697.815
692.979
692.84
695.836
670.619
686.19
686.641
685.226
685.677
668.669
692.88
692.97
695.835
673.989
686.844
686.644
687.228
687.047
674.606
665.744
684.774
684.924
684.858
684.732
666.157
695.653
692.374
692.361
697.869
697.781
697.782
697.778
697.779
697.867
697.814
697.82
697.889
697.109
697.662
697.646
697.866
697.779
697.777
697.784
697.781
697.867
697.864
697.775
697.776
697.774
697.774
697.864
696.256
696.386
697.435
690.803
694.275
693.991
694.823
694.563
691.375
696.682
694.448
694.642
697.905
697.902
697.76
697.944
697.935
697.936
697.934
697.935
697.944
697.945
697.938
697.939
697.937
697.938
697.945
697.798
697.911
697.908
695.85
695.711
697.396
671.338
689.318
689.906
687.974
688.676
670.09
682.349
691.324
691.713
690.427
690.898
681.535
697.487
696.09
695.975
632.139
616.898
616.185
618.85
617.731
633.083
696.599
696.532
697.599
685.099
692.676
692.942
692.068
692.386
684.501
615.525
614.892
629.678
697.948
697.947
697.946
682.968
683.66
689.066
687.497
681.522
682.3
697.947
697.948
697.948
697.948
697.948
697.948
697.946
697.942
697.945
649.98
648.531
665.785
614.164
630.525
631.814
619.03
636.355
638.479
633.105
634.57
617.201
669.48
652.818
651.368
661.558
660.43
674.519
628.695
644.359
645.651
640.701
642.726
626.957
697.946
697.943
697.941
697.947
697.945
697.947
697.937
697.92
697.913
697.938
697.928
697.941
697.637
697.623
697.791
692.232
687.741
688.508
686.445
687.015
691.837
693.589
690.091
690.522
689.168
689.669
693.31
688.308
688.845
692.558
675.57
683.698
682.899
684.993
684.38
676.633
682.03
681.167
670.913
691.371
687.148
687.738
697.733
697.377
697.46
697.145
697.292
697.685
697.901
697.809
697.859
697.567
697.699
697.868
696.375
694.24
694.456
697.206
695.879
696.788
694.739
695.198
696.904
697.917
697.875
697.695
697.942
697.928
697.939
697.888
697.91
697.937
697.928
697.899
697.882
697.941
697.937
697.944
697.879
697.92
697.93
697.9
697.909
697.856
679.089
689.334
689.062
690.217
689.689
679.548
696.747
694.711
694.99
693.754
693.886
696.323
677.703
688.428
688.227
688.83
688.623
678.013
697.059
697.14
697.621
693.36
695.936
695.798
696.207
696.072
693.572
697.892
697.83
697.822
697.857
697.841
697.895
697.252
697.646
697.679
697.597
697.602
697.208
697.881
697.806
697.801
697.816
697.811
697.883
673.72
687.309
687.426
686.963
687.168
673.548
695.977
693.183
693.093
671.722
686.091
685.877
686.458
686.281
672.325
695.722
692.723
692.798
692.382
692.419
695.631
668.806
685.282
685.068
685.667
685.473
669.478
697.874
697.789
697.792
697.784
697.787
697.873
696.859
697.582
697.579
697.629
697.614
696.891
697.882
697.803
697.809
697.795
697.798
697.88
697.862
697.774
697.773
697.776
697.775
697.863
697.862
697.773
697.773
697.773
697.773
697.862
676.577
655.203
652.705
658.954
657.254
677.832
671.702
645.211
643.596
649.947
647.333
672.852
644.028
646.885
620.169
684.492
669.093
667.363
680.898