/*--------------------------------*- C++ -*----------------------------------*\
| =========                 |                                                 |
| \\      /  F ield         | OpenFOAM: The Open Source CFD Toolbox           |
|  \\    /   O peration     | Version:  5.x                                   |
|   \\  /    A nd           | Web:      www.OpenFOAM.org                      |
|    \\/     M anipulation  |                                                 |
\*---------------------------------------------------------------------------*/
FoamFile
{
    version     2.0;
    format      ascii;
    class       volVectorField;
    location    "400";
    object      U;
}
// * * * * * * * * * * * * * * * * * * * * * * * * * * * * * * * * * * * * * //

dimensions      [0 1 -1 0 0 0 0];

internalField   nonuniform List<vector> 
6584
(
(1.00007 -0.000192551 4.55609e-27)
(1.00005 -0.000423332 2.21336e-25)
(1.00007 -0.000575685 2.00749e-30)
(1.00007 -0.000784958 -3.98061e-25)
(1.00008 -0.00100562 0)
(1.00008 -0.00124838 0)
(1.00007 -0.00148753 0)
(1.00003 -0.00164401 4.13436e-25)
(0.999955 -0.0016521 4.18552e-25)
(0.999839 -0.00135553 0)
(0.99972 -0.00055554 1.7564e-25)
(0.999639 0.000688821 -1.76229e-25)
(0.999664 0.00206922 -1.06594e-26)
(0.99979 0.00313468 2.66638e-26)
(0.999936 0.00361215 8.13571e-27)
(1.00009 0.00351644 8.79232e-25)
(1.00016 0.00309603 7.83759e-25)
(1.00018 0.00256338 6.354e-26)
(1.00017 0.00202309 5.4469e-25)
(1.00015 0.00154398 3.91763e-25)
(1.00012 0.00115216 0)
(1.0001 0.000813326 0)
(1.00008 0.000577446 5.8596e-25)
(1.0001 0.000256527 3.59169e-25)
(1.0003 -0.00040447 -2.15992e-25)
(1.00026 -0.00085248 -8.42338e-25)
(1.00031 -0.00113629 -1.13186e-24)
(1.00034 -0.00155909 0)
(1.00038 -0.00200444 -1.5313e-25)
(1.00039 -0.00250839 -1.27333e-24)
(1.00035 -0.00302979 -7.78254e-25)
(1.00013 -0.00339918 1.31639e-24)
(0.999831 -0.00348195 -6.35884e-26)
(0.999052 -0.00293498 -2.99142e-25)
(0.998127 -0.00130494 -1.00275e-28)
(0.997546 0.00131895 0)
(0.997714 0.0042693 5.0006e-25)
(0.998589 0.00651185 3.02367e-25)
(0.999725 0.00749489 -1.96328e-24)
(1.00049 0.00723937 -5.20621e-25)
(1.00079 0.00628195 -1.20562e-24)
(1.00089 0.00513985 -1.5704e-24)
(1.00083 0.00401323 -4.03082e-24)
(1.00071 0.0030394 -3.31509e-24)
(1.00058 0.00226213 -2.30473e-25)
(1.00049 0.00158709 -9.67928e-26)
(1.00038 0.00114993 0)
(1.00041 0.000532754 3.13799e-25)
(1.00066 -0.000620663 -5.45443e-25)
(1.00063 -0.00126094 0)
(1.00075 -0.00165391 -2.22784e-25)
(1.00084 -0.00229062 -1.47619e-24)
(1.00097 -0.00297303 -2.24801e-24)
(1.00102 -0.00378638 0)
(1.00093 -0.00471357 0)
(1.00046 -0.00542559 -3.30915e-25)
(0.999572 -0.00617166 -1.2974e-25)
(0.998239 -0.00427891 1.03407e-25)
(0.9967 -0.00227881 -1.81361e-25)
(0.995534 0.00116468 -2.55614e-25)
(0.995713 0.00532206 0)
(0.99729 0.00857422 0)
(0.999285 0.0100614 3.31784e-26)
(1.00125 0.0116516 -2.19279e-24)
(1.00208 0.0096694 0)
(1.00228 0.00771844 -7.07183e-25)
(1.00208 0.00589475 0)
(1.00175 0.00439345 -5.28642e-25)
(1.00141 0.00324429 -1.41939e-24)
(1.00116 0.00225358 -8.46276e-25)
(1.00092 0.00165978 0)
(1.00089 0.000798371 2.43912e-25)
(1.0011 -0.000821409 -3.34078e-25)
(1.00112 -0.00161529 0)
(1.00134 -0.00209461 -2.99422e-25)
(1.00155 -0.00293273 0)
(1.00182 -0.00385589 0)
(1.00201 -0.00503978 0)
(1.00199 -0.00652763 -5.49546e-25)
(1.00135 -0.00797382 4.22135e-24)
(0.999659 -0.00977264 -2.9542e-25)
(0.997084 -0.0078314 3.18827e-25)
(0.993728 -0.0054758 -1.91861e-25)
(0.990421 6.95469e-05 4.35355e-26)
(0.990224 0.00801624 4.80089e-26)
(0.99396 0.0141753 0)
(0.998593 0.0160112 -3.26851e-24)
(1.00187 0.0146242 0)
(1.00457 0.0132435 0)
(1.00451 0.0102536 5.09358e-24)
(1.00397 0.00755248 3.3252e-24)
(1.00322 0.00549654 -1.10949e-24)
(1.00256 0.00400911 -7.70812e-25)
(1.00205 0.00274967 0)
(1.00162 0.00204785 3.54859e-25)
(1.00146 0.00101875 2.88651e-25)
(1.00159 -0.000986917 -1.29241e-25)
(1.00171 -0.00188116 -8.33235e-27)
(1.00206 -0.00241317 -3.96968e-26)
(1.00245 -0.00342093 -6.09711e-26)
(1.00296 -0.0045516 1.16851e-25)
(1.0035 -0.00613222 3.26846e-24)
(1.00376 -0.00830367 -5.33641e-24)
(1.00352 -0.0107213 4.91902e-24)
(1.00017 -0.0116362 2.43533e-25)
(0.996759 -0.0129699 1.45109e-24)
(0.990169 -0.0114763 -2.26682e-25)
(0.981201 -0.00324293 2.56759e-25)
(0.979562 0.0121174 -3.85819e-26)
(0.989002 0.0234141 4.6863e-24)
(0.999053 0.0247118 0)
(1.00471 0.0208104 3.18518e-24)
(1.0065 0.0156559 -7.03223e-25)
(1.00766 0.0119171 -4.08246e-24)
(1.00649 0.00872597 -2.31554e-24)
(1.00507 0.00615428 9.34901e-25)
(1.00395 0.00444686 -5.44365e-26)
(1.00308 0.00300022 -3.09834e-26)
(1.00242 0.00225799 4.03562e-25)
(1.00206 0.0011618 -1.52297e-25)
(1.0021 -0.0010977 6.39728e-26)
(1.00235 -0.00202369 -1.70408e-25)
(1.00286 -0.00255684 -8.73629e-27)
(1.00351 -0.00366502 0)
(1.00436 -0.00488865 -7.00015e-25)
(1.00546 -0.00679978 -3.32366e-25)
(1.00629 -0.00916031 -2.1351e-24)
(1.00519 -0.0117467 -5.1069e-25)
(1.00321 -0.0156254 2.12059e-24)
(0.999395 -0.020668 8.27654e-24)
(0.986934 -0.0208711 1.76604e-24)
(0.969706 -0.0126339 2.66011e-28)
(0.962019 0.01546 -7.77688e-26)
(0.982409 0.036596 6.83961e-25)
(1.00334 0.0377618 -7.17505e-24)
(1.0109 0.0279199 0)
(1.01178 0.0196233 4.20574e-28)
(1.01176 0.01276 7.82375e-25)
(1.00952 0.00915836 1.97243e-25)
(1.0072 0.00620247 1.05584e-24)
(1.00549 0.00444527 -3.88453e-25)
(1.00417 0.00293611 0)
(1.00324 0.00224079 -2.07022e-25)
(1.00263 0.00119817 -2.88954e-25)
(1.00258 -0.00113793 5.9643e-28)
(1.00299 -0.0020171 -8.10497e-26)
(1.00366 -0.00248578 1.01191e-25)
(1.00462 -0.00359486 1.48466e-26)
(1.00587 -0.00474189 2.04873e-26)
(1.00767 -0.00681484 -1.10236e-24)
(1.00942 -0.00913828 -1.53756e-24)
(1.009 -0.0128086 -6.4132e-26)
(1.00939 -0.0189133 -3.17884e-25)
(1.00762 -0.0287004 1.24358e-24)
(0.992807 -0.0388375 0)
(0.954446 -0.0410524 1.17953e-24)
(0.910278 0.0221741 4.36025e-26)
(0.97984 0.0746722 3.19882e-24)
(1.01285 0.0525776 -1.52442e-26)
(1.02233 0.0335044 0)
(1.01952 0.0213258 2.17625e-24)
(1.01659 0.0119362 4.48626e-25)
(1.01281 0.00846222 3.68799e-25)
(1.0094 0.00546396 -9.60196e-26)
(1.00702 0.00390905 -8.37547e-25)
(1.0052 0.00250887 0)
(1.00399 0.00196302 -1.88735e-25)
(1.0031 0.00110587 -1.76269e-25)
(1.00298 -0.00109969 -7.72482e-26)
(1.00356 -0.00185404 6.88912e-26)
(1.00439 -0.00218874 3.56518e-26)
(1.00564 -0.003178 2.35565e-26)
(1.00729 -0.00404383 -4.49393e-26)
(1.0098 -0.0059491 5.30426e-25)
(1.01267 -0.007694 1.40506e-28)
(1.0138 -0.0118645 -2.23671e-25)
(1.01783 -0.0186623 2.1034e-28)
(1.02261 -0.0309237 -3.06293e-24)
(1.01818 -0.0536232 -9.39998e-26)
(0.993968 -0.107699 3.44141e-26)
(1.02264 0.131305 5.64768e-25)
(1.04237 0.0635803 -5.6196e-25)
(1.03881 0.0328199 1.19254e-24)
(1.02902 0.0190481 -2.40709e-25)
(1.02134 0.00889894 7.78486e-25)
(1.01583 0.00638835 7.93351e-25)
(1.01134 0.00385189 5.5265e-25)
(1.00831 0.00280389 -2.54077e-25)
(1.00601 0.0017126 0)
(1.00455 0.00142061 0)
(1.00338 0.000876633 -2.43337e-30)
(1.00328 -0.000986731 -1.3896e-26)
(1.004 -0.00155274 -2.04348e-27)
(1.00493 -0.00169723 -9.78822e-27)
(1.0064 -0.0024516 5.95802e-26)
(1.00836 -0.00285468 7.57626e-26)
(1.01137 -0.00423292 3.79137e-25)
(1.01516 -0.00487634 1.06008e-24)
(1.01821 -0.00848088 0)
(1.02582 -0.0132795 0)
(1.03812 -0.0217651 0)
(1.05261 -0.0420873 -1.07642e-25)
(1.0845 -0.0882961 1.40962e-26)
(1.12668 0.109393 0)
(1.08019 0.0467131 0)
(1.05437 0.0215503 0)
(1.03745 0.0117107 2.37267e-25)
(1.02475 0.00381457 0)
(1.01787 0.00303538 -8.50238e-25)
(1.01263 0.00148624 -5.56003e-25)
(1.00912 0.00120757 -5.0854e-26)
(1.00647 0.000607117 0)
(1.00484 0.000649526 9.12603e-27)
(1.00344 0.000520462 7.89544e-27)
(1.00344 -0.000815287 2.53363e-27)
(1.00426 -0.00115812 -4.04568e-27)
(1.00523 -0.00108907 4.59782e-27)
(1.0068 -0.00153884 2.4599e-26)
(1.00887 -0.00140029 -6.29411e-26)
(1.01201 -0.00203011 -4.8429e-27)
(1.01613 -0.00140451 -1.10201e-25)
(1.02061 -0.00343577 -6.55273e-27)
(1.0297 -0.00432084 0)
(1.04491 -0.00505007 -2.77412e-25)
(1.06912 -0.010508 1.18702e-30)
(1.11792 -0.0187287 -3.57276e-26)
(1.17101 0.0212237 -9.13096e-26)
(1.0997 0.00795581 -3.34041e-25)
(1.06108 0.00257316 -2.56293e-24)
(1.04146 0.000818463 0)
(1.02576 -0.00224651 -1.6696e-24)
(1.01838 -0.00104533 0)
(1.01296 -0.00128281 -1.02994e-26)
(1.00927 -0.000678277 0)
(1.00647 -0.000679289 4.59428e-28)
(1.00479 -0.000273467 -1.86661e-27)
(1.00322 6.709e-05 -3.4943e-26)
(1.00347 -0.0006111 0)
(1.00433 -0.000732265 -2.1694e-26)
(1.00526 -0.000468573 -2.29123e-26)
(1.0068 -0.000612608 -3.16236e-27)
(1.00877 8.27204e-06 1.51368e-26)
(1.01162 0.000115612 1.02129e-25)
(1.01541 0.00175338 3.87881e-25)
(1.02025 0.00163023 1.7127e-25)
(1.02817 0.0045214 0)
(1.0405 0.0107561 1.37485e-24)
(1.06191 0.0201406 4.20262e-25)
(1.09879 0.043084 -1.65169e-26)
(1.14697 -0.0617419 -4.3251e-26)
(1.09183 -0.0307148 5.54167e-25)
(1.05647 -0.0163993 1.09547e-25)
(1.03965 -0.0102007 1.4769e-24)
(1.02412 -0.00785562 7.3538e-24)
(1.01724 -0.00504734 4.08425e-24)
(1.01225 -0.00398016 -2.75652e-24)
(1.00871 -0.00258428 -1.94645e-24)
(1.00598 -0.00197997 1.24292e-25)
(1.00437 -0.00124577 5.39288e-26)
(1.00274 -0.000440023 -1.24343e-25)
(1.00339 -0.000402937 3.30827e-27)
(1.00423 -0.00033758 1.33056e-26)
(1.00506 6.55113e-05 1.72153e-26)
(1.00645 0.000166034 4.14632e-27)
(1.00816 0.00110199 -4.75792e-34)
(1.01047 0.00173555 1.92072e-25)
(1.01346 0.00386753 6.10425e-25)
(1.01763 0.0052343 1.9189e-25)
(1.02272 0.0101982 0)
(1.02895 0.019523 -3.91881e-25)
(1.0401 0.036197 -9.41385e-26)
(1.05252 0.0723499 -1.79251e-26)
(1.08723 -0.102099 -1.67703e-26)
(1.06578 -0.0530493 0)
(1.0441 -0.0289784 -2.29332e-24)
(1.03327 -0.0182723 1.85859e-24)
(1.02045 -0.0119441 1.04824e-23)
(1.01482 -0.00825717 6.88306e-24)
(1.01067 -0.00619674 0)
(1.00755 -0.00425752 -1.71624e-24)
(1.00506 -0.00314062 -9.58507e-25)
(1.00362 -0.00216425 8.10756e-26)
(1.00202 -0.000953238 -1.00167e-25)
(1.00323 -0.000215579 0)
(1.00401 -2.03708e-05 5.0266e-27)
(1.00472 0.000449593 -6.08163e-27)
(1.00589 0.00069987 -1.69017e-26)
(1.00727 0.00174899 0)
(1.00897 0.002613 -5.55745e-26)
(1.01107 0.00472707 9.7253e-26)
(1.01401 0.00675825 -2.8833e-26)
(1.01621 0.011768 -4.06653e-26)
(1.01674 0.0200076 2.0601e-25)
(1.01723 0.0348373 3.99725e-26)
(1.00503 0.0620902 0)
(1.02832 -0.0984796 -1.0848e-26)
(1.03658 -0.0561732 1.46746e-25)
(1.02983 -0.0331392 1.08164e-24)
(1.02497 -0.0221012 1.30999e-25)
(1.01586 -0.0141323 4.57112e-24)
(1.01173 -0.0103045 4.82718e-24)
(1.00854 -0.00770933 0)
(1.00597 -0.00552987 -2.4986e-26)
(1.00384 -0.00405265 3.90019e-25)
(1.00261 -0.00295119 2.15322e-25)
(1.00113 -0.00143046 7.6406e-27)
(1.00303 -6.54364e-05 0)
(1.00372 0.000196566 0)
(1.0043 0.000664502 0)
(1.00526 0.000969636 0)
(1.00634 0.00195925 -1.31979e-26)
(1.00754 0.00280982 -1.23141e-26)
(1.0089 0.0044886 -1.97818e-25)
(1.00995 0.00691391 2.88401e-24)
(1.01103 0.0102458 0)
(1.00842 0.0152421 0)
(1.00387 0.0230046 6.03106e-25)
(0.982886 0.0304871 2.09706e-24)
(0.528385 -0.0305145 -7.70912e-26)
(0.993155 -0.0605876 -3.85668e-24)
(1.01565 -0.0462338 -7.24204e-25)
(1.01824 -0.030842 -5.24981e-27)
(1.01716 -0.0222449 -2.93468e-26)
(1.01135 -0.0146612 -1.22354e-24)
(1.00858 -0.0112 1.94358e-25)
(1.00623 -0.00849969 3.27446e-27)
(1.00421 -0.00634497 -1.73774e-24)
(1.00246 -0.00467645 0)
(1.00146 -0.00356192 7.91386e-26)
(1.00013 -0.00184227 -2.02779e-25)
(1.00283 4.04934e-05 0)
(1.00343 0.000312505 -3.39429e-26)
(1.00391 0.000727465 1.92433e-27)
(1.00469 0.00101453 0)
(1.00554 0.00184253 0)
(1.00641 0.00251939 -1.08475e-24)
(1.00731 0.00376082 1.85519e-25)
(1.00798 0.00518218 3.74059e-24)
(1.00795 0.00743291 4.16372e-24)
(1.00523 0.00944863 2.35426e-24)
(1.00062 0.0113941 0)
(0.988044 0.00650323 -2.27801e-25)
(0.811177 -0.0258193 1.47591e-25)
(0.991185 -0.0347076 -4.23411e-25)
(1.00553 -0.030848 3.81895e-25)
(1.01101 -0.0255504 -3.89089e-25)
(1.00918 -0.018023 7.08828e-25)
(1.00758 -0.0140058 -1.49462e-25)
(1.00574 -0.0111594 -6.17429e-29)
(1.00401 -0.00868408 -3.40192e-27)
(1.00247 -0.00674486 0)
(1.00104 -0.00502411 -7.41743e-25)
(1.00025 -0.0039862 -8.92857e-25)
(0.999098 -0.00217453 -2.65695e-25)
(1.00266 0.000102684 9.71563e-28)
(1.00317 0.000341359 -3.46901e-26)
(1.00357 0.000674245 5.37216e-26)
(1.00422 0.000898466 6.90632e-30)
(1.00493 0.00152363 -1.96309e-25)
(1.00563 0.00197043 -8.00749e-25)
(1.00635 0.00274083 -2.07888e-24)
(1.00683 0.00351346 -2.77861e-24)
(1.00666 0.00459843 -9.67615e-25)
(1.00502 0.00469438 -1.37099e-25)
(1.0027 0.00299793 0)
(0.996287 -0.00103586 -9.28977e-26)
(0.844728 -0.0209193 -9.57643e-25)
(0.996815 -0.0208865 -1.30976e-25)
(1.00335 -0.0225885 -1.16625e-25)
(1.00718 -0.0203762 -2.00259e-25)
(1.00603 -0.0156532 -3.18599e-24)
(1.00477 -0.012889 0)
(1.00341 -0.0106003 -5.23365e-25)
(1.00205 -0.00846612 -1.88219e-25)
(1.00085 -0.00681152 -2.29259e-26)
(0.999681 -0.00513936 1.40915e-25)
(0.999056 -0.00423214 0)
(0.998081 -0.00242107 0)
(1.00253 0.000126237 -7.08724e-28)
(1.00296 0.000303699 1.27884e-27)
(1.00332 0.000544103 3.17886e-26)
(1.00389 0.000686712 0)
(1.00454 0.00110494 -1.00308e-25)
(1.00517 0.00134245 0)
(1.00593 0.00166853 -1.71926e-24)
(1.0065 0.00200165 6.73878e-25)
(1.00699 0.00164594 -3.17764e-26)
(1.00593 0.001548 -7.38935e-26)
(1.00588 -0.000831009 3.10104e-25)
(1.00034 -0.00708093 -1.64859e-25)
(0.909894 -0.0169062 -1.04993e-24)
(0.999477 -0.0168053 6.6415e-26)
(1.00322 -0.0172637 2.96441e-25)
(1.0053 -0.0162245 1.01375e-25)
(1.00374 -0.0134396 -1.51035e-24)
(1.00273 -0.0114534 1.73613e-24)
(1.00155 -0.00976226 0)
(1.00041 -0.00798953 6.09345e-25)
(0.999415 -0.0066488 -7.11414e-26)
(0.998439 -0.00508375 1.59489e-25)
(0.997932 -0.00433447 0)
(0.997113 -0.00258997 0)
(1.00245 0.000118294 1.04128e-26)
(1.00282 0.000220915 2.72096e-27)
(1.00317 0.000371668 -2.2364e-26)
(1.00369 0.000434151 1.84232e-26)
(1.00434 0.0006659 0)
(1.00499 0.000751657 0)
(1.00587 0.000755816 -4.26324e-25)
(1.00667 0.000815024 -8.58846e-26)
(1.00775 4.06471e-05 1.43814e-25)
(1.00728 -0.000532588 -5.4945e-25)
(1.00808 -0.00272879 0)
(0.999283 -0.00622776 -3.87826e-25)
(0.920104 -0.0159394 -2.61043e-24)
(1.00251 -0.0123784 5.21364e-25)
(1.0037 -0.0124789 9.87087e-25)
(1.00414 -0.011676 2.55145e-24)
(1.00241 -0.011416 1.41484e-24)
(1.00136 -0.00992501 1.42911e-24)
(1.00013 -0.00883076 -2.27649e-25)
(0.999083 -0.00736965 -1.51168e-25)
(0.998191 -0.00634054 -3.13837e-25)
(0.997344 -0.00490964 -1.12777e-24)
(0.99691 -0.00432334 1.76283e-27)
(0.996224 -0.00268978 -6.03338e-26)
(1.00242 8.61e-05 7.91058e-27)
(1.00275 0.000111486 3.57243e-27)
(1.0031 0.000182667 -2.448e-26)
(1.00361 0.000178397 -1.03333e-26)
(1.00429 0.000253289 0)
(1.00497 0.000253265 0)
(1.00603 2.06936e-05 1.02172e-24)
(1.00699 6.61098e-05 2.26389e-25)
(1.00866 -0.00109768 -2.61433e-25)
(1.00836 -0.000548491 -8.29934e-25)
(1.01015 -0.00514837 0)
(0.964704 0.000548848 -1.11099e-24)
(0.960377 -0.0126634 6.17453e-26)
(1.00614 -0.00683816 2.46541e-25)
(1.00386 -0.0111062 1.6853e-25)
(1.00408 -0.00947922 -5.69623e-25)
(1.00172 -0.00986052 -4.29023e-25)
(1.00045 -0.00858573 2.32433e-25)
(0.99907 -0.00794848 -5.56984e-26)
(0.998039 -0.00670615 -1.07388e-24)
(0.99717 -0.0059599 -3.54483e-25)
(0.996404 -0.00466396 -1.45856e-24)
(0.996004 -0.0042303 0)
(0.995426 -0.00273282 -2.06862e-25)
(1.00244 3.58375e-05 -4.44551e-27)
(1.00274 -1.08202e-05 -2.56025e-27)
(1.0031 -6.99086e-06 0)
(1.0036 -6.01829e-05 7.14063e-28)
(1.00434 -0.000117028 0)
(1.00507 -0.000144586 -3.90363e-25)
(1.00629 -0.000582169 -1.55364e-25)
(1.00735 -0.00041333 5.60433e-26)
(1.00939 -0.00197788 -1.83876e-25)
(1.00927 -0.000763767 -2.32175e-25)
(1.01054 -0.00570312 -1.41749e-25)
(0.966793 -0.000399234 -2.23855e-24)
(0.962428 -0.0103533 1.01337e-24)
(1.00637 -0.00503847 -2.27015e-25)
(1.00422 -0.00974814 -8.94799e-26)
(1.00404 -0.00765463 -1.37032e-26)
(1.00125 -0.00863173 -2.40632e-25)
(0.999821 -0.00740955 -2.92108e-25)
(0.99827 -0.00715225 -6.10144e-25)
(0.99722 -0.00605199 -1.61239e-25)
(0.996325 -0.00555512 -9.7942e-26)
(0.995609 -0.00438077 -4.82416e-25)
(0.995215 -0.00408328 -2.05313e-25)
(0.994724 -0.00273058 -9.16472e-26)
(1.0025 -2.77342e-05 0)
(1.00278 -0.000136635 -1.02418e-26)
(1.00316 -0.000188607 -2.35006e-26)
(1.00366 -0.000271779 1.16246e-26)
(1.00447 -0.000441415 1.67584e-25)
(1.00523 -0.000450155 -5.85716e-25)
(1.00661 -0.0010727 0)
(1.00774 -0.00072603 -1.99789e-25)
(1.01 -0.00259039 0)
(1.01018 -0.00093918 0)
(1.01112 -0.00573313 8.2858e-28)
(0.968408 -0.000762755 5.66519e-27)
(0.964027 -0.00888313 4.05021e-25)
(1.00686 -0.00394047 -1.3831e-25)
(1.00469 -0.00859825 -3.19174e-26)
(1.00405 -0.00622379 -7.13662e-27)
(1.00095 -0.00764223 4.09773e-26)
(0.999376 -0.00637942 -1.28143e-25)
(0.99766 -0.00645016 -1.59547e-25)
(0.996578 -0.00543202 2.5944e-25)
(0.99563 -0.00515385 -9.74848e-26)
(0.994943 -0.00408274 0)
(0.994537 -0.00390337 4.65201e-30)
(0.994112 -0.00269289 0)
(1.0026 -0.000101183 0)
(1.00285 -0.000260038 -2.07971e-26)
(1.00327 -0.000357982 -1.38382e-26)
(1.00377 -0.00045289 2.78815e-26)
(1.00464 -0.000720408 0)
(1.00543 -0.000676696 5.91657e-26)
(1.00693 -0.00145969 -5.64445e-25)
(1.00815 -0.000920829 -4.40144e-25)
(1.01053 -0.00298017 -5.71986e-26)
(1.01097 -0.00103202 -1.57835e-27)
(1.01163 -0.00559709 3.37911e-25)
(0.969386 -0.000933499 -2.74953e-25)
(0.964992 -0.00779478 5.08144e-25)
(1.00735 -0.00317144 -1.08274e-25)
(1.00514 -0.00767739 1.13369e-25)
(1.00409 -0.00511798 4.668e-27)
(1.00078 -0.00684207 -9.85489e-26)
(0.999063 -0.0054952 8.8985e-26)
(0.997197 -0.00584379 2.10464e-25)
(0.996074 -0.00486037 -3.87035e-30)
(0.99506 -0.0047728 -4.63905e-26)
(0.994389 -0.00378457 -2.9316e-25)
(0.993957 -0.00370589 1.52999e-25)
(0.993584 -0.00262783 1.39726e-25)
(1.00272 -0.000182188 -1.62207e-26)
(1.00296 -0.000377798 -2.88797e-26)
(1.00341 -0.000513931 -9.04141e-34)
(1.00391 -0.00060439 7.229e-26)
(1.00484 -0.000957594 2.05335e-25)
(1.00566 -0.000840449 4.30305e-26)
(1.00725 -0.0017595 -5.73872e-25)
(1.00854 -0.00103806 -4.00107e-25)
(1.01099 -0.00322195 2.30965e-25)
(1.01161 -0.00108349 0)
(1.012 -0.0054024 6.70389e-26)
(0.970057 -0.00100825 -1.02285e-25)
(0.965644 -0.00695208 1.55536e-25)
(1.00774 -0.00259736 -8.385e-26)
(1.00551 -0.00692138 -6.02801e-31)
(1.00414 -0.00425041 -1.65895e-25)
(1.00069 -0.00618797 -8.04341e-26)
(0.998837 -0.00474446 -1.5693e-26)
(0.996843 -0.00532554 1.1142e-25)
(0.995677 -0.0043432 -1.49226e-25)
(0.994592 -0.00442079 -2.49761e-25)
(0.993928 -0.00349552 -1.23122e-25)
(0.993464 -0.00350188 -1.31326e-25)
(0.99313 -0.00254187 1.21177e-25)
(1.00286 -0.000269227 -3.34386e-34)
(1.0031 -0.000488669 -1.73532e-26)
(1.00357 -0.000656998 2.07209e-26)
(1.00407 -0.00072971 4.14305e-26)
(1.00505 -0.00115832 3.40117e-29)
(1.00589 -0.000956909 0)
(1.00756 -0.00198982 -2.99692e-26)
(1.00891 -0.00110656 -3.82881e-25)
(1.01137 -0.00336377 1.96646e-25)
(1.01214 -0.0011086 0)
(1.01228 -0.00518134 -1.43139e-30)
(0.970546 -0.00102319 7.74879e-26)
(0.966109 -0.0062916 -1.60024e-25)
(1.00807 -0.00216429 0)
(1.00582 -0.0062962 4.13238e-27)
(1.00419 -0.00356404 3.70059e-26)
(1.00065 -0.00564799 0)
(0.998669 -0.0041099 3.95153e-26)
(0.99657 -0.00488433 3.64853e-26)
(0.99536 -0.00388102 -4.03311e-25)
(0.994206 -0.00410113 -1.04328e-25)
(0.993544 -0.00322085 1.03905e-25)
(0.993045 -0.0032985 -1.37365e-25)
(0.992741 -0.00244009 0)
(1.00302 -0.000361368 2.05059e-26)
(1.00324 -0.000592602 -1.92884e-26)
(1.00374 -0.000788654 0)
(1.00424 -0.000833264 2.70779e-26)
(1.00527 -0.00132835 8.79985e-26)
(1.00613 -0.0010391 2.1955e-26)
(1.00784 -0.00216571 0)
(1.00925 -0.00114455 5.40828e-27)
(1.0117 -0.00343794 1.79454e-25)
(1.01259 -0.00111822 0)
(1.0125 -0.00495891 4.58331e-26)
(0.970901 -0.00100491 2.99136e-26)
(0.966432 -0.00576366 -1.0816e-25)
(1.00834 -0.00183251 1.38884e-26)
(1.00608 -0.00577834 -4.21312e-26)
(1.00424 -0.00301885 -2.42858e-27)
(1.00063 -0.00519933 2.74913e-26)
(0.998541 -0.0035754 -9.71629e-27)
(0.996356 -0.00450918 -1.43454e-28)
(0.995105 -0.00347157 -1.42767e-25)
(0.993885 -0.00381421 5.31049e-26)
(0.993222 -0.00296323 5.67692e-26)
(0.992687 -0.00310059 -2.38995e-26)
(0.992405 -0.00232645 -1.35956e-26)
(1.00318 -0.000457975 -3.07701e-27)
(1.0034 -0.000690249 -2.98424e-26)
(1.00391 -0.000910592 -7.82798e-27)
(1.00442 -0.000919493 0)
(1.00548 -0.00147312 4.37661e-25)
(1.00635 -0.00109742 0)
(1.00809 -0.00229982 -2.62431e-25)
(1.00955 -0.00116458 0)
(1.01198 -0.00346771 1.50469e-25)
(1.01295 -0.00112119 9.80243e-26)
(1.01264 -0.00474724 0)
(0.971151 -0.000975488 2.34591e-26)
(0.966657 -0.00533774 0)
(1.00857 -0.00157697 1.1035e-26)
(1.0063 -0.00534622 -1.1302e-26)
(1.00428 -0.00258462 0)
(1.00063 -0.00482444 0)
(0.998438 -0.00312706 -8.09249e-27)
(0.996185 -0.00419036 1.24882e-26)
(0.994894 -0.00311166 0)
(0.993616 -0.00355854 0)
(0.992948 -0.00272377 5.28791e-26)
(0.992379 -0.00291096 1.14672e-26)
(0.992113 -0.00220413 -4.0493e-26)
(1.00335 -0.000558534 3.18979e-27)
(1.00355 -0.000782497 2.96361e-27)
(1.00409 -0.00102447 0)
(1.00459 -0.000992503 -9.52468e-27)
(1.00568 -0.0015975 2.27216e-25)
(1.00657 -0.00113988 1.14909e-26)
(1.00833 -0.00240265 -2.26005e-25)
(1.00983 -0.00117555 1.77464e-27)
(1.01223 -0.00347026 0)
(1.01326 -0.00112062 9.1887e-26)
(1.01272 -0.00455414 0)
(0.97132 -0.000950537 0)
(0.966822 -0.00498996 0)
(1.00877 -0.00137761 4.97879e-26)
(1.00649 -0.00498269 9.27782e-26)
(1.00431 -0.0022391 0)
(1.00064 -0.00450992 -1.51099e-27)
(0.998351 -0.00275306 0)
(0.996045 -0.00391951 0)
(0.994715 -0.00279748 0)
(0.993386 -0.0033319 0)
(0.992712 -0.00250325 -5.42994e-26)
(0.99211 -0.00273134 -4.33647e-26)
(0.991855 -0.00207612 8.35328e-31)
(1.00351 -0.000662481 0)
(1.00371 -0.000870156 1.03387e-26)
(1.00426 -0.00113162 -2.49824e-26)
(1.00476 -0.00105557 2.24695e-26)
(1.00588 -0.00170553 2.14758e-25)
(1.00678 -0.00117242 4.24934e-25)
(1.00854 -0.00248263 0)
(1.01008 -0.00118375 0)
(1.01244 -0.00345832 1.38635e-26)
(1.01351 -0.00112171 9.06624e-27)
(1.01276 -0.00438543 -2.70353e-33)
(0.971431 -0.000931534 9.63701e-27)
(0.966929 -0.00470113 1.39796e-25)
(1.00894 -0.00122196 3.87783e-26)
(1.00664 -0.00468166 3.51375e-27)
(1.00434 -0.00196382 0)
(1.00064 -0.00424665 -6.52056e-26)
(0.998273 -0.00244143 -9.05041e-26)
(0.995925 -0.00368972 0)
(0.994559 -0.00252411 -9.09223e-26)
(0.993185 -0.00313211 -7.50161e-41)
(0.992502 -0.00230081 1.29697e-25)
(0.991872 -0.00256286 8.13278e-26)
(0.991622 -0.00194434 6.50228e-26)
(1.00366 -0.000769081 -2.39257e-26)
(1.00386 -0.000953721 7.38754e-27)
(1.00443 -0.00123287 -1.08769e-26)
(1.00493 -0.00111121 4.34646e-26)
(1.00606 -0.00180034 1.89183e-25)
(1.00697 -0.00119932 8.02496e-25)
(1.00873 -0.00254618 0)
(1.0103 -0.00119249 0)
(1.01263 -0.00343994 1.22408e-26)
(1.01372 -0.00112795 0)
(1.01277 -0.00424161 0)
(0.9715 -0.000921874 0)
(0.966989 -0.00446322 0)
(1.00909 -0.00110412 -2.92895e-26)
(1.00676 -0.00443346 -5.98653e-26)
(1.00435 -0.001746 -5.38481e-26)
(1.00065 -0.00402734 -1.05663e-25)
(0.998201 -0.00218345 -7.64274e-26)
(0.99582 -0.00349561 0)
(0.994418 -0.00228781 -2.13081e-26)
(0.993005 -0.00295716 0)
(0.992312 -0.0021161 0)
(0.991654 -0.00240627 3.77639e-26)
(0.991407 -0.00181078 3.2416e-26)
(1.00381 -0.000877297 -1.76023e-26)
(1.004 -0.00103329 -1.33574e-26)
(1.00458 -0.00132851 -6.03643e-27)
(1.00509 -0.00116107 6.38727e-27)
(1.00623 -0.00188423 -5.21477e-34)
(1.00715 -0.00122361 3.74468e-25)
(1.00891 -0.00259813 0)
(1.0105 -0.00120384 -2.91064e-26)
(1.01279 -0.00342059 3.78007e-27)
(1.01391 -0.00114152 -6.55921e-27)
(1.01277 -0.00412272 5.68493e-26)
(0.971536 -0.000924129 -7.82742e-28)
(0.967012 -0.00427047 4.6336e-26)
(1.00922 -0.00101976 0)
(1.00687 -0.00423076 0)
(1.00436 -0.00157633 6.43474e-28)
(1.00064 -0.00384639 4.33549e-26)
(0.998131 -0.00197205 2.83805e-31)
(0.995723 -0.00333314 -3.89033e-26)
(0.994287 -0.00208545 0)
(0.99284 -0.00280535 0)
(0.992134 -0.00194904 1.31085e-26)
(0.991452 -0.00226232 0)
(0.991202 -0.00167744 0)
(1.00394 -0.000985654 0)
(1.00414 -0.00110826 -1.79645e-26)
(1.00472 -0.00141815 -1.5181e-26)
(1.00524 -0.00120583 -2.26624e-26)
(1.00638 -0.00195862 0)
(1.00732 -0.0012469 0)
(1.00908 -0.0026417 0)
(1.01069 -0.00121941 -2.42969e-26)
(1.01294 -0.00340458 0)
(1.01407 -0.00116429 -2.89829e-27)
(1.01274 -0.00402927 2.22419e-26)
(0.971545 -0.000940711 -3.91156e-27)
(0.967007 -0.00411878 3.62097e-26)
(1.00932 -0.000966063 2.65019e-26)
(1.00695 -0.0040684 3.79709e-26)
(1.00436 -0.00144797 0)
(1.00064 -0.00369941 -3.49495e-26)
(0.99806 -0.00180159 -4.21684e-26)
(0.995631 -0.00319923 0)
(0.994159 -0.0019145 0)
(0.992685 -0.00267569 0)
(0.991961 -0.00179987 1.27433e-26)
(0.991258 -0.00213198 0)
(0.991 -0.00154654 0)
(1.00405 -0.00109198 1.6514e-27)
(1.00426 -0.0011774 -1.12242e-26)
(1.00485 -0.00150057 5.14522e-27)
(1.00538 -0.00124542 0)
(1.00653 -0.00202378 3.35049e-26)
(1.00749 -0.00126855 1.047e-26)
(1.00923 -0.00267862 0)
(1.01087 -0.00123933 -1.14712e-26)
(1.01308 -0.00339418 1.85871e-27)
(1.01421 -0.00119736 -7.99429e-27)
(1.0127 -0.00396253 -1.98736e-27)
(0.971532 -0.000973988 -8.02524e-27)
(0.966978 -0.00400578 5.32748e-26)
(1.00941 -0.000941463 5.15501e-28)
(1.00702 -0.00394257 -4.32936e-28)
(1.00435 -0.00135573 2.27552e-26)
(1.00062 -0.00358307 7.00661e-28)
(0.997984 -0.00166755 -3.23825e-27)
(0.995541 -0.00309135 0)
(0.994032 -0.00177299 -2.98036e-26)
(0.992535 -0.00256748 -2.55909e-26)
(0.991789 -0.00166925 0)
(0.991067 -0.0020167 3.45156e-26)
(0.990794 -0.00142075 1.55876e-26)
(1.00415 -0.00119297 0)
(1.00437 -0.00123857 -9.47294e-27)
(1.00497 -0.00157396 -6.82303e-27)
(1.00551 -0.00127958 -2.06576e-27)
(1.00666 -0.0020795 0)
(1.00765 -0.00128842 1.65306e-25)
(1.00937 -0.00271008 -4.44915e-26)
(1.01104 -0.00126276 -2.21325e-26)
(1.01321 -0.00339078 -2.21101e-28)
(1.01435 -0.00124125 1.06084e-26)
(1.01266 -0.00392573 6.41235e-27)
(0.971502 -0.00102748 -2.60578e-26)
(0.966932 -0.00393127 1.70512e-26)
(1.00947 -0.000945446 2.29501e-28)
(1.00708 -0.00385028 -2.10798e-26)
(1.00433 -0.00129523 -1.48217e-26)
(1.0006 -0.00349448 1.57367e-27)
(0.997902 -0.00156624 -3.44351e-27)
(0.995454 -0.00300785 0)
(0.993901 -0.00165983 -2.01034e-26)
(0.992389 -0.00248088 -2.02263e-26)
(0.991614 -0.00155873 0)
(0.990877 -0.00191868 1.04235e-26)
(0.990581 -0.00130376 -1.53905e-26)
(1.00422 -0.00128432 -5.0992e-27)
(1.00447 -0.00128928 7.11757e-27)
(1.00507 -0.00163595 -1.76261e-26)
(1.00565 -0.00130657 -1.57336e-27)
(1.00678 -0.00212483 2.3112e-26)
(1.00781 -0.00130552 1.7916e-25)
(1.0095 -0.00273613 -1.71574e-26)
(1.01122 -0.00128785 -5.79224e-27)
(1.01334 -0.00339434 1.42921e-27)
(1.0145 -0.00129405 2.27837e-26)
(1.01262 -0.00392268 1.39552e-28)
(0.971451 -0.00110538 1.90996e-26)
(0.966871 -0.00389711 -6.94946e-27)
(1.00952 -0.000978537 0)
(1.00712 -0.0037887 -1.36473e-26)
(1.00429 -0.00126213 -7.98024e-27)
(1.00058 -0.00343082 8.44409e-28)
(0.997805 -0.00149418 0)
(0.995368 -0.00294688 1.80755e-27)
(0.993758 -0.00157388 2.71801e-27)
(0.992244 -0.00241558 -1.48932e-26)
(0.991423 -0.00146992 -2.13302e-26)
(0.990679 -0.00184009 7.19107e-27)
(0.990343 -0.00120002 0)
(1.00426 -0.00135588 -2.33969e-27)
(1.00456 -0.00132408 6.61186e-27)
(1.00515 -0.00168065 -5.36628e-27)
(1.00577 -0.00132377 0)
(1.00688 -0.0021565 0)
(1.00797 -0.00131784 -3.95193e-26)
(1.00961 -0.00275461 1.88088e-26)
(1.01138 -0.00131034 1.01625e-26)
(1.01345 -0.00340351 5.5065e-27)
(1.01464 -0.00135304 -2.6131e-27)
(1.01258 -0.00397446 -1.39768e-26)
(0.971391 -0.00122065 0)
(0.96681 -0.00390877 0)
(1.00953 -0.0010406 0)
(1.00715 -0.00375452 0)
(1.00424 -0.00125085 -1.31534e-27)
(1.00056 -0.00339057 0)
(0.997706 -0.00145019 0)
(0.995297 -0.00290838 1.56294e-27)
(0.993621 -0.00151739 0)
(0.992119 -0.0023736 0)
(0.991245 -0.0014085 0)
(0.990503 -0.00178651 6.49732e-27)
(0.990118 -0.00112002 0)
(1.00427 -0.001408 0)
(1.0047 -0.00134634 -1.2659e-27)
(1.00522 -0.00171117 -3.56671e-27)
(1.00599 -0.00133412 -5.33519e-28)
(1.00698 -0.00217813 5.21838e-27)
(1.00824 -0.00132665 -6.89965e-26)
(1.00973 -0.0027668 3.13899e-27)
(1.01169 -0.00132748 3.65804e-30)
(1.0136 -0.00341263 1.97984e-33)
(1.01494 -0.00139581 -4.85085e-31)
(1.01261 -0.00406179 -2.30427e-26)
(0.971241 -0.00137145 0)
(0.966714 -0.00397481 -1.83147e-26)
(1.00945 -0.0011396 -2.48695e-26)
(1.00716 -0.00374022 -1.82186e-27)
(1.00409 -0.00125314 -1.94287e-27)
(1.00056 -0.00336573 0)
(0.997504 -0.00142513 0)
(0.995227 -0.00288503 0)
(0.993367 -0.00148255 0)
(0.99196 -0.00234792 0)
(0.990932 -0.00136844 0)
(0.990244 -0.00175224 4.54454e-27)
(0.989725 -0.00106257 0)
(1.07609 -0.0953822 1.90585e-26)
(1.12208 0.129265 7.17868e-26)
(1.01368 0.146827 3.08446e-25)
(1.1169 -0.0278916 -3.52651e-26)
(1.17914 0.0348746 -1.17744e-26)
(1.13364 0.119467 -5.89933e-26)
(1.1032 0.0369914 -1.49795e-26)
(1.15925 -0.0642347 -1.57109e-25)
(1.1808 0.0213881 -4.61088e-26)
(1.0591 0.0706594 -8.72166e-26)
(1.09671 -0.10872 2.22354e-25)
(1.15269 -0.0729259 0)
(1.00969 0.0651065 7.35059e-30)
(1.03136 -0.108266 -1.55951e-25)
(1.08802 -0.111125 1.52846e-25)
(0.984107 0.0347395 0)
(0.568244 0.0184975 -9.8255e-26)
(0.504565 -0.0351026 1.67925e-25)
(0.989826 -0.0720333 8.11175e-25)
(1.02421 -0.105387 -2.30909e-25)
(0.982587 -0.101477 1.90127e-25)
(0.909559 0.00191457 4.3764e-26)
(0.998748 0.139029 4.45589e-25)
(0.960582 0.0666257 1.02176e-24)
(1.04494 -0.0476785 -1.28555e-25)
(1.07156 -0.085317 5.47704e-27)
(1.0026 -0.0967854 -2.47251e-25)
(1.07689 0.242125 0)
(0.948007 0.2266 -2.48419e-25)
(1.11625 0.117884 0)
(1.07767 0.0658124 1.21322e-26)
(1.04124 0.0754069 -1.39602e-24)
(1.06735 -0.0191238 1.3081e-25)
(1.10955 -0.0256048 -3.34344e-26)
(1.07921 -0.0790429 6.43024e-27)
(1.10396 -0.0639366 -6.15355e-27)
(1.13549 -0.0788986 5.80276e-27)
(1.10937 -0.121436 -8.01199e-27)
(1.19688 0.103711 7.69008e-26)
(1.16519 0.173532 2.98423e-26)
(1.1692 0.033152 5.18333e-27)
(1.10832 0.0236753 -4.00863e-25)
(1.08815 0.0575496 1.49969e-25)
(1.06557 0.0134916 2.7458e-25)
(1.09845 0.0332448 1.31355e-26)
(1.11064 -0.0171426 -2.29816e-28)
(1.11583 0.00754863 2.20116e-30)
(1.14243 0.0197592 -3.37893e-26)
(1.14813 -0.0233958 -5.05728e-28)
(1.20885 -0.0264502 2.08151e-27)
(1.2172 0.0448619 -4.2091e-26)
(1.15308 -0.0533276 -1.78968e-25)
(1.10503 -0.0254682 5.65814e-26)