/*--------------------------------*- C++ -*----------------------------------*\
| =========                 |                                                 |
| \\      /  F ield         | OpenFOAM: The Open Source CFD Toolbox           |
|  \\    /   O peration     | Version:  5.x                                   |
|   \\  /    A nd           | Web:      www.OpenFOAM.org                      |
|    \\/     M anipulation  |                                                 |
\*---------------------------------------------------------------------------*/
FoamFile
{
    version     2.0;
    format      ascii;
    class       volScalarField;
    location    "400";
    object      Y;
}
// * * * * * * * * * * * * * * * * * * * * * * * * * * * * * * * * * * * * * //

dimensions      [0 0 0 0 0 0 0];

internalField   nonuniform List<scalar> 
6584
(
0.00632781
0.00632781
0.00632781
0.00632781
0.00632781
0.00632781
0.00632781
0.00632782
0.00632782
0.00632782
0.00632782
0.00632782
0.00632782
0.00632782
0.00632782
0.00632782
0.00632782
0.00632781
0.00632781
0.00632781
0.00632781
0.00632781
0.00632781
0.00632781
0.00632561
0.00632561
0.00632561
0.00632562
0.00632562
0.00632562
0.00632562
0.00632563
0.00632563
0.00632563
0.00632563
0.00632563
0.00632564
0.00632563
0.00632563
0.00632563
0.00632563
0.00632563
0.00632562
0.00632562
0.00632562
0.00632561
0.00632561
0.00632561
0.00632341
0.00632342
0.00632342
0.00632342
0.00632342
0.00632342
0.00632343
0.00632344
0.00632345
0.00632454
0.00632454
0.00632454
0.00632454
0.00632454
0.00632454
0.00632345
0.00632344
0.00632344
0.00632343
0.00632343
0.00632342
0.00632342
0.00632342
0.00632341
0.00632122
0.00632122
0.00632122
0.00632123
0.00632123
0.00632123
0.00632124
0.00632125
0.00632126
0.00632235
0.00632235
0.00632234
0.00632234
0.00632235
0.00632235
0.00632235
0.00632125
0.00632124
0.00632124
0.00632123
0.00632123
0.00632123
0.00632122
0.00632122
0.00631902
0.00631903
0.00631903
0.00631903
0.00631904
0.00631904
0.00631904
0.00631904
0.00632015
0.00632016
0.00632014
0.00632013
0.00632013
0.00632014
0.00632015
0.00632016
0.00632015
0.00631906
0.00631905
0.00631904
0.00631904
0.00631903
0.00631903
0.00631903
0.00631683
0.00631683
0.00631683
0.00631684
0.00631684
0.00631685
0.00631686
0.00631794
0.00631794
0.00631793
0.00631848
0.00631845
0.00631844
0.00631847
0.00631795
0.00631797
0.00631797
0.00631689
0.00631687
0.00631686
0.00631685
0.00631684
0.00631684
0.00631683
0.00631464
0.00631464
0.00631464
0.00631465
0.00631465
0.00631466
0.00631468
0.00631576
0.00631575
0.00631573
0.00631622
0.00631645
0.00631641
0.00631621
0.00631631
0.0063158
0.0063158
0.00631472
0.00631469
0.00631468
0.00631466
0.00631465
0.00631465
0.00631464
0.00631244
0.00631245
0.00631245
0.00631246
0.00631247
0.00631248
0.0063125
0.00631358
0.00631357
0.00631357
0.00631401
0.00631411
0.00631421
0.00631414
0.00631366
0.00631365
0.00631257
0.00631252
0.0063125
0.00631248
0.00631247
0.00631246
0.00631245
0.00631025
0.00631026
0.00631026
0.00631027
0.00631029
0.0063103
0.00631034
0.00631142
0.00631142
0.00631145
0.00631188
0.00631198
0.00631211
0.00631205
0.00631156
0.00631152
0.00631042
0.00631036
0.00631032
0.0063103
0.00631028
0.00631027
0.00631026
0.00630806
0.00630807
0.00630808
0.00630809
0.00630811
0.00630813
0.00630817
0.00630925
0.00630927
0.00630934
0.00630981
0.00630998
0.00631019
0.00631003
0.00630947
0.0063094
0.00630828
0.00630819
0.00630815
0.00630812
0.0063081
0.00630808
0.00630807
0.00630587
0.00630588
0.00630589
0.0063059
0.00630593
0.00630595
0.006306
0.00630709
0.00630714
0.00630723
0.00630774
0.006308
0.0063083
0.00630802
0.00630739
0.00630728
0.00630613
0.00630603
0.00630598
0.00630594
0.00630591
0.00630589
0.00630588
0.00630368
0.00630369
0.0063037
0.00630372
0.00630374
0.00630378
0.00630384
0.00630493
0.00630499
0.0063051
0.00630565
0.00630595
0.00630632
0.00630597
0.0063053
0.00630516
0.00630398
0.00630387
0.0063038
0.00630376
0.00630372
0.0063037
0.00630369
0.00630149
0.0063015
0.00630152
0.00630154
0.00630156
0.0063016
0.00630166
0.00630276
0.00630284
0.00630295
0.00630351
0.00630381
0.00630423
0.00630387
0.00630317
0.00630302
0.00630182
0.0063017
0.00630163
0.00630157
0.00630153
0.00630151
0.00630149
0.0062993
0.00629931
0.00629933
0.00629935
0.00629938
0.00629942
0.00629949
0.00629953
0.00630066
0.00630076
0.00630129
0.00630151
0.0051159
0.00630171
0.00630171
0.00630103
0.00630087
0.00629965
0.00629953
0.00629945
0.00629938
0.00629934
0.00629931
0.00629929
0.00629711
0.00629712
0.00629714
0.00629716
0.0062972
0.00629724
0.0062973
0.00629732
0.00629844
0.00629854
0.00629908
0.00629901
0.00597362
0.0062995
0.00629892
0.00629885
0.00629755
0.00629746
0.00629733
0.00629725
0.0062972
0.00629715
0.00629712
0.00629709
0.00629492
0.00629493
0.00629495
0.00629498
0.00629501
0.00629505
0.0062951
0.00629513
0.00629625
0.00629636
0.00629636
0.00629679
0.00599777
0.00629675
0.00629673
0.00629666
0.00629537
0.00629527
0.00629514
0.00629505
0.00629499
0.00629494
0.00629492
0.00629489
0.00629273
0.00629274
0.00629276
0.00629279
0.00629282
0.00629286
0.0062929
0.00629295
0.00629301
0.00629417
0.00629417
0.00629058
0.006153
0.00629455
0.00629454
0.00629447
0.00629317
0.00629307
0.00629294
0.00629285
0.00629279
0.00629274
0.00629271
0.00629268
0.00629053
0.00629055
0.00629057
0.0062906
0.00629063
0.00629066
0.00629071
0.00629076
0.00629083
0.00629089
0.00629199
0.00628647
0.00615431
0.00629235
0.00629125
0.0062911
0.00629098
0.00629088
0.00629074
0.00629065
0.00629058
0.00629053
0.0062905
0.00629047
0.00628834
0.00628836
0.00628838
0.00628841
0.00628844
0.00628847
0.00628853
0.00628858
0.00628865
0.0062887
0.00628811
0.00613297
0.00622342
0.00628908
0.00628906
0.00628891
0.00628878
0.00628868
0.00628854
0.00628844
0.00628838
0.00628832
0.00628829
0.00628825
0.00628615
0.00628617
0.00628619
0.00628622
0.00628625
0.00628628
0.00628635
0.0062864
0.00628648
0.00628652
0.0062854
0.00613133
0.00622162
0.00628688
0.00628686
0.00628672
0.00628658
0.00628647
0.00628633
0.00628624
0.00628617
0.00628611
0.00628608
0.00628604
0.00628396
0.00628397
0.006284
0.00628403
0.00628407
0.0062841
0.00628417
0.00628422
0.0062843
0.00628434
0.00628271
0.00612963
0.00621976
0.00628469
0.00628467
0.00628453
0.00628438
0.00628427
0.00628413
0.00628403
0.00628396
0.0062839
0.00628387
0.00628383
0.00628176
0.00628178
0.00628181
0.00628184
0.00628188
0.00628191
0.00628198
0.00628205
0.00628213
0.00628216
0.00628003
0.0061279
0.00621785
0.0062825
0.00628249
0.00628233
0.00628218
0.00628207
0.00628192
0.00628182
0.00628175
0.00628169
0.00628165
0.00628161
0.00627957
0.00627959
0.00627961
0.00627965
0.00627969
0.00627973
0.0062798
0.00627987
0.00627995
0.00627998
0.00627738
0.00612613
0.0062159
0.00628031
0.0062803
0.00628014
0.00627998
0.00627987
0.00627971
0.00627961
0.00627954
0.00627948
0.00627944
0.0062794
0.00627738
0.0062774
0.00627742
0.00627746
0.0062775
0.00627755
0.00627762
0.00627769
0.00627778
0.0062778
0.00627475
0.00612434
0.00621392
0.00627812
0.00627811
0.00627795
0.00627779
0.00627767
0.00627751
0.0062774
0.00627732
0.00627726
0.00627722
0.00627718
0.00627519
0.00627521
0.00627523
0.00627527
0.00627532
0.00627536
0.00627545
0.00627552
0.00627561
0.00627562
0.00627215
0.00612252
0.00621191
0.00627593
0.00627592
0.00627576
0.00627559
0.00627546
0.0062753
0.00627519
0.00627511
0.00627505
0.00627501
0.00627496
0.006273
0.00627302
0.00627305
0.00627308
0.00627313
0.00627318
0.00627327
0.00627334
0.00627344
0.00627344
0.0062695
0.00612072
0.00620991
0.00627374
0.00627374
0.00627357
0.00627339
0.00627326
0.0062731
0.00627299
0.0062729
0.00627283
0.00627279
0.00627275
0.00627081
0.00627083
0.00627086
0.0062709
0.00627095
0.006271
0.00627109
0.00627117
0.00627127
0.00627126
0.00626682
0.00611895
0.00620793
0.00627156
0.00627156
0.00627139
0.0062712
0.00627106
0.00627089
0.00627078
0.00627069
0.00627062
0.00627058
0.00627054
0.00626862
0.00626864
0.00626867
0.00626871
0.00626876
0.00626881
0.00626891
0.00626899
0.0062691
0.00626908
0.00626416
0.00611717
0.00620594
0.00626938
0.00626938
0.00626921
0.00626901
0.00626887
0.00626869
0.00626857
0.00626848
0.00626841
0.00626837
0.00626832
0.00626643
0.00626645
0.00626648
0.00626652
0.00626658
0.00626663
0.00626673
0.00626682
0.00626694
0.0062669
0.00626151
0.00611538
0.00620394
0.0062672
0.0062672
0.00626702
0.00626681
0.00626667
0.00626649
0.00626637
0.00626627
0.0062662
0.00626616
0.00626611
0.00626424
0.00626426
0.00626429
0.00626433
0.00626439
0.00626445
0.00626456
0.00626465
0.00626477
0.00626472
0.00625887
0.00611357
0.00620193
0.00626502
0.00626502
0.00626484
0.00626462
0.00626447
0.00626428
0.00626416
0.00626406
0.00626399
0.00626394
0.0062639
0.00626205
0.00626207
0.0062621
0.00626215
0.00626221
0.00626227
0.00626238
0.00626248
0.00626261
0.00626253
0.00625624
0.00611176
0.00619991
0.00626284
0.00626284
0.00626265
0.00626243
0.00626227
0.00626208
0.00626196
0.00626185
0.00626178
0.00626173
0.00626169
0.00625986
0.00625988
0.00625992
0.00625996
0.00626003
0.00626009
0.00626021
0.00626031
0.00626044
0.00626035
0.00625362
0.00610995
0.00619789
0.00626065
0.00626066
0.00626047
0.00626024
0.00626007
0.00625988
0.00625975
0.00625964
0.00625957
0.00625952
0.00625947
0.00625767
0.00625769
0.00625773
0.00625778
0.00625784
0.00625792
0.00625804
0.00625814
0.00625828
0.00625816
0.006251
0.00610813
0.00619587
0.00625847
0.00625849
0.00625828
0.00625805
0.00625788
0.00625767
0.00625754
0.00625743
0.00625736
0.0062573
0.00625726
0.00625548
0.00625551
0.00625554
0.00625559
0.00625566
0.00625574
0.00625587
0.00625597
0.00625611
0.00625597
0.00624837
0.00610631
0.00619384
0.00625629
0.00625631
0.0062561
0.00625585
0.00625568
0.00625547
0.00625533
0.00625522
0.00625514
0.00625509
0.00625504
0.00625329
0.00625332
0.00625336
0.0062534
0.00625348
0.00625356
0.00625369
0.0062538
0.00625395
0.00625379
0.00624574
0.0061045
0.00619182
0.00625411
0.00625413
0.00625391
0.00625366
0.00625348
0.00625327
0.00625313
0.00625301
0.00625293
0.00625288
0.00625283
0.00625111
0.00625113
0.00625117
0.00625122
0.0062513
0.00625138
0.00625152
0.00625164
0.00625178
0.0062516
0.00624309
0.0061027
0.0061898
0.00625193
0.00625195
0.00625173
0.00625147
0.00625128
0.00625106
0.00625092
0.0062508
0.00625072
0.00625066
0.00625062
0.00631223
0.00631234
0.00631415
0.00631023
0.00631043
0.00631209
0.00630825
0.00630855
0.00631019
0.00630621
0.00630659
0.00630831
0.00630408
0.00630451
0.00630633
0.0063018
0.00503056
0.0050674
0.00630231
0.00630424
0.00631439
0.00631641
0.00631443
0.00631646
0.00631241
0.00631227
0.00631417
0.00631306
0.00631408
0.00631236
0.00631253
0.00631409
0.00631032
0.00631024
0.00631201
0.00631122
0.00630951
0.00631163
0.00630602
0.00631125
0.00631043
0.00631052
0.00631202
0.00630826
0.00630825
0.00630999
0.00630924
0.00630284
0.0063044
0.00624828
0.00628017
0.00630854
0.00630853
0.00631002
0.00630618
0.00630621
0.006308
0.00630724
0.0063032
0.00630287
0.00629001
0.00626282
0.00630658
0.00630651
0.00630803
0.00630209
0.00630219
0.0063045
0.00630443
0.006306
0.00630244
0.00630279
0.00629956
0.00535326
0.005035
0.00572252
0.00630005
0.00630202
0.00631186
0.00631297
0.00631302
0.00631292
0.00631121
0.00631408
0.00631306
0.00631145
0.006313
0.00631308
0.00631298
0.00631187
0.00630486
0.006309
0.00631097
0.00630431
0.00628873
0.0063107
0.00630511
0.0062824
0.00630576
0.00631114
0.00630835
0.006302
0.00631173
0.00630854
0.00631137
0.00630282
0.00630279
0.00630899
0.00628472
0.00629107
0.00628806
0.00628444
0.00626178
0.00624665
0.00630926
0.00629876
0.00630016
0.00630185
0.00629894
0.00630949
0.00628786
0.00629351
0.00629154
0.00628691
0.00630191
0.00629156
0.00630733
0.00630361
0.00630513
0.00630025
0.00630341
0.00630758
0.00629793
0.00629933
0.00629416
0.0062976
0.00630279
0.00630227
0.00630511
0.00630477
0.00630556
0.0062997
0.00629642
0.00629945
0.00629973
0.0063015
0.00630235
0.00631328
0.0063131
0.00631413
0.00631323
0.00631397
0.00630405
0.00630407
0.00630594
0.00630516
0.00630343
0.00630352
0.00622101
0.00617925
0.0063023
0.00630229
0.0063039
0.00631401
0.0063133
0.00631414
0.00631311
0.00631334
0.0063035
0.00630325
0.00630699
0.00495462
0.00518136
0.0059087
0.00601041
0.00519598
0.00547716
0.00617123
0.00609649
0.0063053
0.0063047
0.00630405
0.00602188
0.00607864
0.00630394
0.00630309
0.00630343
0.00631531
0.00631519
0.00631423
0.00631424
0.0063152
0.00631531
0.0063131
0.00631349
0.00631322
0.00631402
0.00631332
0.00631363
0.006308
0.00630917
0.00626771
0.00626915
0.00628067
0.00627751
0.00630136
0.00609571
0.00630345
0.00625339
0.00622574
0.00623029
0.00625564
0.0063027
0.00629258
0.00631244
0.00625167
0.00630594
0.00623953
0.00631222
0.00630749
0.00631325
0.00631348
0.00631291
0.00629822
0.00631233
0.00631243
0.00629548
0.0062945
0.00630908
0.00630868
0.0062922
0.00629344
0.00630284
0.00631069
0.00631106
0.0063102
0.00631056
0.00630275
0.00631046
0.00631169
0.00631207
0.00631119
0.00631156
0.00631002
0.00628778
0.00628814
0.00628466
0.00628437
0.00622455
0.00622785
0.00629709
0.00630882
0.00630916
0.00630838
0.00630871
0.00629701
0.00630081
0.00630973
0.00631008
0.00630927
0.00630961
0.00630066
0.004973
0.00629053
0.0052096
0.00496017
0.00550443
0.00522653
0.00629132
0.00628288
0.00498423
0.00628387
0.00629886
0.00629816
0.00630174
0.00630792
0.00630826
0.00630746
0.00630781
0.00630209
0.00574445
0.00588596
0.00629589
0.00575295
0.00552589
0.00593469
0.00577868
0.00629638
0.00550686
0.00572184
0.00630269
0.00618101
0.00622541
0.00610458
0.00617213
0.00630263
0.00607827
0.00606825
0.00608833
0.00521665
0.006085
0.00606037
0.00537251
0.00625343
0.00625598
0.00631382
0.00630187
0.00630181
0.0063038
0.00630298
0.00630235
0.00630309
0.00564015
0.0062976
0.00630037
0.00631383
0.00630292
0.00630339
0.00630489
0.00522865
0.00526625
0.0048757
0.00605867
0.00605501
0.00530031
0.00535916
0.00624267
0.0062526
0.00444409
0.0063146
0.00631464
0.0063141
0.00631407
0.00631464
0.0063146
0.0063106
0.00631151
0.00631112
0.00630635
0.00630508
0.00631034
0.00630319
0.00630945
0.00630909
0.00630995
0.00630958
0.00630341
0.00625795
0.00627598
0.00628607
0.00626535
0.00595919
0.0059011
0.00630265
0.00625833
0.00627614
0.00628985
0.00628922
0.00531357
0.00631363
0.00631341
0.00631406
0.00631183
0.00630821
0.00630589
0.00631257
0.00631271
0.00631311
0.00631219
0.00631258
0.00631242
0.00630648
0.00631047
0.00631008
0.00631099
0.0063106
0.00630708
0.0063004
0.00613243
0.00623545
0.00606393
0.0060797
0.006291
0.00624582
0.00625687
0.00630685
0.00628637
0.00629781
0.00630523
0.00631044
0.00631059
0.00630939
0.00630963
0.00630233
0.00630897
0.00630861
0.00630273
0.00628625
0.00602752
0.00596981
0.0062863
0.00604091
0.00605951
0.00595932
0.00596967
0.00628394
0.00624683
0.00623535
0.00629778
0.00630825
0.00630839
0.00630745
0.00630792
0.00629896
0.00630145
0.00630911
0.00630932
0.00630843
0.00630858
0.00629978
0.00630083
0.00622606
0.00624279
0.0062039
0.00619447
0.00629484
0.00630512
0.00630699
0.00630734
0.00630649
0.00630687
0.00630514
0.00629871
0.00604604
0.00595127
0.00613819
0.00611121
0.0062989
0.00553664
0.00556971
0.00629967
0.00616593
0.00614614
0.00549956
0.00552747
0.0060314
0.00597457
0.00631357
0.00631382
0.00631367
0.00589674
0.00620555
0.00592448
0.00595766
0.00594352
0.00620018
0.00631373
0.00631357
0.00631389
0.00631335
0.00631363
0.00498627
0.00505788
0.00523618
0.00523041
0.005959
0.00535333
0.00531716
0.00542874
0.00536347
0.00597206
0.00527256
0.00532585
0.00614337
0.00613075
0.00605052
0.00552652
0.00546273
0.00536457
0.00539389
0.00631269
0.00631317
0.00631343
0.00631275
0.00631308
0.00631248
0.0063065
0.00631015
0.00625951
0.0062745
0.00628511
0.00626703
0.00611263
0.00625037
0.00623829
0.00626303
0.00625416
0.00610938
0.00621063
0.00619921
0.00623453
0.00621709
0.00624363
0.00604872
0.0060855
0.00598289
0.00603066
0.00623954
0.00586988
0.00588561
0.00627858
0.0063108
0.00630888
0.00631259
0.00631136
0.00628551
0.00629671
0.00629237
0.00630741
0.00629853
0.00631207
0.00631316
0.00631277
0.00631145
0.0063101
0.00631107
0.0063087
0.00631196
0.00630947
0.00631192
0.00631261
0.00630995
0.00631164
0.00631269
0.00631216
0.00631128
0.00610075
0.00611743
0.00629893
0.005952
0.00588134
0.00614672
0.00596646
0.00578058
0.00571629
0.00585983
0.00580894
0.00629185
0.00608535
0.0060967
0.00623438
0.00621389
0.00629007
0.00625153
0.00619024
0.00616888
0.00621024
0.00619583
0.00630734
0.00625941
0.00626651
0.00628771
0.00629711
0.00631005
0.00631034
0.00630396
0.00630245
0.00630971
0.00630996
0.00604364
0.00603758
0.0062867
0.00564121
0.00564336
0.00536898
0.00560778
0.00561947
0.00570375
0.0056378
0.00562124
0.00601358
0.00603477
0.00628581
0.00561357
0.00554731
0.00570133
0.00563377
0.00542158
0.00535568
0.00552141
0.0054531
0.00628405
0.00598025
0.00600511
0.00623651
0.00623254
0.00630809
0.00630821
0.00629757
0.00629817
0.00630795
0.00630805
0.00630885
0.00630904
0.00630131
0.00629996
0.00630863
0.0063088
0.00499744
0.00507225
0.0060615
0.00609991
0.00601049
0.00604777
0.00498841
0.00539393
0.00615062
0.006092
0.00611043
0.00614111
0.00533665
0.0058388
0.00586222
0.0057525
0.00583007
0.00505461
0.00595976
0.00599997
0.00587486
0.00593873
0.00505335
0.00621152
0.00622197
0.00630042
0.00616731
0.00618826
0.00619387
0.00616624
0.0061881
0.00629563
0.00618809
0.00620267
0.00580286
0.00515313
0.00515723
0.00529168
0.00516936
0.00582335
0.00523484
0.00559086
0.00516101
0.00562593
0.00613975
0.00627311
0.00626577
0.00628187
0.00627556
0.00614558
0.00604898
0.00605959
0.00558561
0.00562329
0.00541768
0.00548737
0.00607122
0.00604466
0.00631449
0.00631463
0.00631627
0.00630315
0.0063029
0.00630204
0.00631427
0.00631431
0.00631397
0.00631391
0.00631429
0.00631428
0.00631529
0.00631524
0.00631429
0.00631203
0.00631164
0.0063109
0.00630614
0.00629834
0.00629727
0.00625079
0.00627873
0.006308
0.00630764
0.00630299
0.00622773
0.00622223
0.00626355
0.00624649
0.00625504
0.00630285
0.0063124
0.00631255
0.00631216
0.00630342
0.00630619
0.0063116
0.00631278
0.00631235
0.00631277
0.00631039
0.00628903
0.00630216
0.00628372
0.00629614
0.00629473
0.00630501
0.0063063
0.00630639
0.00630212
0.00631079
0.00631096
0.00630892
0.00630274
0.00630848
0.00630812
0.00607091
0.00604704
0.00628967
0.00625985
0.00623487
0.00623298
0.00624502
0.00629857
0.00630518
0.00630522
0.00630172
0.00630613
0.00630622
0.00630526
0.00630531
0.00629917
0.006281
0.00610767
0.00608295
0.00630047
0.0063073
0.00630737
0.00630501
0.00630598
0.00630636
0.00519446
0.00519486
0.00618628
0.00617166
0.0062997
0.00519689
0.00519515
0.00627777
0.00628146
0.00630206
0.00631332
0.00631325
0.00494194
0.00498229
0.00499541
0.00516167
0.00521189
0.0049561
0.00496846
0.00519339
0.0051531
0.00543806
0.0060409
0.00603011
0.00610798
0.00557566
0.00553716
0.00605817
0.00631472
0.00631467
0.00631412
0.00631282
0.00631301
0.00631317
0.0063133
0.00631205
0.00631227
0.00631352
0.00631377
0.00631363
0.00630369
0.00630314
0.00630718
0.0063097
0.00630778
0.00630674
0.00626377
0.00627059
0.00624053
0.00624452
0.00628274
0.00627357
0.0062234
0.00623241
0.00612564
0.00612759
0.00617369
0.00616727
0.00609576
0.00613201
0.00613687
0.00630302
0.00625845
0.00626779
0.00628749
0.00626481
0.00629574
0.00629206
0.00631019
0.00630873
0.00630262
0.00619246
0.00617559
0.00628261
0.00625545
0.0062169
0.0063134
0.00631325
0.00631259
0.0063125
0.00631106
0.00631183
0.00630262
0.00631087
0.00631159
0.00626885
0.00628128
0.00631013
0.00615383
0.00613352
0.00629096
0.00629465
0.0063115
0.00631166
0.00631107
0.00630908
0.00631114
0.00631132
0.00628928
0.00604437
0.00604276
0.00622438
0.00622944
0.0063057
0.00630577
0.00630097
0.00630038
0.00630558
0.00630564
0.00499096
0.00518865
0.00555255
0.00557646
0.00530382
0.00532346
0.00493879
0.00612547
0.00611233
0.00628194
0.0050499
0.00501939
0.00520796
0.00521095
0.00500954
0.00528207
0.00529213
0.00499614
0.00500342
0.00630716
0.00630723
0.00630065
0.00630272
0.00630702
0.00630709
0.00564432
0.00613323
0.00614613
0.0061059
0.00611958
0.00560605
0.00620147
0.00627767
0.00628357
0.00628207
0.00627999
0.00620833
0.00611906
0.00619071
0.00618197
0.00605853
0.00604476
0.00607936
0.00526134
0.00528433
0.00529467
0.00520808
0.00610211
0.00565391
0.00559567
0.00570241
0.00566765
0.00605198
0.005872
0.00587685
0.00609547
0.00612685
0.00626237
0.00631375
0.00631383
0.00631363
0.00523012
0.00524088
0.00557836
0.00557336
0.00483933
0.00533367
0.00527438
0.00527441
0.00525388
0.0052661
0.00535062
0.00446388
0.00605984
0.00607046
0.00631437
0.00631432
0.00631396
0.00630041
0.00629939
0.00630624
0.00630313
0.00630649
0.00630883
0.0063054
0.00630604
0.00625476
0.00627734
0.00620121
0.00620742
0.00620712
0.0062007
0.00626431
0.00621816
0.00621563
0.00594609
0.00585766
0.0058564
0.0058693
0.00586716
0.0059296
0.00630763
0.00631009
0.00631025
0.00630963
0.00630995
0.00630698
0.00628503
0.00630301
0.0062934
0.00629012
0.00630223
0.00630647
0.00630656
0.00623456
0.0062358
0.00625575
0.0062394
0.00630511
0.00630514
0.00629814
0.00630599
0.00630606
0.00630159
0.00629951
0.00630536
0.00630541
0.00620466
0.00622554
0.00621678
0.00623282
0.00623009
0.00620294
0.00519702
0.00520384
0.00520522
0.00519994
0.00550934
0.0053336
0.00532641
0.00588164
0.00588076
0.00601401
0.00590475
0.00592793
0.00586293
0.00588081
0.00599385
0.0063135
0.00631341
0.00631347
0.00631346
0.00631375
0.00631378
0.00631388
0.00631358
0.00631366
0.00631365
0.00591803
0.00606765
0.00605811
0.00609429
0.00608046
0.00592987
0.00597948
0.00602314
0.00600406
0.00605047
0.00604065
0.00596464
0.00631366
0.00631372
0.00631362
0.00631281
0.00631226
0.00631345
0.0063133
0.00494479
0.00512619
0.00500332
0.0049966
0.00523486
0.00523273
0.005503
0.00552349
0.00533265
0.00496417
0.00495012
0.00523507
0.00506355
0.00506667
0.00505085
0.00538551
0.00508373
0.00501348
0.00605284
0.00607069
0.00615443
0.00600837
0.00601291
0.00599579
0.00599921
0.0061185
0.0060261
0.00603412
0.00536999
0.00522509
0.00523981
0.00521013
0.0052127
0.00537851
0.00631295
0.00631306
0.00631285
0.00631198
0.00631243
0.00631282
0.00629921
0.00630674
0.00630237
0.00630139
0.0063036
0.00630443
0.00630169
0.0063027
0.00626112
0.0062721
0.00621436
0.00621654
0.00620977
0.00621213
0.00628408
0.00624662
0.00624808
0.00621516
0.00621807
0.00626979
0.00621665
0.00614294
0.00612996
0.00610215
0.00616189
0.00615497
0.00620589
0.00614224
0.00614058
0.00616181
0.00615062
0.00620254
0.00623003
0.00617284
0.00617963
0.00614786
0.0061609
0.00622405
0.00613828
0.00599866
0.00611628
0.00610654
0.00585944
0.005868
0.00627558
0.00629885
0.00629732
0.00627173
0.00629141
0.00630483
0.00630127
0.00621969
0.00620551
0.00626696
0.00627015
0.00629394
0.00624856
0.00623451
0.00630698
0.00630889
0.006312
0.00631022
0.00630445
0.00629669
0.00630407
0.00631066
0.00631152
0.00631176
0.00631051
0.00631094
0.00630905
0.00630677
0.00630889
0.00631213
0.00631146
0.00631102
0.0063123
0.00631167
0.00631235
0.00631036
0.00631062
0.00630963
0.00631079
0.00593389
0.00590597
0.00609543
0.00586418
0.00588934
0.00581155
0.00597961
0.00575585
0.00573448
0.00584133
0.00582583
0.00622398
0.00612867
0.00615133
0.00608372
0.00610535
0.00621806
0.0062857
0.00625116
0.00626168
0.00616476
0.0062264
0.00627508
0.00611445
0.00607718
0.00618462
0.00595037
0.00597037
0.00591718
0.00593343
0.0061784
0.00620655
0.00604809
0.00606465
0.00599329
0.00601927
0.00620139
0.00628972
0.00629614
0.00565136
0.00539481
0.00543049
0.0053219
0.00535659
0.00564867
0.00543244
0.00544802
0.0054455
0.00552593
0.00563168
0.00513502
0.00516861
0.00519757
0.00513905
0.00565962
0.00563236
0.00526163
0.00529034
0.00520563
0.00523579
0.005627
0.00559703
0.00557741
0.00568555
0.0056577
0.00539384
0.0053691
0.00549948
0.00548134
0.00622899
0.00623092
0.00630113
0.00630584
0.00630591
0.00630546
0.00630552
0.00630014
0.00500297
0.00546931
0.00551857
0.00514992
0.00493996
0.00535858
0.00541105
0.00511501
0.00508149
0.00584586
0.00542092
0.00542333
0.00579203
0.00537337
0.00528996
0.0054225
0.00540976
0.00581637
0.00519006
0.00515097
0.005226
0.00526423
0.00503543
0.00505404
0.00514416
0.0062162
0.00625787
0.00625456
0.00626271
0.00626037
0.00621908
0.00617435
0.00618404
0.00618383
0.00616619
0.00616576
0.00617289
0.0061871
0.00623926
0.00623548
0.00624991
0.00624441
0.00619308
0.00515062
0.00530552
0.00532471
0.00527706
0.00529097
0.0051532
0.00524757
0.00543611
0.00547467
0.00535328
0.00539255
0.0052045
0.00522661
0.00507434
0.00509435
0.00506717
0.00506853
0.00516355
0.00523162
0.0052596
0.00513271
0.00518207
0.005158
0.00620389
0.00619822
0.00613226
0.00604753
0.00607192
0.00522196
0.00525283
0.00544526
0.00526336
0.00522707
0.0053165
0.0052984
0.00546987
0.00521225
0.00521058
0.00587405
0.00587372
0.00631903
0.00631903
0.00632014
0.00631901
0.00631901
0.00632013
0.00631901
0.00631901
0.00632013
0.00631903
0.00631904
0.00632015
0.00631682
0.00631681
0.00631792
0.00631678
0.00631676
0.00631847
0.00631674
0.00631671
0.00631844
0.00631671
0.00631675
0.00631845
0.00631678
0.00631682
0.00631849
0.00631685
0.00631687
0.00631795
0.00631465
0.0063146
0.00631625
0.00631456
0.00631445
0.00631618
0.00631556
0.00631553
0.00631644
0.00631547
0.00631551
0.00631641
0.00631563
0.00631567
0.00631622
0.00631467
0.00631473
0.00631579
0.00631251
0.00631245
0.00631406
0.00631347
0.00631346
0.006314
0.00631383
0.00631381
0.00631409
0.00631339
0.00631351
0.00631431
0.00631257
0.00631263
0.00631367
0.00631039
0.00631035
0.00631192
0.00631136
0.00631136
0.00631188
0.00631172
0.00631172
0.00631198
0.00631138
0.00631147
0.00631222
0.00631053
0.00631057
0.0063116
0.00630828
0.00630827
0.00630983
0.00630929
0.00630931
0.00630982
0.00630973
0.00630973
0.00630998
0.00630949
0.00630952
0.00631025
0.00630852
0.00630851
0.00630954
0.00630616
0.00630618
0.00630775
0.00630722
0.00630726
0.00630777
0.00630775
0.00630775
0.006308
0.00630757
0.00630755
0.00630829
0.00630649
0.00630644
0.00630748
0.00630403
0.00630405
0.00630565
0.00630569
0.0063057
0.00630596
0.00630555
0.00630548
0.00630626
0.0063044
0.00630434
0.0063054
0.00630186
0.00630187
0.00630351
0.00630341
0.0063034
0.00630394
0.00630225
0.00630221
0.00630328
0.00629964
0.00629961
0.00630071
0.00629963
0.00629958
0.00630124
0.00630067
0.00629969
0.00630052
0.0052585
0.00622149
0.00622765
0.00630006
0.0063001
0.00630175
0.00630003
0.00630005
0.00630113
0.00629745
0.00629742
0.00629851
0.00629745
0.00629738
0.00629903
0.00629734
0.00567477
0.00566207
0.00599217
0.00629782
0.00629949
0.00629783
0.00629789
0.00629952
0.00629782
0.00629785
0.00629894
0.00629526
0.00629522
0.00629632
0.00629294
0.00597239
0.00567839
0.0061522
0.00629543
0.00629725
0.00629565
0.0062957
0.00629679
0.00631223
0.00631249
0.00631249
0.00631258
0.00631267
0.00631227
0.00631413
0.00631386
0.00631388
0.00631023
0.00631047
0.00631048
0.00631066
0.00631065
0.0063103
0.00631214
0.00631176
0.00631185
0.00630825
0.0063085
0.0063085
0.00630878
0.0063088
0.00630845
0.00631018
0.00630983
0.00630996
0.00630622
0.00630648
0.00630647
0.00630684
0.0063069
0.00630654
0.00630834
0.00630799
0.00630807
0.00630478
0.00630475
0.00630449
0.00630629
0.00630604
0.00630608
0.0063008
0.00630209
0.0063027
0.00483987
0.00549695
0.00550255
0.00584045
0.00584184
0.00447668
0.00630422
0.00630395
0.00630397
0.00631429
0.00631523
0.00631527
0.006314
0.006314
0.00631391
0.00631641
0.0063155
0.00631547
0.00631399
0.00631401
0.00631472
0.0063147
0.00631441
0.00631645
0.00631555
0.00631558
0.0063124
0.00631293
0.00631294
0.00631306
0.00631291
0.00631239
0.00631397
0.00631344
0.00631333
0.00631321
0.00631316
0.00631288
0.00631405
0.00631389
0.00631393
0.00631247
0.00631324
0.00631313
0.00631304
0.00631305
0.00631254
0.00631408
0.00631356
0.00631357
0.00631033
0.00631084
0.00631084
0.00631099
0.00631085
0.00631034
0.00631187
0.00631136
0.00631124
0.00631122
0.00631147
0.00631147
0.00630992
0.00631086
0.00631066
0.00631189
0.00631173
0.00631141
0.00631045
0.00630959
0.00631093
0.00631049
0.00631122
0.00631114
0.00631102
0.00631105
0.00631056
0.00631204
0.00631154
0.00631152
0.00630829
0.0063088
0.00630877
0.006309
0.00630882
0.00630831
0.00630984
0.00630933
0.00630925
0.00630924
0.00630949
0.00630949
0.00630292
0.00630772
0.00630761
0.0063086
0.00630841
0.006304
0.00630854
0.00630927
0.00630925
0.00630903
0.00630908
0.00630859
0.00631007
0.00630958
0.00630952
0.00630621
0.00630674
0.0063067
0.00630698
0.00630677
0.00630625
0.0063078
0.00630729
0.00630724
0.00630725
0.0063075
0.00630749
0.00630304
0.00630751
0.00630714
0.00630677
0.00630668
0.0063029
0.00628847
0.00625464
0.00625908
0.00630653
0.00630729
0.00630732
0.00630702
0.00630709
0.00630658
0.00630809
0.00630759
0.00630753
0.00630188
0.00627908
0.00628417
0.00629372
0.00629459
0.00630244
0.00630446
0.00630499
0.00630529
0.00630496
0.00630502
0.00630449
0.00630607
0.00630555
0.00630548
0.00630252
0.00629986
0.00629998
0.00629838
0.00629874
0.00630277
0.00629899
0.0062994
0.00630012
0.00532232
0.00628893
0.00628765
0.00605701
0.00605994
0.00505859
0.00629682
0.0062974
0.00566191
0.0063006
0.00630047
0.0062998
0.00630175
0.00630075
0.00630117
0.00631205
0.00631218
0.00631204
0.00631309
0.00631269
0.00631255
0.00631275
0.00631275
0.00631301
0.00631278
0.00631234
0.00631288
0.00631393
0.0063139
0.00631406
0.006313
0.00631316
0.0063132
0.00631159
0.00631103
0.00631083
0.00631298
0.00631289
0.00631292
0.00631307
0.00631281
0.00631283
0.00631284
0.00631288
0.00631302
0.00631208
0.00631221
0.00631209
0.00630536
0.00630903
0.00630881
0.00631044
0.00631021
0.00630836
0.00631072
0.00631072
0.00631097
0.00630326
0.00629224
0.00629525
0.00625909
0.00626036
0.00628944
0.00629721
0.00629859
0.00630576
0.00631114
0.00631077
0.0063109
0.006308
0.00630949
0.0063097
0.00631122
0.0063118
0.00631194
0.00630986
0.00630998
0.00630867
0.00631161
0.00631163
0.00631126
0.00630277
0.00630694
0.00630685
0.0063075
0.0063074
0.00630276
0.00630874
0.00630875
0.006309
0.00628525
0.00625139
0.00625001
0.00626543
0.00626414
0.00629057
0.00628744
0.00625675
0.0062579
0.00624904
0.00624844
0.00628411
0.00630926
0.00630891
0.00630902
0.0063056
0.00630555
0.00629998
0.00630973
0.00630972
0.00630937
0.00628879
0.0061967
0.00618146
0.00625419
0.00625095
0.00629282
0.00629201