/*--------------------------------*- C++ -*----------------------------------*\
| =========                 |                                                 |
| \\      /  F ield         | OpenFOAM: The Open Source CFD Toolbox           |
|  \\    /   O peration     | Version:  5.x                                   |
|   \\  /    A nd           | Web:      www.OpenFOAM.org                      |
|    \\/     M anipulation  |                                                 |
\*---------------------------------------------------------------------------*/
FoamFile
{
    version     2.0;
    format      ascii;
    class       volScalarField;
    location    "400";
    object      YSat;
}
// * * * * * * * * * * * * * * * * * * * * * * * * * * * * * * * * * * * * * //

dimensions      [0 0 0 0 0 0 0];

internalField   nonuniform List<scalar> 
6584
(
0.00431405
0.00431405
0.00431405
0.00431405
0.00431405
0.00431405
0.00431405
0.00431405
0.00431405
0.00431405
0.00431405
0.00431405
0.00431405
0.00431405
0.00431405
0.00431405
0.00431405
0.00431405
0.00431405
0.00431405
0.00431405
0.00431405
0.00431405
0.00431405
0.00431405
0.00431405
0.00431405
0.00431405
0.00431405
0.00431405
0.00431405
0.00431405
0.00431405
0.00431405
0.00431405
0.00431405
0.00431405
0.00431405
0.00431405
0.00431405
0.00431405
0.00431405
0.00431405
0.00431405
0.00431405
0.00431405
0.00431405
0.00431405
0.00431405
0.00431405
0.00431405
0.00431405
0.00431405
0.00431405
0.00431405
0.00431405
0.00431405
0.00431405
0.00431405
0.00431405
0.00431405
0.00431405
0.00431405
0.00431405
0.00431405
0.00431405
0.00431405
0.00431405
0.00431405
0.00431405
0.00431405
0.00431405
0.00431405
0.00431405
0.00431405
0.00431405
0.00431405
0.00431405
0.00431405
0.00431405
0.00431405
0.00431405
0.00431405
0.00431405
0.00431405
0.00431405
0.00431405
0.00431405
0.00431405
0.00431405
0.00431405
0.00431405
0.00431405
0.00431405
0.00431405
0.00431405
0.00431405
0.00431405
0.00431405
0.00431405
0.00431405
0.00431405
0.00431405
0.00431405
0.00431405
0.00431405
0.00431405
0.00431405
0.00431405
0.00431405
0.00431405
0.00431405
0.00431405
0.00431405
0.00431405
0.00431405
0.00431405
0.00431405
0.00431405
0.00431405
0.00431405
0.00431405
0.00431405
0.00431405
0.00431405
0.00431405
0.00431405
0.00431405
0.00431405
0.00431405
0.00431405
0.00431405
0.00431405
0.00431405
0.00431405
0.00431405
0.00431405
0.00431405
0.00431405
0.00431405
0.00431405
0.00431405
0.00431405
0.00431405
0.00431405
0.00431405
0.00431405
0.00431405
0.00431405
0.00431405
0.00431405
0.00431405
0.00431405
0.00431405
0.00431405
0.00431405
0.00431405
0.00431405
0.00431405
0.00431405
0.00431405
0.00431405
0.00431405
0.00431405
0.00431405
0.00431405
0.00431405
0.00431405
0.00431405
0.00431405
0.00431405
0.00431405
0.00431405
0.00431405
0.00431405
0.00431405
0.00431405
0.00431405
0.00431405
0.00431405
0.00431405
0.00431405
0.00431405
0.00431405
0.00431405
0.00431405
0.00431405
0.00431405
0.00431405
0.00431405
0.00431405
0.00431405
0.00431405
0.00431405
0.00431405
0.00431405
0.00431405
0.00431405
0.00431405
0.00431405
0.00431405
0.00431405
0.00431405
0.00431405
0.00431405
0.00431405
0.00431405
0.00431405
0.00431405
0.00431405
0.00431405
0.00431405
0.00431405
0.00431405
0.00431405
0.00431405
0.00431405
0.00431405
0.00431405
0.00431405
0.00431405
0.00431405
0.00431405
0.00431405
0.00431405
0.00431405
0.00431405
0.00431405
0.00431405
0.00431405
0.00431405
0.00431405
0.00431405
0.00431405
0.00431405
0.00431405
0.00431405
0.00431405
0.00431405
0.00431405
0.00431405
0.00431405
0.00431405
0.00431405
0.00431405
0.00431405
0.00431405
0.00431405
0.00431405
0.00431405
0.00431405
0.00431405
0.00431405
0.00431405
0.00431405
0.00431405
0.00431405
0.00431405
0.00431405
0.00431405
0.00431405
0.00431405
0.00431405
0.00431405
0.00431405
0.00431405
0.00431405
0.00431405
0.00431405
0.00431405
0.00431405
0.00431405
0.00431405
0.00431405
0.00431405
0.00431405
0.00431405
0.00431405
0.00431405
0.00431405
0.00431405
0.00431405
0.00431405
0.00431405
0.00431405
0.00431405
0.00431405
0.00431405
0.00431405
0.00431405
0.00431405
0.00431405
0.00431405
0.00431405
0.00431405
0.00431405
0.00431405
0.00431405
0.00431405
0.00431405
0.00431405
0.00431405
0.00431405
0.00431405
0.00431405
0.00431405
0.00431405
0.00431405
0.00431405
0.00431405
0.00431405
0.00431405
0.00431405
0.00431405
0.00431405
0.00431405
0.00431405
0.00431405
0.00366498
0.00431405
0.00431405
0.00431405
0.00431405
0.00431405
0.00431405
0.00431405
0.00431405
0.00431405
0.00431405
0.00431405
0.00431405
0.00431405
0.00431405
0.00431405
0.00431405
0.00431405
0.00431405
0.00431405
0.00431405
0.00431405
0.00431405
0.00431405
0.00412434
0.00431405
0.00431405
0.00431405
0.00431405
0.00431405
0.00431405
0.00431405
0.00431405
0.00431405
0.00431405
0.00431405
0.00431405
0.00431405
0.00431405
0.00431405
0.00431405
0.00431405
0.00431405
0.00431405
0.00431405
0.00431405
0.00431405
0.00431404
0.00413892
0.00431405
0.00431405
0.00431405
0.00431405
0.00431405
0.00431405
0.00431405
0.00431405
0.00431405
0.00431405
0.00431405
0.00431405
0.00431405
0.00431405
0.00431405
0.00431405
0.00431405
0.00431405
0.00431405
0.00431405
0.00431405
0.00431405
0.00431217
0.00423038
0.00431405
0.00431405
0.00431405
0.00431405
0.00431405
0.00431405
0.00431405
0.00431405
0.00431405
0.00431405
0.00431405
0.00431405
0.00431405
0.00431405
0.00431405
0.00431405
0.00431405
0.00431405
0.00431405
0.00431405
0.00431405
0.00431405
0.00431113
0.00423236
0.00431405
0.00431405
0.00431405
0.00431405
0.00431405
0.00431405
0.00431405
0.00431405
0.00431405
0.00431405
0.00431405
0.00431405
0.00431405
0.00431405
0.00431405
0.00431405
0.00431405
0.00431405
0.00431405
0.00431405
0.00431405
0.00431372
0.00422809
0.00427505
0.00431404
0.00431405
0.00431405
0.00431405
0.00431405
0.00431405
0.00431405
0.00431405
0.00431405
0.00431405
0.00431405
0.00431405
0.00431405
0.00431405
0.00431405
0.00431405
0.00431405
0.00431405
0.00431405
0.00431405
0.00431405
0.00431343
0.0042284
0.00427528
0.00431404
0.00431405
0.00431405
0.00431405
0.00431405
0.00431405
0.00431405
0.00431405
0.00431405
0.00431405
0.00431405
0.00431405
0.00431405
0.00431405
0.00431405
0.00431405
0.00431405
0.00431405
0.00431405
0.00431405
0.00431404
0.00431314
0.00422868
0.00427547
0.00431403
0.00431405
0.00431405
0.00431405
0.00431405
0.00431405
0.00431405
0.00431405
0.00431405
0.00431405
0.00431405
0.00431405
0.00431405
0.00431405
0.00431405
0.00431405
0.00431405
0.00431405
0.00431405
0.00431405
0.00431404
0.00431287
0.00422894
0.00427563
0.00431403
0.00431405
0.00431405
0.00431405
0.00431405
0.00431405
0.00431405
0.00431405
0.00431405
0.00431405
0.00431405
0.00431405
0.00431405
0.00431405
0.00431405
0.00431405
0.00431405
0.00431405
0.00431405
0.00431405
0.00431404
0.0043126
0.00422918
0.00427576
0.00431402
0.00431405
0.00431405
0.00431405
0.00431405
0.00431405
0.00431405
0.00431405
0.00431405
0.00431405
0.00431405
0.00431405
0.00431405
0.00431405
0.00431405
0.00431405
0.00431405
0.00431405
0.00431405
0.00431405
0.00431403
0.00431235
0.00422941
0.00427588
0.00431402
0.00431405
0.00431405
0.00431405
0.00431405
0.00431405
0.00431405
0.00431405
0.00431405
0.00431405
0.00431405
0.00431405
0.00431405
0.00431405
0.00431405
0.00431405
0.00431405
0.00431405
0.00431405
0.00431405
0.00431403
0.00431211
0.00422962
0.00427598
0.00431401
0.00431405
0.00431405
0.00431405
0.00431405
0.00431405
0.00431405
0.00431405
0.00431405
0.00431405
0.00431405
0.00431405
0.00431405
0.00431405
0.00431405
0.00431405
0.00431405
0.00431405
0.00431405
0.00431405
0.00431402
0.00431185
0.00422983
0.00427609
0.00431401
0.00431405
0.00431405
0.00431405
0.00431405
0.00431405
0.00431405
0.00431405
0.00431405
0.00431405
0.00431405
0.00431405
0.00431405
0.00431405
0.00431405
0.00431405
0.00431405
0.00431405
0.00431405
0.00431405
0.00431401
0.00431157
0.00423006
0.0042762
0.00431401
0.00431405
0.00431405
0.00431405
0.00431405
0.00431405
0.00431405
0.00431405
0.00431405
0.00431405
0.00431405
0.00431405
0.00431405
0.00431405
0.00431405
0.00431405
0.00431405
0.00431405
0.00431405
0.00431405
0.004314
0.00431129
0.00423028
0.00427631
0.004314
0.00431405
0.00431405
0.00431405
0.00431405
0.00431405
0.00431405
0.00431405
0.00431405
0.00431405
0.00431405
0.00431405
0.00431405
0.00431405
0.00431405
0.00431405
0.00431405
0.00431405
0.00431405
0.00431405
0.00431399
0.00431103
0.00423049
0.00427641
0.004314
0.00431405
0.00431405
0.00431405
0.00431405
0.00431405
0.00431405
0.00431405
0.00431405
0.00431405
0.00431405
0.00431405
0.00431405
0.00431405
0.00431405
0.00431405
0.00431405
0.00431405
0.00431405
0.00431405
0.00431398
0.00431077
0.0042307
0.00427651
0.00431399
0.00431405
0.00431405
0.00431405
0.00431405
0.00431405
0.00431405
0.00431405
0.00431405
0.00431405
0.00431405
0.00431405
0.00431405
0.00431405
0.00431405
0.00431405
0.00431405
0.00431405
0.00431405
0.00431405
0.00431397
0.00431051
0.0042309
0.00427661
0.00431399
0.00431405
0.00431405
0.00431405
0.00431405
0.00431405
0.00431405
0.00431405
0.00431405
0.00431405
0.00431405
0.00431405
0.00431405
0.00431405
0.00431405
0.00431405
0.00431405
0.00431405
0.00431405
0.00431405
0.00431396
0.00431026
0.0042311
0.0042767
0.00431398
0.00431405
0.00431405
0.00431405
0.00431405
0.00431405
0.00431405
0.00431405
0.00431405
0.00431405
0.00431405
0.00431405
0.00431405
0.00431405
0.00431405
0.00431405
0.00431405
0.00431405
0.00431405
0.00431405
0.00431395
0.00431001
0.0042313
0.00427679
0.00431398
0.00431405
0.00431405
0.00431405
0.00431405
0.00431405
0.00431405
0.00431405
0.00431405
0.00431405
0.00431405
0.00431405
0.00431405
0.00431405
0.00431405
0.00431405
0.00431405
0.00431405
0.00431405
0.00431405
0.00431393
0.00430976
0.0042315
0.00427688
0.00431397
0.00431405
0.00431405
0.00431405
0.00431405
0.00431405
0.00431405
0.00431405
0.00431405
0.00431405
0.00431405
0.00431405
0.00431405
0.00431405
0.00431405
0.00431405
0.00431405
0.00431405
0.00431405
0.00431405
0.00431392
0.0043095
0.0042317
0.00427698
0.00431397
0.00431405
0.00431405
0.00431405
0.00431405
0.00431405
0.00431405
0.00431405
0.00431405
0.00431405
0.00431405
0.00431405
0.00431405
0.00431405
0.00431405
0.00431405
0.00431405
0.00431405
0.00431405
0.00431405
0.0043139
0.00430924
0.00423191
0.00427707
0.00431396
0.00431405
0.00431405
0.00431405
0.00431405
0.00431405
0.00431405
0.00431405
0.00431405
0.00431405
0.00431405
0.00431405
0.00431405
0.00431405
0.00431405
0.00431405
0.00431405
0.00431405
0.00431405
0.00431405
0.00431405
0.00431405
0.00431405
0.00431405
0.00431405
0.00431405
0.00431405
0.00364144
0.00364065
0.00431405
0.00431405
0.00431405
0.00431405
0.00431405
0.00431405
0.00431405
0.00431405
0.00431405
0.00431404
0.00431405
0.00431405
0.00431405
0.00431405
0.00431405
0.00431405
0.00431405
0.00431405
0.00431315
0.00431388
0.0043111
0.00431365
0.00431405
0.00431405
0.00431405
0.00431405
0.00431405
0.00431405
0.00431405
0.00431045
0.00431085
0.00427831
0.00429651
0.00431405
0.00431405
0.00431405
0.00431405
0.00431405
0.00431405
0.00431405
0.0043118
0.00431111
0.00430371
0.00428726
0.00431405
0.00431405
0.00431405
0.00431203
0.00431154
0.00431405
0.00431405
0.00431405
0.00431353
0.00431315
0.00431405
0.00380836
0.00364363
0.00398367
0.00431405
0.00431405
0.00431394
0.00431405
0.00431405
0.00431404
0.00431357
0.00431405
0.00431404
0.00431373
0.00431404
0.00431405
0.00431405
0.00431393
0.00431104
0.00431293
0.00431405
0.00431021
0.00430186
0.00431335
0.00431064
0.00429778
0.00431098
0.00431405
0.00431249
0.00430927
0.00431389
0.00431257
0.00431405
0.00431101
0.0043105
0.00431405
0.00430025
0.00430442
0.00430151
0.00430005
0.00428663
0.00427739
0.00431405
0.00430791
0.00430921
0.00430921
0.00430799
0.00431405
0.00430327
0.00430697
0.00430473
0.00430266
0.00431134
0.00430466
0.00431405
0.00431182
0.00431325
0.0043093
0.00431166
0.00431405
0.00431015
0.00431148
0.00430742
0.00430989
0.00431307
0.00431221
0.00431331
0.00431363
0.00431405
0.0043124
0.00431119
0.00431162
0.00431233
0.00431369
0.00431357
0.00431405
0.00431405
0.00431405
0.00431396
0.00431405
0.00431405
0.00431405
0.00431405
0.00431405
0.00431312
0.00431264
0.00426484
0.00424027
0.00431405
0.00431405
0.00431405
0.00431405
0.00431399
0.00431405
0.00431405
0.00431405
0.00431255
0.0043119
0.00431405
0.00357678
0.00369213
0.0040942
0.00415071
0.00369978
0.00385115
0.00423559
0.00419225
0.00431405
0.00431366
0.00431383
0.00415706
0.00418841
0.00431384
0.00431392
0.00431405
0.00431405
0.00431405
0.00431405
0.00431405
0.00431405
0.00431405
0.00431392
0.00431405
0.00431399
0.00431405
0.00431401
0.00431405
0.00431203
0.00431268
0.00428947
0.00429027
0.00429798
0.00429609
0.00431136
0.00419131
0.00431255
0.00428417
0.00426764
0.00426995
0.00428515
0.00431335
0.0043022
0.00431399
0.00427859
0.00431002
0.00427156
0.00431394
0.0043109
0.00431398
0.00431405
0.0043138
0.00430546
0.00431398
0.004314
0.00430541
0.00430489
0.00431263
0.00431244
0.00430329
0.00430398
0.0043095
0.00431401
0.00431403
0.004314
0.00431401
0.00430947
0.00431342
0.00431404
0.00431405
0.00431403
0.00431404
0.0043132
0.00430225
0.0043025
0.00429986
0.00429973
0.00426469
0.00426659
0.00430715
0.004314
0.00431399
0.004314
0.004314
0.00430714
0.00430883
0.00431399
0.00431399
0.00431399
0.00431399
0.00430877
0.00358614
0.004305
0.00370702
0.00358039
0.00386364
0.00371576
0.00430552
0.00430008
0.00359259
0.00430072
0.00430927
0.00430881
0.0043104
0.00431401
0.004314
0.00431402
0.00431401
0.00431065
0.00400126
0.00408153
0.00430862
0.0040022
0.00387545
0.00410633
0.00401688
0.00430897
0.0038677
0.0039884
0.00431278
0.00424089
0.00426706
0.00419645
0.0042357
0.00431266
0.00418178
0.00418228
0.00419377
0.00373542
0.00419194
0.00417782
0.00379645
0.00428453
0.00428574
0.00431404
0.00431405
0.00431405
0.00431405
0.00431405
0.00431374
0.00431369
0.00393895
0.00431201
0.00431317
0.00431404
0.00431345
0.00431317
0.00431405
0.00373648
0.0037571
0.00356229
0.00417768
0.00417624
0.0037748
0.00380577
0.00427855
0.00428414
0.00333977
0.00431405
0.00431405
0.00431405
0.00431405
0.00431405
0.00431405
0.00431357
0.00431404
0.00431403
0.0043112
0.00431005
0.00431323
0.00431045
0.00431399
0.00431399
0.004314
0.00431399
0.0043105
0.00428388
0.00429415
0.00430129
0.00428882
0.00411542
0.00408282
0.0043134
0.00428678
0.00429766
0.00430772
0.00430786
0.00378807
0.00431405
0.00431403
0.00431405
0.00431384
0.00431175
0.00431049
0.00431404
0.00431405
0.00431405
0.00431405
0.00431405
0.00431403
0.00431177
0.00431401
0.004314
0.00431403
0.00431402
0.00431203
0.00430808
0.00421191
0.00427063
0.00417398
0.0041827
0.00430304
0.00427653
0.00428271
0.00431153
0.00430001
0.00430642
0.00431077
0.00431377
0.00431379
0.00431356
0.0043136
0.00430936
0.00431399
0.004314
0.00431068
0.00430123
0.00415394
0.00412146
0.00430063
0.0041612
0.00417155
0.00411558
0.00412137
0.00429965
0.0042778
0.00427087
0.00430743
0.00431356
0.00431354
0.00431349
0.00431367
0.00430841
0.00430908
0.00431353
0.00431355
0.00431353
0.00431352
0.00430839
0.00431058
0.00426627
0.00427617
0.00425312
0.00424767
0.0043067
0.00431296
0.00431402
0.00431402
0.00431403
0.00431403
0.00431304
0.00431082
0.00417028
0.00411589
0.00422179
0.00420644
0.004311
0.00389941
0.00391758
0.00431198
0.00423754
0.0042263
0.00387923
0.00389437
0.00415625
0.00412408
0.00431403
0.00431404
0.00431404
0.00408026
0.00425571
0.0040956
0.00411434
0.00410623
0.00425254
0.00431405
0.00431401
0.00431405
0.00431391
0.00431404
0.00359244
0.00362866
0.00373726
0.00373668
0.00412221
0.00379855
0.00377794
0.0038392
0.00380434
0.00412948
0.00374042
0.0037689
0.00421937
0.00421206
0.00417288
0.00389061
0.003857
0.00380886
0.00382457
0.00431379
0.00431403
0.00431404
0.00431395
0.00431402
0.0043137
0.00431125
0.00431315
0.00428476
0.00429331
0.00430069
0.00428984
0.00420086
0.00428096
0.00427374
0.00428859
0.00428323
0.00419903
0.00425737
0.00425065
0.0042715
0.00426118
0.0042783
0.00416598
0.00418701
0.00412858
0.00415569
0.00427585
0.00406541
0.00407408
0.00429417
0.00431298
0.00431197
0.00431386
0.00431327
0.00429818
0.00430505
0.00430264
0.00431115
0.00430608
0.00431346
0.00431403
0.00431393
0.00431307
0.00431231
0.00431329
0.004312
0.00431388
0.00431235
0.00431362
0.00431391
0.0043126
0.00431349
0.00431403
0.00431379
0.00431338
0.00419425
0.00420347
0.00430727
0.00411038
0.00407128
0.00421989
0.00411838
0.00401603
0.00398102
0.00405944
0.00403156
0.00430349
0.00418583
0.00419203
0.00426924
0.00425763
0.00430133
0.00427909
0.00424444
0.00423246
0.00425561
0.00424757
0.00431177
0.00428412
0.00428805
0.00430076
0.00430604
0.00431368
0.00431374
0.00431005
0.0043094
0.00431361
0.00431366
0.00416312
0.00415964
0.00430153
0.00393955
0.0039405
0.00379489
0.00392153
0.00392713
0.00397287
0.00393741
0.00392817
0.00414596
0.00415779
0.00430039
0.00392547
0.00388988
0.00397291
0.00393636
0.00382291
0.00378805
0.00387603
0.00383962
0.00429967
0.0041273
0.00414122
0.00427174
0.00426926
0.0043136
0.00431357
0.00430734
0.00430791
0.00431365
0.00431361
0.00431351
0.00431352
0.00430902
0.00430846
0.00431351
0.00431351
0.00359878
0.00363664
0.00417363
0.00419577
0.00414431
0.00416572
0.00359431
0.00380399
0.0042252
0.00419156
0.00420187
0.00421967
0.00377352
0.00404735
0.00406041
0.00399961
0.0040425
0.00362848
0.00411536
0.00413828
0.00406749
0.00410345
0.00362796
0.00425769
0.00426385
0.0043103
0.004232
0.00424413
0.00424751
0.00423139
0.00424402
0.00430721
0.00424396
0.0042525
0.0040346
0.00368883
0.00368841
0.00376402
0.00369822
0.00404623
0.00373571
0.00391486
0.00368968
0.00393447
0.00421682
0.00429472
0.00429025
0.00430012
0.00429623
0.00422022
0.0041649
0.00417089
0.00392619
0.00394712
0.0038368
0.00387278
0.00417897
0.00416379
0.00431405
0.00431405
0.00431405
0.00431405
0.00431397
0.00431398
0.00431405
0.00431405
0.00431405
0.00431405
0.00431405
0.00431405
0.00431405
0.00431405
0.00431405
0.00431405
0.00431404
0.00431367
0.00431114
0.00430657
0.00430597
0.00427975
0.0042957
0.004314
0.00431401
0.00431139
0.00426674
0.00426355
0.00428772
0.00427838
0.0042835
0.00431204
0.00431402
0.00431405
0.00431405
0.00430907
0.00431058
0.00431373
0.00431399
0.00431386
0.00431404
0.00431324
0.00430086
0.00430837
0.00429852
0.00430534
0.00430455
0.00431058
0.00431178
0.0043118
0.0043093
0.00431384
0.00431387
0.00431269
0.00431075
0.004314
0.004314
0.00417873
0.00416513
0.00430352
0.00428547
0.00427087
0.00426978
0.00427646
0.00430783
0.00431171
0.00431171
0.00430917
0.00431175
0.00431177
0.0043117
0.00431169
0.00430809
0.00429888
0.00419977
0.0041856
0.00430953
0.00431354
0.00431352
0.00431347
0.00431403
0.00431403
0.00372115
0.00372153
0.00424916
0.00424081
0.00431208
0.00372223
0.00372138
0.00429872
0.00430118
0.00431365
0.00431398
0.00431393
0.0035703
0.00359002
0.00359677
0.00368191
0.00370818
0.00357664
0.00358294
0.0037002
0.00367876
0.00382962
0.00416057
0.0041545
0.00419889
0.00391659
0.00389627
0.00417711
0.00431405
0.00431405
0.00431405
0.00431379
0.00431391
0.00431399
0.00431402
0.00431355
0.00431365
0.00431405
0.00431405
0.00431404
0.0043095
0.00430921
0.00431158
0.00431295
0.00431183
0.00431126
0.00428719
0.00429109
0.00427438
0.00427674
0.00429923
0.00429374
0.00426432
0.00426961
0.00420825
0.00420934
0.00423623
0.00423248
0.00419129
0.00421186
0.00421464
0.00431219
0.00428555
0.00429118
0.00429926
0.0042862
0.00430427
0.00430215
0.0043125
0.00431169
0.00430812
0.0042446
0.00423495
0.00429667
0.00428088
0.00425847
0.00431404
0.00431404
0.00431372
0.0043136
0.00431277
0.00431319
0.00430801
0.00431292
0.00431332
0.00428935
0.0042964
0.00431313
0.00422251
0.00421095
0.0043026
0.00430466
0.00431397
0.00431399
0.00431366
0.00431275
0.0043139
0.00431393
0.00430326
0.00416359
0.00416264
0.00426461
0.0042675
0.00431169
0.0043117
0.00430889
0.00430864
0.00431168
0.00431169
0.0035953
0.00369623
0.00388909
0.0039021
0.00375654
0.00376677
0.00356957
0.00421008
0.00420247
0.00429948
0.00362691
0.00361132
0.00370864
0.00371001
0.00360546
0.00374535
0.00375049
0.00359944
0.00360296
0.00431359
0.00431357
0.00430966
0.00431112
0.00431365
0.00431362
0.00394117
0.00421558
0.00422311
0.00419965
0.00420762
0.00391989
0.00425291
0.00429777
0.00430119
0.00430057
0.00429924
0.00425695
0.00420481
0.0042462
0.00424108
0.00417046
0.00416271
0.00418208
0.00375829
0.00376991
0.00377581
0.00372814
0.00420146
0.00395774
0.00392708
0.00398384
0.00396506
0.0041731
0.00406625
0.004069
0.00419274
0.00421079
0.00428963
0.00431403
0.00431403
0.004314
0.00373784
0.00374384
0.00392426
0.00392332
0.00354409
0.0037921
0.00376203
0.00376175
0.00375202
0.00375806
0.00380108
0.00334908
0.00417247
0.00417855
0.00431405
0.00431405
0.00431405
0.00430771
0.00430715
0.00431116
0.00430893
0.00431091
0.00431225
0.00431034
0.00431068
0.00428204
0.00429491
0.0042515
0.00425511
0.00425498
0.00425122
0.00428819
0.00426119
0.00425974
0.00410804
0.00405861
0.00405789
0.0040651
0.00406391
0.00409878
0.00431144
0.00431289
0.00431295
0.00431268
0.00431284
0.0043111
0.00429925
0.00430943
0.0043038
0.0043019
0.00430933
0.00431182
0.00431184
0.00427064
0.00427138
0.00428304
0.00427321
0.00431174
0.00431172
0.00430761
0.00431173
0.00431174
0.00430912
0.00430826
0.00431169
0.00431168
0.00425358
0.00426577
0.00426063
0.00427007
0.00426846
0.00425259
0.00372289
0.00372673
0.00372652
0.00372378
0.00388448
0.00379372
0.00378982
0.00407182
0.00407136
0.00414638
0.00408478
0.00409775
0.0040615
0.00407143
0.00413497
0.00431401
0.004314
0.00431402
0.00431398
0.00431404
0.00431404
0.00431405
0.00431402
0.00431403
0.00431401
0.00409204
0.0041765
0.00417102
0.00419178
0.00418384
0.00409871
0.00412636
0.00415101
0.00414015
0.00416663
0.00416099
0.00411805
0.00431402
0.00431404
0.00431403
0.00431368
0.00431339
0.00431398
0.00431393
0.00357163
0.00366362
0.0036009
0.00359761
0.00373743
0.00373713
0.00387442
0.00388573
0.00378663
0.00358087
0.00357362
0.00372047
0.00363323
0.00363542
0.00362623
0.00380103
0.00364248
0.00360622
0.00416758
0.00417781
0.0042258
0.00414243
0.00414495
0.00413543
0.0041373
0.00420498
0.00415228
0.00415688
0.00381194
0.00373756
0.003745
0.00372985
0.00373125
0.00381654
0.00431394
0.00431397
0.00431385
0.00431344
0.00431371
0.0043139
0.00430686
0.00431136
0.00430879
0.00430825
0.00430935
0.0043098
0.00430829
0.00430886
0.00428567
0.00429194
0.00425912
0.00426038
0.00425647
0.00425783
0.00430005
0.00427799
0.00427887
0.00425947
0.00426119
0.00429149
0.00426042
0.0042183
0.00421078
0.00419492
0.00422933
0.00422529
0.00425458
0.00421762
0.00421668
0.0042289
0.00422244
0.00425261
0.00426883
0.00423545
0.00423942
0.00422092
0.00422849
0.00426529
0.00421543
0.00413752
0.00420444
0.00419882
0.00405958
0.00406431
0.00429233
0.00430602
0.00430516
0.00429021
0.00430159
0.00430944
0.0043074
0.00426023
0.00425208
0.00428783
0.00428965
0.00430351
0.0042769
0.00426878
0.00431045
0.00431154
0.00431335
0.00431223
0.00430905
0.00430449
0.00430878
0.00431308
0.00431358
0.00431369
0.00431306
0.00431328
0.00431218
0.00431083
0.00431204
0.0043137
0.00431331
0.00431309
0.00431374
0.00431341
0.0043138
0.0043128
0.00431288
0.00431233
0.00431303
0.00410035
0.00408488
0.00419081
0.00406139
0.0040752
0.00403245
0.00412565
0.00400253
0.0039909
0.00404928
0.0040408
0.00426331
0.00420857
0.00422145
0.00418317
0.00419536
0.00425996
0.00429883
0.00427875
0.00428481
0.00422907
0.00426448
0.0042927
0.00420014
0.00417901
0.00424131
0.00410881
0.00411986
0.00409056
0.00409948
0.00423782
0.00425356
0.00416322
0.00417247
0.00413259
0.00414708
0.00425068
0.0043019
0.0043055
0.00394499
0.00380772
0.00382665
0.00376925
0.00378752
0.00394346
0.00382814
0.00383604
0.00383482
0.00387768
0.00393368
0.00367176
0.00368913
0.00370354
0.00367366
0.00394881
0.00393437
0.00373759
0.00375265
0.00370832
0.00372404
0.00393139
0.00391657
0.00390602
0.00396436
0.00394928
0.00380824
0.00379518
0.00386432
0.00385463
0.00426732
0.00426833
0.00430895
0.00431171
0.00431172
0.00431168
0.00431168
0.00430853
0.00360147
0.00384417
0.00387069
0.00367632
0.00357006
0.00378524
0.00381304
0.00366033
0.0036431
0.00405128
0.00381944
0.00382084
0.00402142
0.00379482
0.00375124
0.00382053
0.00381391
0.00403491
0.00369909
0.00367887
0.00371637
0.00373614
0.00361866
0.00362844
0.00367426
0.00426044
0.00428494
0.00428296
0.00428785
0.00428644
0.00426214
0.00423607
0.00424168
0.00424164
0.00423141
0.00423118
0.00423527
0.0042434
0.00427389
0.00427165
0.0042802
0.00427693
0.0042469
0.00368658
0.00376652
0.00377737
0.00375013
0.00375816
0.00368706
0.00374042
0.00383802
0.00385893
0.0037931
0.00381444
0.00371731
0.00373059
0.00364142
0.00365234
0.00363635
0.00363774
0.00369035
0.0037251
0.00374033
0.00367267
0.00369875
0.00368694
0.00425396
0.00425062
0.00421246
0.00416413
0.00417787
0.00373653
0.00375302
0.00385097
0.00375706
0.00373841
0.00378455
0.00377512
0.00386366
0.00373022
0.00372932
0.00406749
0.00406736
0.00431405
0.00431405
0.00431405
0.00431405
0.00431405
0.00431405
0.00431405
0.00431405
0.00431405
0.00431405
0.00431405
0.00431405
0.00431405
0.00431405
0.00431405
0.00431405
0.00431405
0.00431405
0.00431405
0.00431405
0.00431405
0.00431405
0.00431405
0.00431405
0.00431405
0.00431405
0.00431405
0.00431405
0.00431405
0.00431405
0.00431405
0.00431405
0.00431405
0.00431405
0.00431405
0.00431405
0.00431405
0.00431405
0.00431405
0.00431405
0.00431405
0.00431405
0.00431405
0.00431405
0.00431405
0.00431405
0.00431405
0.00431405
0.00431405
0.00431405
0.00431405
0.00431405
0.00431405
0.00431405
0.00431405
0.00431405
0.00431405
0.00431405
0.00431405
0.00431405
0.00431405
0.00431405
0.00431405
0.00431405
0.00431405
0.00431405
0.00431405
0.00431405
0.00431405
0.00431405
0.00431405
0.00431405
0.00431405
0.00431405
0.00431405
0.00431405
0.00431405
0.00431405
0.00431405
0.00431405
0.00431405
0.00431405
0.00431405
0.00431405
0.00431405
0.00431404
0.00431404
0.00431405
0.00431405
0.00431405
0.00431405
0.00431405
0.00431405
0.00431405
0.00431405
0.00431405
0.00431405
0.00431405
0.00431405
0.00431405
0.00431404
0.00431404
0.00431405
0.00431405
0.00431405
0.00431405
0.00431405
0.00431405
0.00431405
0.00431405
0.00431405
0.00431405
0.00431404
0.00431404
0.00431405
0.00431405
0.00431405
0.00431405
0.00431405
0.00431405
0.00431405
0.00431405
0.00431405
0.00431405
0.00431405
0.00431405
0.00431405
0.00431405
0.00431405
0.00431405
0.00431405
0.00431405
0.00431405
0.00431405
0.00431405
0.00431405
0.00431356
0.00431355
0.00373728
0.00426634
0.0042698
0.00431405
0.00431405
0.00431405
0.00431405
0.00431405
0.00431405
0.00431405
0.00431405
0.00431405
0.00431405
0.00431405
0.00431405
0.00431404
0.00397735
0.00396965
0.00413552
0.00431405
0.00431405
0.00431405
0.00431405
0.00431405
0.00431405
0.00431405
0.00431405
0.00431405
0.00431405
0.00431405
0.00431287
0.0041371
0.00397958
0.00422931
0.00431398
0.00431405
0.00431405
0.00431405
0.00431405
0.00431405
0.00431405
0.00431405
0.00431405
0.00431405
0.00431405
0.00431405
0.00431405
0.00431405
0.00431404
0.00431404
0.00431405
0.00431405
0.00431404
0.00431403
0.00431405
0.00431405
0.00431405
0.00431404
0.00431404
0.00431405
0.00431405
0.00431403
0.00431403
0.00431403
0.00431403
0.00431405
0.00431404
0.00431404
0.00431405
0.00431405
0.00431404
0.00431404
0.00431403
0.00431404
0.00431405
0.00431405
0.00431405
0.00431405
0.00431404
0.00431405
0.00431405
0.00431355
0.00431375
0.00431405
0.00354462
0.0038839
0.00388736
0.00404887
0.0040497
0.00335508
0.00431405
0.00431405
0.00431405
0.00431405
0.00431405
0.00431405
0.00431405
0.00431405
0.00431404
0.00431405
0.00431405
0.00431405
0.00431405
0.00431405
0.00431405
0.00431405
0.00431405
0.00431405
0.00431405
0.00431405
0.00431405
0.00431405
0.00431405
0.00431405
0.00431405
0.00431405
0.00431405
0.00431405
0.00431405
0.00431405
0.00431404
0.00431401
0.00431405
0.00431405
0.00431405
0.00431405
0.00431405
0.00431405
0.00431405
0.00431405
0.00431405
0.00431405
0.00431405
0.00431405
0.00431405
0.00431405
0.00431405
0.00431405
0.00431405
0.00431405
0.00431405
0.00431405
0.00431405
0.00431405
0.00431405
0.00431405
0.00431331
0.00431385
0.00431381
0.00431401
0.00431399
0.00431382
0.0043132
0.00431273
0.0043135
0.00431405
0.00431405
0.00431405
0.00431405
0.00431405
0.00431405
0.00431405
0.00431405
0.00431405
0.00431405
0.00431405
0.00431405
0.00431405
0.00431405
0.00431405
0.00431405
0.00431405
0.00431405
0.00431404
0.00431404
0.00431405
0.00431043
0.00431316
0.00431317
0.00431325
0.00431321
0.0043107
0.00431405
0.00431405
0.00431405
0.00431405
0.00431405
0.00431405
0.00431405
0.00431405
0.00431405
0.00431405
0.00431405
0.00431405
0.00431405
0.00431405
0.00431405
0.00431405
0.00431405
0.00431405
0.00431404
0.00431404
0.00431405
0.00431149
0.00431401
0.00431401
0.00431332
0.00431334
0.0043112
0.00430277
0.00428279
0.00428543
0.00431405
0.00431405
0.00431405
0.00431405
0.00431405
0.00431405
0.00431405
0.00431405
0.00431405
0.00431183
0.00429807
0.00430122
0.00430646
0.00430701
0.00431172
0.00431405
0.00431405
0.00431405
0.00431405
0.00431405
0.00431405
0.00431405
0.00431405
0.00431405
0.00431349
0.00431187
0.00431203
0.00431048
0.00431078
0.00431323
0.00431377
0.00431356
0.00431405
0.00379256
0.00430787
0.00430766
0.00417756
0.00417987
0.0036552
0.00431222
0.00431206
0.00395071
0.00431405
0.00431389
0.00431397
0.00431398
0.00431389
0.00431405
0.00431398
0.00431403
0.00431402
0.00431405
0.00431405
0.00431404
0.00431405
0.00431405
0.00431405
0.00431403
0.00431381
0.004314
0.00431405
0.00431405
0.00431405
0.00431403
0.00431404
0.00431405
0.00431377
0.00431346
0.00431338
0.00431404
0.00431404
0.00431404
0.00431405
0.00431405
0.00431405
0.00431405
0.00431405
0.00431405
0.00431403
0.00431403
0.00431399
0.00431126
0.00431336
0.0043133
0.00431375
0.00431369
0.00431263
0.00431405
0.00431404
0.00431405
0.00430965
0.00430331
0.00430501
0.00428491
0.00428559
0.00430222
0.00430609
0.00430684
0.00431097
0.00431404
0.00431404
0.00431405
0.00431232
0.00431318
0.00431327
0.00431372
0.00431401
0.00431402
0.00431333
0.00431337
0.00431261
0.00431405
0.00431405
0.00431404
0.00431091
0.00431327
0.00431329
0.00431318
0.00431319
0.00431055
0.00431405
0.00431404
0.00431404
0.00430059
0.00428134
0.00428051
0.00428992
0.00428915
0.0043041
0.0043012
0.00428367
0.00428428
0.00427992
0.00427953
0.00429982
0.00431403
0.00431403
0.00431405
0.00431242
0.00431236