/*--------------------------------*- C++ -*----------------------------------*\
| =========                 |                                                 |
| \\      /  F ield         | OpenFOAM: The Open Source CFD Toolbox           |
|  \\    /   O peration     | Version:  5.x                                   |
|   \\  /    A nd           | Web:      www.OpenFOAM.org                      |
|    \\/     M anipulation  |                                                 |
\*---------------------------------------------------------------------------*/
FoamFile
{
    version     2.0;
    format      ascii;
    class       volScalarField;
    location    "300";
    object      p;
}
// * * * * * * * * * * * * * * * * * * * * * * * * * * * * * * * * * * * * * //

dimensions      [0 2 -2 0 0 0 0];

internalField   nonuniform List<scalar> 
6584
(
31.1739
30.0925
29.1606
28.6731
28.5626
28.9516
29.8171
31.1925
32.741
34.2428
34.6975
33.029
28.4235
21.0232
11.9073
2.41446
-6.39741
-14.211
-20.8472
-26.4281
-31.0711
-35.0093
-38.2165
-41.1517
30.9138
29.9039
28.9186
28.4165
28.2637
28.6479
29.5408
31.0751
32.8776
34.8283
35.7484
34.415
29.7401
21.8686
12.1879
2.10169
-6.99486
-14.918
-21.5198
-27.0215
-31.5571
-35.4348
-38.5375
-41.5512
30.3526
29.3561
28.269
27.6895
27.4263
27.7701
28.7317
30.7065
33.0726
35.7176
39.0683
39.7873
35.9921
27.3052
15.8332
0.949346
-8.82635
-16.9717
-23.4329
-28.6612
-32.8974
-36.5513
-39.4331
-42.4055
29.6172
28.5557
27.3164
26.5746
26.104
26.2799
27.2535
29.6512
33.5689
37.9102
44.405
48.5449
45.4457
33.4872
17.7584
3.16661
-12.0137
-20.3772
-26.4589
-31.1509
-34.8895
-38.1469
-40.7108
-43.5002
28.7676
27.5662
26.118
25.0959
24.2707
24.0162
24.6807
27.0738
31.0225
39.2771
50.6247
61.982
60.9201
41.7338
17.7033
-1.13846
-13.8743
-25.6976
-30.8498
-34.4713
-37.4468
-40.1011
-42.2499
-44.7232
27.8566
26.4435
24.7299
23.2878
21.9117
20.7361
20.5477
21.703
26.6506
35.7086
52.9504
84.0022
96.5338
59.5608
12.5809
-11.2005
-23.3864
-32.7519
-36.3798
-38.4757
-40.4319
-42.2848
-43.9325
-45.9667
26.9588
25.2787
23.2677
21.3009
19.2363
16.8344
15.2295
15.0471
15.8864
21.8936
43.7684
102.032
187.708
65.3678
-1.77339
-31.0951
-37.4053
-41.8866
-42.8348
-42.9093
-43.6018
-44.4953
-45.59
-47.0919
26.1569
24.1881
21.891
19.3736
16.5654
12.8184
9.15523
6.75345
0.919843
-4.92286
-2.31465
27.2192
-15.5163
-57.8056
-62.5078
-55.9392
-52.0276
-49.4785
-47.266
-46.5803
-46.4648
-47.0185
-47.9489
25.525
23.291
20.7742
17.7957
14.3562
9.50065
3.85891
-1.31369
-14.1042
-35.463
-67.452
-149.306
-239.006
-136.967
-96.8228
-74.4276
-60.9836
-54.9867
-50.7825
-48.8835
-47.8907
-48.0059
-48.401
25.113
22.6843
20.0659
16.836
13.0817
7.77725
1.10384
-5.90979
-21.8648
-50.1359
-97.4191
-206.211
-344.94
-185.333
-116.941
-85.783
-66.0978
-57.9252
-52.6687
-50.0466
-48.503
-48.3717
-48.3488
24.9341
22.4128
19.8336
16.6202
12.9639
8.02593
1.68614
-5.39009
-19.1046
-41.8698
-78.8979
-151.218
-303.019
-177.397
-113.928
-85.6825
-65.7671
-57.5078
-52.4823
-49.8053
-48.1523
-48.0163
-47.7525
24.9604
22.4536
20.0342
17.0722
13.8602
9.89693
4.97709
-0.583369
-8.56184
-18.9105
-32.7488
-46.7774
-180.629
-128.182
-92.2296
-75.2594
-60.396
-53.9882
-50.3037
-48.2043
-46.8606
-46.9509
-46.6432
25.1316
22.7255
20.5341
17.9566
15.3569
12.5656
9.44352
6.07884
3.91122
4.92181
10.8028
37.7596
-54.2923
-69.0948
-63.7216
-59.55
-51.9771
-48.4709
-46.6614
-45.5575
-44.8243
-45.2917
-45.1149
25.374
23.1195
21.1646
18.9904
16.9814
15.2154
13.593
13.827
13.3433
20.8388
33.16
70.8355
149.155
19.5616
-25.1344
-39.0702
-43.9024
-42.8542
-42.2784
-42.2914
-42.3151
-42.3031
-43.2186
-43.2968
25.6186
23.5311
21.7747
19.9382
18.3707
17.2639
16.5427
17.337
18.7073
25.7495
36.6216
56.0014
61.1518
26.9802
-6.7604
-22.9938
-30.9458
-34.5432
-36.4091
-37.8471
-38.8973
-39.5668
-40.923
-41.3208
25.8131
23.8817
22.2644
20.6679
19.3642
18.5897
18.2027
19.2832
20.6248
25.2368
32.2145
37.7164
30.8114
16.5399
-0.0962412
-14.1872
-23.9545
-28.2827
-31.4527
-33.7761
-35.6152
-36.8577
-38.5844
-39.32
25.9257
24.1255
22.5863
21.1379
19.9425
19.2833
18.8376
19.8222
20.7633
22.5503
24.8321
23.9122
24.2392
13.7364
0.947657
-9.65555
-18.4935
-23.5793
-27.3898
-30.2549
-32.6334
-34.3032
-36.3184
-37.3702
25.9426
24.2442
22.7311
21.3581
20.1524
19.4579
18.7436
19.1761
19.3446
20.6465
19.5774
20.9369
11.501
8.89092
-1.37168
-8.7628
-14.7309
-20.2074
-24.1535
-27.3273
-30.0217
-31.994
-34.2034
-35.5326
25.8635
24.2393
22.7139
21.3673
20.0776
19.2806
18.2195
18.229
17.0329
18.4581
11.4582
18.9171
13.6114
-0.610249
-0.346105
-8.33484
-12.9195
-17.9959
-21.7006
-24.9766
-27.7988
-29.9698
-32.2898
-33.8501
25.697
24.1249
22.5628
21.2177
19.8089
18.9135
17.5009
17.3338
15.1873
16.729
11.0479
14.6047
10.8011
0.550983
-0.336238
-8.07022
-11.5745
-16.4192
-19.8149
-23.1007
-25.9292
-28.2256
-30.5927
-32.3395
25.4563
23.9203
22.3084
20.9552
19.414
18.4442
16.7124
16.4391
13.7553
14.8201
9.87155
10.5703
7.38295
0.394206
-0.948506
-7.80596
-10.5902
-15.2562
-18.3352
-21.5971
-24.3616
-26.7377
-29.1063
-31.0011
25.1563
23.6457
21.9781
20.6159
18.9417
17.9167
15.9175
15.5256
12.5423
13.0587
8.56227
8.24645
5.33151
-0.251524
-1.64143
-7.64191
-9.95717
-14.4023
-17.1755
-20.3918
-23.0503
-25.4763
-27.8157
-29.8267
24.8121
23.3206
21.5967
20.2284
18.4307
17.3646
15.1604
14.6516
11.5353
11.632
7.5495
6.67469
3.97643
-0.733239
-2.19937
-7.5292
-9.54451
-13.7574
-16.2632
-19.4212
-21.9533
-24.4098
-26.7004
-28.802
24.438
22.9622
21.185
19.8148
17.9092
16.8127
14.4621
13.8455
10.6976
10.4607
6.71902
5.46748
2.93556
-1.13265
-2.66002
-7.44186
-9.2629
-13.2524
-15.5371
-18.6311
-21.0327
-23.507
-25.7381
-27.9101
24.0469
22.5851
20.7598
19.3917
17.3962
16.2763
13.8276
13.1115
9.98928
9.48253
6.02704
4.54278
2.12625
-1.47845
-3.04604
-7.3725
-9.06656
-12.8463
-14.9516
-17.9795
-20.2555
-22.7389
-24.9057
-27.1321
23.6501
22.2018
20.3344
18.9712
16.9038
15.7647
13.2564
12.4497
9.38681
8.66355
5.44006
3.81811
1.49444
-1.75831
-3.36086
-7.31313
-8.9256
-12.5118
-14.4737
-17.4343
-19.5938
-22.0795
-24.182
-26.4499
23.2577
21.822
19.9189
18.5621
16.4395
15.2836
12.7451
11.8572
8.87223
7.98205
4.94559
3.24952
1.01887
-1.98217
-3.61462
-7.25981
-8.82037
-12.2292
-14.0771
-16.9709
-19.0253
-21.5082
-23.5484
-25.8459
22.878
21.4538
19.521
18.1707
16.0074
14.8357
12.2893
11.3295
8.42826
7.41112
4.53487
2.80161
0.638084
-2.18413
-3.81802
-7.20629
-8.73238
-11.9801
-13.7382
-16.5664
-18.5286
-21.0036
-22.9856
-25.3028
22.5181
21.1033
19.1463
17.8008
15.6096
14.4217
11.8839
10.8614
8.04278
6.92593
4.18671
2.43262
0.326767
-2.34557
-3.9769
-7.15166
-8.65367
-11.7555
-13.4419
-16.2053
-18.0867
-20.5488
-22.4771
-24.8053
22.1843
20.7755
18.799
17.4552
15.2464
14.0406
11.5221
10.4446
7.70838
6.5118
3.89018
2.12625
0.0709007
-2.47308
-4.10018
-7.09396
-8.57868
-11.5477
-13.1765
-15.8747
-17.6855
-20.1291
-22.0081
-24.3384
21.8818
20.4737
18.4818
17.1346
14.9172
13.6913
11.1981
10.0694
7.41483
6.15395
3.63516
1.86918
-0.141227
-2.57375
-4.19501
-7.03132
-8.50373
-11.3495
-12.9322
-15.564
-17.3138
-19.7319
-21.5658
-23.8886
21.6158
20.2003
18.1971
16.8383
14.6208
13.3698
10.9105
9.73143
7.15659
5.84053
3.41334
1.64973
-0.32121
-2.6536
-4.26812
-6.96287
-8.4274
-11.156
-12.703
-15.2647
-16.9628
-19.3466
-21.14
-23.4439
21.3905
19.9549
17.946
16.5632
14.3547
13.0672
10.6546
9.42059
6.92843
5.56017
3.21873
1.4587
-0.476523
-2.71449
-4.32469
-6.88572
-8.3502
-10.9608
-12.4847
-14.9674
-16.6248
-18.9613
-20.7196
-22.9892
21.2124
19.7397
17.7329
16.3096
14.1233
12.7839
10.4334
9.13365
6.73175
5.30612
3.04474
1.28201
-0.621076
-2.7609
-4.37144
-6.79902
-8.27596
-10.762
-12.2799
-14.6708
-16.3026
-18.5756
-20.3074
-22.5243
21.0809
19.5308
17.547
16.0398
13.9154
12.4757
10.2349
8.8242
6.55652
5.04559
2.89384
1.12625
-0.745844
-2.78265
-4.42082
-6.68425
-8.21306
-10.5302
-12.0836
-14.3363
-15.9758
-18.1423
-19.8661
-21.9885
21.02
19.3936
17.4439
15.8527
13.8007
12.2596
10.1311
8.61109
6.46625
4.86023
2.74853
0.897121
-0.953391
-2.80108
-4.45815
-6.57495
-8.16823
-10.3364
-11.9449
-14.0719
-15.7412
-17.8084
-19.5428
-21.5756
-133.931
-233.769
-5.46181
-205.363
-369.884
-260.105
-162.828
-339.931
-375.884
-59.6048
-206.131
-325.753
29.5484
-64.38
-187.967
71.0922
166.872
161.916
27.3919
-48.7663
49.2668
187.629
24.1124
87.2563
-52.9937
-117.417
20.8437
-172.458
99.8883
-215.728
-132.241
-56.8171
-94.7176
-185.407
-131.494
-184.035
-266.208
-223.113
-462.179
-372.936
-339.613
-204.084
-155.163
-87.4231
-150.266
-186.179
-197.768
-275.503
-291.415
-508.596
-518.412
-314.829
-208.054
-211.708
-45.0983
-57.8757
-139.861
-113.065
-134.983
-201.33
-332.109
-429.43
-197.27
-154.981
-198.636
-135.931
-223.984
-68.4955
-83.378
-137.25
43.8716
-28.975
62.2935
61.1302
151.953
57.2387
41.7968
30.7082
-214.697
-121.981
-74.2229
-134.716
-231.115
90.2705
-115.848
-365.376
-196.962
-142.897
-187.913
-355.716
-290.342
-270.419
-191.794
-280.356
-300.942
-239.409
-279.603
-512.828
-466.732
-337.285
-451.635
-507.57
-362.108
-447.517
-321.797
-210.525
-269.049
-191.07
-279.128
-215.873
-300.206
-283.622
-434.105
-504.191
-371.446
-501.764
-423.234
-510.92
-505.563
-377.049
-128.739
-60.5102
-210.141
-138.909
-230.31
-325.603
-259.583
-322.296
-229.714
-417.932
-328.754
-277.114
15.0538
58.0388
-51.3067
7.88811
-40.5207
-123.97
-217.701
-135.189
-132.937
101.253
113.689
62.6008
98.8145
89.7281
50.4557
-50.2266
-102.166
79.6055
-56.9588
244.516
1.43235
24.1167
-46.1865
-10.4412
4.86669
-51.8144
29.8782
-20.5362
16.8727
-26.8078
-66.7588
183.978
-74.6194
81.7758
-160.327
-108.38
-60.4441
-125.342
-99.6494
-98.6236
-58.1992
52.6767
74.1327
-52.5815
-15.3458
-27.7381
-76.7461
-115.266
-123.405
-43.8392
76.7557
101.938
-33.0912
34.8167
-7.07156
310.82
197.84
119.851
131.835
203.748
313.709
-94.5005
-62.0676
-104.326
220.528
-66.1617
-22.1835
-428.123
-419.368
-524.387
-523.32
-376.047
-383.44
-171.43
-139.18
-177.015
82.2307
36.5929
-21.8632
26.5222
5.01004
-208.194
-186.114
-253.303
-213.323
-256.612
-199.155
-201.753
-84.472
-37.0217
-102.8
-197.148
-297.797
-288.463
-293.389
-293.308
-259.317
-260.942
-492.278
-491.676
-486.829
-414.103
-391.577
-434.15
-419.934
-488.922
-410.16
-342.871
-303.714
-383.318
-354.024
-416.323
-253.376
-248.029
-300.694
-298.175
-473.012
-475.898
-473.463
-410.392
-428.495
-379.59
-403.132
-469.532
-518.45
-441.922
-437.262
-433.288
-441.258
-518.802
-103.649
-99.4971
-103.807
-144.743
-58.6553
-98.4159
-89.6519
-179.981
-149.48
-169.631
-275.143
-281.962
-376.861
-342.545
-371.058
-301.934
-332.499
-370.717
26.6614
50.4404
-24.247
-15.9609
-53.0809
20.4148
-11.2034
-15.8323
-10.2333
22.6429
-75.8121
-77.7251
-28.6654
-133.45
-83.4578
-88.3565
-81.02
132.76
147.609
189.049
105.153
127.493
195.758
120.253
86.497
452.453
30.3289
58.3254
31.6341
57.5673
86.7166
60.7031
99.4993
78.0993
88.755
275.335
54.795
11.7708
0.508464
69.3721
77.9032
224.045
144.827
143.338
82.5906
92.5408
126.485
125.238
193.959
470.249
323.027
215.033
282.593
356.427
482.351
-251.505
-209.494
-227.052
-451.858
-399.605
-394.861
-288.396
-242.321
-234.476
-246.314
-246.267
-290.567
-517.92
-520.081
-351.216
-410.666
103.48
91.708
15.6169
32.5441
71.4015
109.633
90.1095
102.506
-6.18429
-61.1421
171.373
-337.935
-367.894
-395.231
-266.539
-218.848
-153.367
-288.908
-236.647
-288.363
-284.167
-241.421
-247.937
-229.142
-241.141
-281.365
-287.254
-310.21
-301.715
-327.34
-326.355
-297.568
-299.084
-293.065
-271.565
-506.77
-477.505
-467.366
-437.12
-428.709
-471.546
-463.102
-501.102
-228.229
-213.611
-245.752
-269.484
-289.364
-307.947
-302.472
-331.97
-328.617
-312.149
-323.756
-290.783
-451.943
-493.648
-491.005
-455.205
-463.616
-411.869
-416.5
-441.672
-514.969
-477.96
-471.673
-468.292
-473.582
-513.729
-249.223
-258.489
-237.822
-334.398
-320.544
-307.872
-279.66
-259.526
-291.391
-216.758
-248.536
-266.922
34.8875
45.6416
24.2185
70.1851
52.2654
40.8023
144.209
151.257
79.8855
95.5905
76.181
133.767
142.431
120.798
108.375
55.337
342.215
104.59
38.249
7.34088
11.3157
40.7432
2.88975
-0.0266101
56.9038
47.0311
260.414
-5.24369
18.2049
-81.9301
-73.2011
62.1901
67.0851
61.8824
67.0798
60.5377
77.9039
69.4671
64.3855
-35.4417
-29.5625
-48.0533
-55.0376
86.8946
90.9682
80.7928
96.8092
111.386
-165.165
-140.598
-62.6626
-220.466
-162.72
-188.396
-448.131
-401.056
-520.141
-524.113
-356.928
-404.509
-164.464
-160.58
-180.267
-135.906
-154.597
-156.049
-213.294
-233.872
-186.649
-205.463
63.6373
80.5551
96.533
46.2902
73.1604
57.9316
78.7414
49.1526
-232.355
-203.464
-225.229
-165.951
-195.06
-224.183
-250.859
-261.931
-231.205
-246.851
-154.392
-117.759
-155.999
-170.003
-184.699
-339.921
-360.071
-330.371
-340.873
-291.705
-238.569
-332.661
-305.889
-251.002
-287.648
-329.542
-319.629
-313.703
-287.699
-317.299
-323.56
-312.362
-313.294
-332.539
-330.686
-322.834
-329.378
-297.869
-324.552
-320.059
-283.922
-294.411
-265.633
-279.402
-304.007
-309.648
-296.779
-303.428
-270.484
-291.679
-285.054
-506.301
-477.681
-451.052
-438.898
-472.427
-499.081
-462.397
-452.242
-269.503
-284.109
-264.462
-293.81
-278.865
-314.532
-299.026
-254.699
-234.095
-273.327
-259.538
-332.437
-331.598
-300.982
-336.2
-339.559
-332.782
-337.627
-329.509
-316.317
-336.453
-332.408
-294.401
-326.215
-330.909
-457.506
-486.099
-439.649
-449.8
-485.487
-450.156
-422.424
-434.083
-480.224
-477.141
-517.288
-515.823
-477.121
-478.148
-120.951
-119.044
-116.351
-100.591
-138.787
-121.934
-127.796
-74.953
-72.9557
-60.8141
-95.2839
-78.3312
-80.9258
-205.315
-188.288
-227.454
-211.034
-165.108
-160.53
-144.231
-182.85
-165.948
-173.196
-285.196
-266.303
-256.17
-267.602
-284.847
-239.675
-259.375
-291.155
-301.286
-313.209
-289.789
38.0678
43.298
33.8974
58.404
47.1354
41.6367
59.8992
5.07054
29.042
10.0535
-112.837
-111.043
-129.535
-82.9682
-104.8
-105.425
-104.931
-112.187
154.696
169.82
116.954
129.946
152.617
126.547
9.30969
-33.9188
9.44746
3.98645
43.7819
68.9362
632.75
467.773
389.298
488.15
537.519
652.874
75.6997
165.549
110.142
-181.076
-205.329
-245.604
-458.041
-460.535
-465.455
-514.706
-518.346
-178.066
-155.824
-173.704
-431.089
-425.148
-423.799
-231.386
-210.735
-205.106
-183.338
-141.773
-174.276
-255.885
-242.191
-221.474
-226.938
-273.725
-239.465
-245.916
-271.421
-259.717
-508.927
-471.704
-476.28
-471.083
-491.695
-489.121
-504.694
-420.616
-412.076
-436.01
-237.235
-205.872
-186.614
-228.255
-245.409
-229.98
-439.464
-437.45
-433.687
-501.276
-498.493
-481.075
-484.431
-512.405
-495.974
-494.148
-488.08
-491.457
-509.627
-199.012
-207.723
-222.774
-400.537
-387.87
-400.214
-181.742
-173.809
-205.894
150.493
151.133
119.468
102.282
84.1008
150.676
150.894
81.2091
106.123
72.6534
-45.1903
-24.3047
-93.482
-57.5606
-63.0118
-63.9622
-46.9516
-46.3537
-51.956
-13.7902
-18.5697
-20.3014
-75.7379
-69.5966
-70.3082
109.045
95.127
89.9519
192.325
306.91
255.02
-117.177
-134.907
-114.683
-83.3638
-236.126
-216.931
-37.2114
40.2313
58.2268
-440.108
-442.48
-435.294
-412.217
-426.741
-433.224
-528.062
-523.989
-383.011
-376.051
-369.061
-391.282
-397.101
-390.126
-176.873
-182.26
-138.163
-144.394
-144.764
-187.337
-192.503
-198.603
-203.568
-185.327
-216.803
-245.141
-245.901
-251.952
-189.827
-199.951
-222.258
-273.955
-279.37
-256.558
-259.492
-256.646
-60.7404
-106.621
-138.904
-125.835
-118.077
-129.91
-181.441
-268.913
-258.048
-282.822
-274.744
-248.049
-283.331
-284.071
-495.564
-491.11
-380.285
-367.618
-390.877
-432.426
-402.754
-392.079
-235.549
-250.319
-264.388
-467.343
-477.942
-501.543
-501.467
-518.557
-519.919
-501.596
-501.457
-108.697
-109.384
-108.352
-102.632
-143.716
-138.458
-140.282
-186.055
-202.321
-190.321
-199.263
-194.082
-230.653
-226.128
-154.418
-154.329
-148.951
-189.325
-184.613
-364.84
-376.203
-394.577
-353.37
-342.665
-353.695
-30.5544
-29.6771
-20.3372
-51.1208
-40.1125
-36.1036
-55.8311
-60.3631
-76.4187
-34.7523
-47.7462
-48.7467
-126.179
-125.516
-131.65
-90.1605
-83.6253
-130.16
171.892
174.4
183.186
126.765
119.892
126.098
113.999
139.047
129.659
122.024
183.387
156.646
101.959
116.538
106.73
195.001
379.887
103.681
71.8907
74.7493
173.383
177.648
198.989
85.0677
84.5889
79.8971
92.8164
88.599
88.5371
194.855
165.398
158.053
336.785
483.235
432.537
-456.401
-457.513
-454.814
-402.096
-403.988
-397.682
-416.24
-405.218
-518.068
-517.953
-357.172
-361.286
-341.438
-349.455
-417.08
-417.406
-410.902
97.5969
101.781
107.69
91.6009
96.8491
92.7828
-376.473
-374.812
-365.881
-391.127
-383.185
-386.169
-506.436
-474.388
-477.375
-477.777
-502.469
-486.99
-484.96
-446.9
-441.148
-446.223
-500.437
-473.518
-477.643
-495.739
-498.701
-497.152
-513.284
-512.372
-494.23
-496.133
-328.538
-329.174
-333.837
-317.915
-323.379
-324.216
152.548
154.683
143.813
147.122
137.219
143.118
139.579
126.248
119.267
116.624
122.378
125.868
111.975
115.743
112.681
40.0384
17.6567
6.58624
73.8648
286.812
244.698
316.87
127.693
160.447
210.27
20.1989
18.6922
10.1995
35.3934
27.4254
29.2175
-12.8208
-9.82049
-19.0043
2.05033
-5.21774
-4.7807
76.9806
94.1805
35.4947
-64.0187
-95.7506
-21.251
-28.0685
-88.4574
-69.3948
-68.4772
-75.658
63.3695
65.0135
57.028
59.5989
62.6756
-35.0479
-40.7894
-41.2895
-17.6021
-12.6088
-23.9369
-24.4054
-21.5572
-29.2096
-44.672
-40.225
-42.0226
-38.9586
-47.4916
-25.8845
-32.4217
-62.8917
-62.3388
-54.4675
101.343
102.193
97.3761
113.025
107.371
106.193
-172.999
-143.92
-139.744
-208.545
-216.848
-196.577
-444.034
-442.351
-448.486
-454.101
-424.656
-422.367
-435.592
-428.697
-524.74
-525.958
-375.063
-381.041
-365.397
-369.925
-362.71
-369.963
-364.52
-405.814
-401.108
-398.187
-390.391
-161.299
-170.57
-150.22
-150.58
-156.621
-221.055
-222.191
-213.848
-234.47
-229.788
-228.005
-192.909
-193.444
-187.689
-206.277
-197.52
-198.535
-199.723
54.8541
50.657
42.3613
68.617
58.6608
-222.802
-232.407
-239.827
-238.408
-228.022
-211.703
-221.534
-267.823
-269.927
-276.605
-272.673
-257.993
-256.587
-264.858
-156.841
-140.831
-152.07
-114.462
-192.494
-181.657
-172.965
-349.992
-332.899
-321.953
-355.682
-345.591
-359.423
-363.315
-351.11
-273.374
-275.652
-294.18
-259.169
-274.369
-257.019
-320.876
-306.826
-313.248
-317.466
-321.143
-324.267
-313.86
-317.342
-317.422
-315.858
-314.878
-331.363
-330.021
-323.936
-326.318
-289.402
-294.987
-289.073
-296.812
-296.155
-292.424
-269.356
-282.468
-279.998
-289.203
-285.629
-273.746
-286.017
-288.106
-305.293
-307.438
-306.434
-313.226
-310.01
-307.283
-299.342
-302.72
-299.429
-307.493
-307.694
-302.237
-499.944
-485.02
-289.451
-291.518
-294.108
-279.949
-286.717
-284.566
-309.802
-297.177
-301.409
-304.247
-248.506
-251.234
-258.118
-237.317
-243.77
-241.361
-268.388
-269.413
-273.989
-262.366
-265.525
-263.835
-336.697
-338.38
-335.627
-338.858
-323.956
-319.532
-333.497
-332.09
-461.753
-481.211
-518.769
-501.367
-500.182
-498.338
-500.293
-518.417
-113.889
-119.221
-114.059
-114.844
-134.854
-132.552
-125.667
-212.173
-205.181
-199.495
-204.717
-210.917
-221.988
-226.934
-231.364
-216.821
-221.798
-216.411
-222.662
-218.893
-165.906
-160.018
-159.555
-179.638
-171.374
-279.416
-275.517
-282.014
-261.945
-268.898
-273.395
-275.405
-280.412
-243.975
-245.877
-239.309
-252.093
-304.788
-303.299
-311.116
-288.115
-295.319
-297.469
39.9431
38.8956
42.3855
31.6973
35.4998
37.1089
57.0198
52.5996
54.616
46.0268
49.6995
51.3024
54.9144
2.62261
7.70423
-7.63184
-2.32707
24.1916
22.9044
27.1119
13.0721
20.3407
17.9257
-112.201
-119.328
-120.142
-97.5208
-119.958
158.251
163.308
121.895
128.044
119.473
135.599
131.085
125.736
134.79
140.435
143.067
132.405
53.3644
70.6908
56.7197
77.7152
87.3666
63.8837
85.7591
66.3094
53.1912
55.812
30.4958
29.6586
30.1036
40.6385
43.9642
48.978
85.6084
75.1448
105.274
169.557
98.127
169.376
92.3944
72.062
67.3785
17.2151
26.3782
5.71238
-10.3775
-1.08447
10.0526
9.40965
35.7194
13.0608
39.3811
84.7726
99.3254
163.536
143.557
271.182
194.503
155.302
65.2704
31.7142
42.7614
-39.7933
-41.0599
-23.0882
-21.0521
-43.7867
-3.00239
-19.3225
-23.2994
-1.3144
2.56303
5.62457
35.5596
-102.758
-95.2323
-42.482
-118.416
-88.317
-63.6238
-45.6354
-78.5635
-55.4156
-79.5795
-98.949
-84.3492
-162.866
-183.25
-168.833
-295.253
-230.774
-185.127
-178.745
-129.397
-111.428
-48.6479
-73.8765
-80.908
-97.0825
-117.829
-119.154
-205.428
-228.29
-229.141
-345.817
-276.037
-268.743
-184.763
-141.405
-139.732
-31.3377
-39.884
-67.0575
-68.7021
-79.9059
-93.0063
-139.033
-150.392
-164.551
-261.464
-222.1
-248.662
-142.815
-121.516
-134.794
-6.35846
-0.89133
-29.6816
-34.185
-33.6339
-47.6541
-130.456
-122.795
-161.304
-83.2808
-84.3958
-103.898
13.9567
24.6904
7.14957
-15.9157
-37.1786
-58.122
-33.684
-47.9955
-65.1986
24.252
30.1787
26.8177
37.7415
54.5376
60.8196
68.5464
84.4384
99.7346
112.102
116.872
118.324
28.6344
-0.780403
-17.6544
-13.2938
-23.0737
-33.9613
25.9673
30.7439
31.1962
34.6911
39.2993
50.1672
41.4095
40.3896
66.18
37.7352
28.4628
37.9737
21.7054
7.73942
1.30711
-1.8345
-11.0925
-15.9696
28.3287
31.3066
34.3365
25.5674
33.7468
33.8157
29.0152
16.9248
25.8368
15.7452
7.83949
9.03332
-152.001
-132.328
-116.159
-203.848
-227.739
-274.992
10.6969
-26.7314
-38.3734
-228.009
-224.961
-202.471
-361.357
-401.311
-416.038
-288.683
-326.556
-283.309
-178.125
-190.746
-173.381
-352.518
-390.817
-368.006
-418.929
-424.662
-379.219
-61.6609
-75.8055
-72.7809
-223.552
-242.332
-213.69
-359.14
-332.524
-310.371
-80.8509
-77.9272
-60.3234
-195.526
-174.703
-169.301
100.64
93.0303
61.2856
185.851
171.464
157.311
154.509
152.875
183.227
-43.2699
-26.4664
-33.7193
104.734
164.48
92.6427
743.049
635.786
643.282
158.891
192.01
268.883
750.64
780.09
46.5713
70.1035
45.0296
137.987
162.237
83.8743
-66.3458
-45.5733
-36.5529
-63.4502
-53.6386
-80.1591
3.73131
-24.7509
-42.9402
-139.309
-151.291
-208.975
123.497
78.5845
62.2155
-170.316
-113.409
-132.617
-107.208
-113.344
-145.058
-50.9153
-81.1416
-81.804
-116.472
-109.692
-88.6327
-171.832
-133.582
-141.49
-102.738
-120.648
-164.67
-205.544
-195.389
-174.245
-261.702
-247.949
-252.721
-208.534
-216.698
-229.927
-382.516
-391.725
-380.475
-267.107
-239.279
-309.566
-191.694
-219.347
-234.126
-174.105
-199.203
-175.4
-104.171
-112.647
-93.5549
-174.27
-135.442
-124.403
-144.38
-142.3
-180.057
-219.646
-225.117
-202.45
-280.886
-263.336
-258.722
-274.515
-274.663
-291.974
-258.704
-271.025
-341.009
-213.548
-243.671
-235.839
-243.103
-246.291
-215.027
-50.5407
-65.5263
-57.2216
-93.9191
-75.3064
-56.7215
-110.05
-93.3703
-106.043
-120.804
-135.73
-126.187
-163.945
-147.015
-123.266
-193.822
-185.183
-192.95
-338.922
-346.528
-338.292
-174.721
-209.39
-246.033
-171.483
-189.076
-168.686
-223.487
-207.633
-186.348
-147.952
-153.918
-135.306
-226.915
-220.576
-217.944
-81.968
-104.06
-114.53
-100.883
-104.433
-83.653
-147.199
-125.268
-119.015
35.0575
43.4961
52.8307
-25.7061
-13.4646
-17.4589
65.4163
79.1885
66.3016
91.0644
83.7736
75.3807
135.837
120.655
114.563
68.5999
73.5366
88.639
42.1853
63.6855
50.9914
73.035
66.2587
40.0706
-205.322
-190.004
-199.788
-88.9922
-131.449
-170.501
-96.3732
-109.714
-83.9483
-154.585
-184.52
-157.404
58.6932
64.1665
103.586
-131.993
-107.735
-93.0814
-356.912
-366.228
-374.444
-206.15
-223.348
-213.96
-152.895
-189.898
-175.268
-216.85
-202.75
-176.159
-321.861
-306.867
-325.954
-288.742
-272.811
-274.015
-256.821
-260.688
-274.44
-198.114
-220.238
-213.74
-283.617
-289.977
-287.496
-310.436
-309.509
-299.058
-285.453
-283.019
-276.121
-373.979
-395.825
-350.475
-456.586
-449.959
-443.662
-384.258
-353.982
-338.935
-441.249
-434.952
-443.109
-303.825
-337.095
-366.198
-219.601
-210.801
-202.509
-253.22
-247.304
-261.753
-182.992
-202.147
-211.863
-276.908
-285.758
-289.731
-219.429
-224.525
-220.241
-302.019
-311.974
-311.02
-293.734
-296.94
-285.374
-413.912
-397.977
-363.155
-417.749
-420.314
-428.055
-379.64
-424.109
-418.313
-118.662
-120.387
-136.652
-61.4515
-70.6593
-69.7806
-205.315
-208.799
-214.095
-142.114
-158.413
-149.101
-236.259
-239.246
-233.133
-330.737
-324.653
-319.851
-283.603
-253.035
-241.717
-305.251
-296.733
-308.21
-225.576
-237.342
-242.05
-412.614
-407.93
-411.799
-319.849
-331.417
-347.432
-294.075
-322.793
-293.888
21.9967
25.395
18.1863
62.359
56.5284
52.318
-42.0358
-41.3943
-51.4829
10.7408
2.92751
0.317501
-52.248
-50.6437
-38.0919
-129.108
-113.085
-112.147
-205.565
-202.217
-213.917
-131.667
-163.026
-170.87
-150.974
-154.514
-134.871
110.737
137.204
124.377
133.408
137.581
110.822
69.0405
73.751
67.8696
75.9513
111.489
114.709
-55.322
-24.7387
-24.1537
-30.2239
-24.9948
-74.6826
48.7282
12.0603
-2.9029
278.75
222.606
199.973
-2.90316
-4.42477
10.2339
-38.3452
-20.748
-12.9267
-7.69154
-20.2995
-22.0544
-18.0479
-17.6896
-3.98126
-48.1008
-32.4182
-26.0697
22.5865
25.0589
32.9127
-19.3371
-12.6651
-13.4872
-5.95018
-19.7367
-5.76772
139.882
152.711
205.068
-111.853
-81.4786
-46.9742
-23.5295
-34.1128
28.9245
-130.986
-58.6457
-60.6719
-73.1298
-68.5925
-111.262
-87.4235
-82.0787
-62.1301
-114.619
-90.3612
-96.702
-86.2164
-90.7071
-105.73
56.1241
58.1753
55.2096
75.6667
72.4405
70.4976
-35.0551
-33.618
-26.5175
-115.515
-96.5001
-97.8671
-88.5549
-90.2636
-121.479
-54.0849
-80.4976
-77.1937
80.334
81.6722
78.5941
104.021
99.8259
97.44
-0.789937
-17.8644
-36.7863
14.8281
-0.514318
9.00613
-19.796
-10.9096
3.18871
268.764
316.681
424.674
188.005
277.568
246.207
202.995
276.844
179.118
157.52
192.361
161.787
255.25
300.704
199.856
432.056
341.452
278.227
-59.395
-130.471
-101.571
101.235
102.943
155.291
-50.7953
-16.8119
-28.0959
19.37
28.9539
-16.792
-179.158
-159.932
-160.191
-185.7
-188.936
-184.511
75.5346
80.6143
86.3519
39.9909
47.1814
43.2012
-1.73723
-9.02191
-21.7449
16.514
3.7527
5.19927
-6.13988
-1.26179
10.8179
-213.398
-192.198
-171.479
-210.893
-237.254
-219.49
-184.901
-168.155
-179.684
-67.3016
-89.5458
-104.306
-66.4236
-77.9746
-48.3428
-311.083
-322.059
-310.136
-275.33
-288.027
-300.152
-301.668
-300.012
-290.842
-295.675
-304.248
-302.779
-266.839
-263.859
-254.833
-265.176
-272.067
-269.274
-471.431
-468.601
-484.108
-407.162
-426.094
-433.63
-410.817
-417.565
-399.624
-429.99
-451.599
-456.354
-440.151
-446.219
-425.455
-491.82
-476.578
-473.769
-399.442
-391.33
-403.51
-330.622
-349.318
-361.57
-322.089
-336.29
-317.784
-374.184
-393.405
-402.455
-372.991
-383.657
-364.646
-422.352
-411.914
-403.961
-258.508
-262.925
-256.509
-244.631
-249.163
-253.637
-311.654
-312.044
-300.116
-298.085
-309.102
-310.334
-456.676
-460.361
-476.917
-416.923
-439.653
-431.977
-452.908
-446.76
-423.193
-387.549
-404.444
-393.833
-423.565
-414.345
-395.665
-464.102
-448.359
-452.699
-441.245
-465.689
-466.81
-460.34
-463.517
-439.854
-436.89
-462.298
-458.214
-466.642
-465.207
-439.756
-100.519
-115.081
-108.732
-64.5303
-64.0095
-58.3729
-97.0726
-91.4707
-92.9535
-79.5779
-80.7223
-91.2757
-159.355
-163.931
-180.533
-278.522
-272.531
-269.251
-288.214
-291.211
-284.655
-372.046
-377.512
-382.857
-352.256
-364.464
-354.115
-384.394
-374.615
-361.981
-312.217
-321.764
-310.665
-343.505
-332.753
-322.518
-364.992
-359.623
-364.953
30.6159
32.2659
28.3305
52.6334
50.1384
48.0057
-22.7852
-31.806
-32.9923
-20.6868
-21.7798
-16.8222
-53.2583
-47.5344
-47.4422
8.19828
6.4815
14.395
-11.3392
-2.23983
3.5884
-7.57868
-5.38926
-14.0456
-5.09259
-3.47686
-8.64706
24.0217
19.8125
18.6703
-75.134
-63.3507
-63.9431
-71.0189
-70.9693
-77.1113
-29.632
-36.9355
-35.6862
-83.3058
-90.2131
-90.2605
-100.785
-99.4474
-87.6009
137.619
148.83
141.228
163.003
151.69
142.147
109.854
111.522
107.833
110.864
121.776
142.487
91.3296
96.3869
93.2126
53.185
41.9762
47.2207
22.9573
33.4343
50.0937
78.7388
68.7515
75.8
52.1443
60.6859
69.4677
95.5536
102.878
108.81
80.6821
94.2327
87.3087
109.208
95.5408
83.1751
37.2896
32.0247
42.4326
8.86508
20.8584
31.4277
10.8839
15.3659
4.19446
201.194
215.538
263.567
148.288
166.725
162.625
151.056
160.948
148.786
130.899
139.91
133.666
145.56
149.84
132.712
247.5
189.862
189.551
428.884
467.51
585.907
321.396
384.947
373.919
329.544
414.336
301.192
313.488
357.231
323.761
407.2
473.146
362.478
601.584
518.465
456.447
-237.228
-242.946
-256.885
-217.22
-229.277
-223.289
-239.043
-234.051
-220.3
-387.453
-399.989
-409.918
-270.315
-267.349
-285.207
-241.666
-255.327
-257.73
-247.541
-251.485
-236.513
-248.284
-261.759
-261.29
-260.033
-260.911
-245.566
-291.675
-273.919
-272.637
-359.278
-353.833
-345.452
22.5923
33.4687
25.7602
49.1813
40.1002
28.6258
61.8119
51.375
60.5833
104.122
112.585
127.24
95.4724
103.652
97.0542
114.107
106.474
97.988
-13.7726
24.4054
26.2158
27.5259
26.334
-20.7956
121.589
75.338
61.7805
-349.786
-358.229
-349.196
-249.244
-226.752
-242.834
-196.555
-210.855
-232.77
-164.015
-188.424
-176.896
-273.136
-290.106
-306.449
-253.113
-272.569
-256.22
-308.601
-289.283
-270.007
-269.205
-271.332
-286.671
-245.486
-258.013
-255.529
-260.927
-259.365
-244.862
-234.989
-247.005
-242.883
-253.332
-250.022
-236.181
-278.064
-263.895
-266.886
-294.279
-292.018
-284.218
-307.868
-300.108
-301.844
-296.197
-298.209
-304.434
-326.669
-315.378
-316.103
-314.232
-314.997
-326.699
-299.652
-308.98
-307.885
-296.759
-291.965
-294.153
-287.883
-289.952
-294.735
-275.203
-281.088
-278.755
-457.153
-453.238
-461.316
-430.696
-442.422
-447.137
-467.6
-481.732
-484.413
-476.966
-479.647
-467.194
-224.973
-236.965
-242.254
-224.217
-230.529
-217.889
-253.904
-240.745
-233.929
-276.71
-280.994
-272.028
-295.008
-287.392
-283.263
-295.932
-291.92
-301.997
-312.827
-312.369
-301.034
-331.869
-318.98
-319.268
-316.998
-318.111
-330.238
-316.011
-302.698
-299.435
-309.185
-306.09
-319.953
-289.496
-300.334
-302.933
-457.185
-472.724
-469.234
-479.307
-476.378
-462.169
-427.301
-422.629
-412.745
-434.778
-427.661
-432.801
-474.838
-489.796
-491.562
-486.377
-488.564
-475.235
-469.272
-485.327
-482.732
-489.676
-488.03
-473.385
-252.561
-245.795
-242.87
-250.658
-247.521
-254.662
-234.912
-240.854
-243.633
-313.918
-318.257
-312.092
-273.544
-285.839
-291.5
-270.278
-277.108
-265.795
-299.467
-288.207
-280.911
-226.445
-231.957
-221.084
-254.43
-243.094
-237.417
-254.593
-249.343
-261.323
38.934
32.2647
28.5472
38.9653
35.8755
42.108
21.8498
29.0737
35.59
64.0096