/*--------------------------------*- C++ -*----------------------------------*\
| =========                 |                                                 |
| \\      /  F ield         | OpenFOAM: The Open Source CFD Toolbox           |
|  \\    /   O peration     | Version:  5.x                                   |
|   \\  /    A nd           | Web:      www.OpenFOAM.org                      |
|    \\/     M anipulation  |                                                 |
\*---------------------------------------------------------------------------*/
FoamFile
{
    version     2.0;
    format      ascii;
    class       volScalarField;
    location    "300";
    object      p_rgh;
}
// * * * * * * * * * * * * * * * * * * * * * * * * * * * * * * * * * * * * * //

dimensions      [0 2 -2 0 0 0 0];

internalField   nonuniform List<scalar> 
6584
(
10.1803
10.9237
11.8173
13.1551
14.8701
17.0849
19.7763
22.9773
26.3513
29.6785
31.9587
32.1157
29.3357
23.7608
16.4705
8.8032
1.81694
-4.17099
-8.98123
-12.736
-15.5526
-17.6649
-19.0465
-20.1572
9.91852
10.7307
11.5696
12.8924
14.5648
16.7758
19.4969
22.8585
26.4868
30.2629
33.0084
33.5005
30.6511
24.6052
16.7501
8.48991
1.22017
-4.87576
-9.64982
-13.3241
-16.0329
-18.0845
-19.3629
-20.5556
9.35656
10.1793
10.9129
12.1569
13.7185
15.889
18.681
22.4867
26.6803
30.6951
35.8712
38.4156
36.4458
29.5845
19.9383
7.34064
-0.604043
-6.92029
-11.5536
-14.9551
-17.3656
-19.1953
-20.2561
-21.4093
8.62079
9.37788
9.95748
11.0363
12.3888
14.39
17.1938
21.4242
27.1728
32.8867
41.2067
47.172
45.8982
35.766
21.8694
9.10976
-3.77711
-10.3134
-14.5696
-17.4366
-19.3517
-20.7882
-21.5331
-22.5038
7.77108
8.38807
8.75824
9.55497
10.5503
12.1192
14.6105
18.8307
24.1598
34.2498
47.4244
60.6079
61.3715
44.0204
21.8332
4.82623
-6.0822
-15.6237
-18.9525
-20.7511
-21.906
-22.7414
-23.0717
-23.7266
6.85994
7.26505
7.36973
7.74592
8.18854
8.83332
10.4669
12.9897
19.7644
30.6523
49.5065
82.3974
96.7563
61.6397
16.7318
-5.22223
-15.5852
-22.6709
-24.4769
-24.7525
-24.89
-24.9245
-24.754
-24.9701
5.96209
6.10007
5.90709
5.75842
5.512
4.92878
5.14363
6.32803
8.98828
16.8158
40.2869
100.284
187.816
67.471
2.16311
-25.1078
-29.5968
-31.8006
-30.9289
-29.1848
-28.0592
-27.1346
-26.4113
-26.0952
5.16021
5.0093
4.5302
3.83077
2.84055
0.911562
-0.933463
-1.97035
-5.98339
-10.0062
-5.80645
25.4319
-13.503
-53.861
-56.5166
-48.1272
-41.9403
-37.5718
-33.5409
-31.0373
-29.1038
-27.8396
-26.9521
4.5282
4.11209
3.41321
2.25265
0.63109
-2.40651
-6.23027
-10.0395
-21.0095
-40.5473
-70.9449
-151.096
-236.989
-133.022
-90.8331
-66.6177
-50.8988
-43.0811
-37.0574
-33.3402
-30.5295
-28.8269
-27.4042
4.1162
3.5054
2.70496
1.29293
-0.643477
-4.13002
-8.98548
-14.6353
-28.7686
-55.2186
-100.911
-208.002
-342.923
-181.391
-110.955
-77.9767
-56.0174
-46.0232
-38.9453
-34.5036
-31.1418
-29.1928
-27.352
3.93739
3.23402
2.47278
1.07737
-0.760969
-3.88099
-8.40265
-14.1144
-26.0061
-46.9497
-82.3863
-153.006
-301.005
-173.459
-107.947
-77.8818
-55.6925
-45.6114
-38.7633
-34.2639
-30.7912
-28.8373
-26.7557
3.96372
3.27491
2.67356
1.52959
0.135633
-2.00954
-5.11075
-9.30592
-15.4609
-23.9872
-36.2334
-48.5606
-178.622
-124.253
-86.2566
-67.4663
-50.3286
-42.0986
-36.591
-32.6675
-29.501
-27.7721
-25.6464
4.13498
3.54689
3.17364
2.41423
1.63258
0.659435
-0.643547
-2.64226
-2.98592
-0.152295
7.322
35.9815
-52.2976
-65.1784
-57.7587
-51.7664
-41.9189
-36.5896
-32.9564
-30.0271
-27.4677
-26.1132
-24.1182
4.37738
3.94102
3.80426
3.44825
3.2574
3.30965
3.50685
5.56366
6.44774
15.7694
29.689
69.09
149.182
21.642
-21.2341
-33.1223
-36.1308
-32.8075
-30.4073
-28.5954
-26.7912
-24.951
-24.0421
-22.3004
4.622
4.35271
4.41457
4.3963
4.64715
5.35891
6.45906
9.08052
11.8198
20.7007
33.1775
54.3831
61.3631
29.0311
-2.65379
-17.0608
-22.7312
-24.5036
-24.5438
-24.1569
-23.379
-22.2208
-21.752
-20.3259
4.81653
4.70349
4.90453
5.12649
5.64137
6.6863
8.12299
11.0365
13.755
20.1972
29.001
36.1011
31.0248
18.8108
4.00526
-8.25795
-15.743
-18.2456
-19.5905
-20.0863
-20.0995
-19.5161
-19.4176
-18.327
4.9292
4.94752
5.22681
5.59713
6.22072
7.38209
8.76286
11.5815
14.3548
17.5117
21.6195
22.5263
24.6807
16.007
5.0476
-3.72894
-10.2856
-13.5465
-15.531
-16.5687
-17.1205
-16.9639
-17.1518
-16.3777
4.94618
5.06647
5.37211
5.81804
6.43195
7.56011
8.67455
10.9399
12.9374
16.0651
16.3654
19.5516
11.9431
11.1609
3.18203
-2.3827
-6.52501
-10.1764
-12.2965
-13.6436
-14.5117
-14.6573
-15.0396
-14.5413
4.86718
5.06191
5.35547
5.82812
6.35838
7.38631
8.15559
9.99574
10.6265
13.8777
8.70397
17.9894
14.5105
2.11557
4.20619
-1.95632
-4.7151
-7.96609
-9.84498
-11.2947
-12.2906
-12.6347
-13.1281
-12.8599
4.70078
4.94779
5.20499
5.6793
6.09097
7.02185
7.4402
9.10187
8.78138
12.1492
8.29422
13.6773
11.7
3.2762
4.2151
-1.69288
-3.37125
-6.39042
-7.96038
-9.41999
-10.4222
-10.8918
-11.4325
-11.35
4.46021
4.7435
4.95112
5.41772
5.69722
6.55432
6.65364
8.20805
7.34967
10.2404
7.11793
9.64278
8.28153
3.11883
3.60207
-1.42951
-2.38793
-5.22831
-6.48154
-7.91746
-8.85556
-9.405
-9.94745
-10.0123
4.16034
4.46934
4.6215
5.07933
5.22606
6.02802
5.85984
7.2951
6.13713
8.47918
5.80864
7.31875
6.22976
2.47264
2.90857
-1.26609
-1.75556
-4.37504
-5.32252
-6.71287
-7.54501
-8.14457
-8.65786
-8.83837
3.81625
4.14455
4.24068
4.69262
4.71606
5.47697
5.10354
6.4219
5.13057
7.05248
4.7958
5.74684
4.87442
1.99055
2.35018
-1.15387
-1.34344
-3.73062
-4.41075
-5.74282
-6.44867
-7.07886
-7.54342
-7.81416
3.44223
3.78645
3.82954
4.27985
4.19563
4.92611
4.40598
5.61645
4.2932
5.88133
3.96524
4.53947
3.83333
1.59085
1.88919
-1.06694
-1.06225
-3.22611
-3.68514
-4.95322
-5.52863
-6.17678
-6.58178
-6.92258
3.0512
3.40976
3.4049
3.85754
3.68359
4.39054
3.77218
4.88306
3.58549
4.90351
3.2732
3.61464
3.02381
1.2448
1.50289
-0.997878
-0.86626
-2.82034
-3.10008
-4.30206
-4.75181
-5.40914
-5.75006
-6.14495
2.6546
3.02669
2.98
3.43778
3.19206
3.87986
3.20161
4.22188
2.98364
4.08487
2.68668
2.89024
2.3922
0.965001
1.18806
-0.938557
-0.725355
-2.4859
-2.62213
-3.75678
-4.09037
-4.75021
-5.02684
-5.46294
2.26227
2.64721
2.56497
3.0294
2.72861
3.39958
2.69099
3.6299
2.46968
3.40443
2.19335
2.3227
1.91754
0.742025
0.935157
-0.884418
-0.619314
-2.20241
-2.22463
-3.29268
-3.52138
-4.17849
-4.39287
-4.85884
1.88262
2.27929
2.16755
2.63858
2.29732
2.95241
2.2358
3.10275
2.02672
2.83496
1.78409
1.87627
1.53824
0.541537
0.733208
-0.82946
-0.52992
-1.95199
-1.88447
-2.88694
-3.02338
-3.67266
-3.82898
-4.31521
1.52286
1.9291
1.7933
2.26933
1.90028
2.53911
1.83089
2.63562
1.64267
2.35122
1.43741
1.50876
1.22841
0.381583
0.575782
-0.77339
-0.449812
-1.72604
-1.58681
-2.52445
-2.58016
-3.21661
-3.31925
-3.81704
1.18912
1.60156
1.44643
1.92432
1.5378
2.15874
1.4701
2.22021
1.30971
1.93855
1.14236
1.20387
0.974021
0.255533
0.453979
-0.714256
-0.373396
-1.51675
-1.31998
-2.1925
-2.17778
-2.79567
-2.84895
-3.34958
0.886732
1.30001
1.12964
1.60424
1.20936
1.81064
1.14782
1.84656
1.01763
1.58218
0.888814
0.948278
0.763374
0.156343
0.360604
-0.65016
-0.297013
-1.31721
-1.0743
-1.88051
-1.80473
-2.39715
-2.40543
-2.89916
0.620751
1.0268
0.845337
1.30842
0.914356
1.49139
0.862005
1.51005
0.760843
1.27021
0.668477
0.730308
0.584871
0.0779615
0.288967
-0.580273
-0.219244
-1.12224
-0.84376
-1.57987
-1.45234
-2.01058
-1.97834
-2.45378
0.395578
0.781583
0.594593
1.03425
0.650567
1.19149
0.607923
1.2007
0.534126
0.991335
0.475328
0.540761
0.431039
0.0185632
0.233848
-0.501656
-0.140619
-0.925665
-0.624081
-1.28123
-1.11303
-1.62395
-1.55672
-1.99849
0.217495
0.566625
0.381799
0.781976
0.421951
0.910873
0.388631
0.915251
0.33891
0.738751
0.302826
0.365552
0.287969
-0.0263774
0.188569
-0.413489
-0.0649331
-0.72542
-0.417879
-0.983196
-0.789492
-1.23696
-1.14317
-1.53299
0.0860649
0.357902
0.196219
0.513577
0.216653
0.605146
0.191914
0.607279
0.165165
0.479682
0.153405
0.21128
0.164686
-0.046649
0.140674
-0.29728
-0.000572352
-0.492237
-0.220175
-0.647324
-0.461283
-0.802262
-0.700607
-0.996534
0.0252619
0.22081
0.0933151
0.327364
0.103741
0.39131
0.0899992
0.395686
0.0763402
0.2958
0.00957278
-0.0163687
-0.0413815
-0.063602
0.104811
-0.186499
0.045694
-0.296998
-0.079993
-0.381565
-0.225314
-0.467088
-0.375908
-0.582907
-135.721
-231.978
-3.67588
-207.154
-368.093
-258.314
-164.616
-338.143
-374.093
-61.3886
-204.349
-323.965
27.7696
-62.6084
-186.186
69.3323
166.782
161.942
29.1424
-46.9965
47.4808
187.507
25.8965
89.0078
-56.4866
-119.434
18.8294
-171.52
100.82
-213.711
-128.75
-53.3272
-98.2097
-187.424
-133.511
-185.825
-267.263
-224.167
-461.207
-371.968
-337.596
-200.594
-151.672
-90.9124
-152.281
-188.196
-199.558
-276.555
-292.468
-507.617
-517.433
-312.815
-204.569
-208.219
-48.5838
-59.8859
-141.875
-114.851
-136.034
-202.383
-331.148
-428.458
-195.262
-151.504
-195.152
-134.997
-223.018
-66.499
-79.9117
-133.774
44.7951
-28.0457
60.6741
60.9964
151.865
57.334
43.3877
32.4528
-215.751
-123.033
-76.0128
-135.655
-232.055
89.3362
-116.787
-364.408
-195.995
-141.108
-186.861
-354.691
-291.395
-271.473
-193.585
-281.326
-301.91
-240.35
-280.573
-511.851
-465.756
-335.494
-450.605
-506.539
-361.082
-446.489
-320.006
-211.578
-270.102
-192.859
-280.094
-216.841
-301.174
-284.587
-433.13
-503.215
-369.656
-500.734
-422.205
-509.888
-504.531
-375.258
-129.676
-61.4464
-211.109
-139.847
-229.344
-324.64
-257.798
-321.274
-228.663
-416.904
-327.734
-275.328
14.1201
57.1073
-52.2426
6.95411
-39.5907
-123.036
-216.651
-134.142
-131.159
100.325
112.804
61.6697
97.8858
90.6262
51.3784
-52.0161
-103.219
78.5572
-56.4663
245.015
-2.04926
22.1115
-48.196
-12.2225
3.81997
-52.8632
30.3829
-20.0295
18.8484
-23.3573
-63.296
183.474
-75.1252
82.8219
-159.275
-106.592
-61.4932
-126.393
-101.435
-99.1349
-58.7137
52.1666
73.6256
-53.0912
-15.8566
-27.2312
-76.2393
-113.489
-122.358
-42.7973
76.2479
101.43
-32.05
35.8517
-5.30822
310.755
196.992
118.918
132.765
204.593
313.772
-93.9988
-61.1313
-103.771
221.086
-65.6071
-21.2481
-427.161
-418.401
-523.401
-522.334
-375.078
-382.477
-170.494
-138.621
-176.05
82.7357
37.0981
-21.2989
27.0846
5.93696
-208.709
-187.054
-253.88
-213.891
-257.193
-200.095
-202.318
-85.0362
-37.9594
-103.305
-197.657
-296.831
-287.497
-294.355
-294.273
-260.285
-261.911
-491.319
-490.72
-485.816
-412.708
-390.182
-432.754
-418.539
-487.907
-409.137
-341.477
-302.32
-381.923
-352.629
-415.302
-254.345
-248.998
-301.661
-299.142
-472.057
-474.94
-472.449
-408.998
-427.1
-378.196
-401.738
-468.52
-517.413
-440.526
-435.866
-431.892
-439.862
-517.764
-104.166
-100.434
-104.377
-145.307
-59.225
-98.9817
-90.5889
-180.92
-150.05
-170.569
-274.176
-280.996
-375.84
-341.152
-369.665
-300.542
-331.106
-369.693
26.151
49.9311
-25.1821
-16.528
-53.6478
19.8475
-11.7701
-16.7671
-10.7429
22.1321
-74.8802
-77.163
-28.101
-132.895
-82.8985
-87.424
-80.5222
132.282
147.134
188.928
104.646
127.014
195.863
120.726
87.0017
452.711
26.8514
56.2176
29.6294
55.791
85.6186
59.6031
99.5896
78.8846
89.5904
275.071
53.7508
10.7244
-1.27218
69.0974
77.6373
223.949
144.365
142.908
82.3176
92.2558
126.918
125.7
194.007
470.177
322.577
214.531
283.09
356.874
482.416
-252.56
-210.888
-228.447
-450.898
-398.793
-393.897
-289.449
-243.715
-235.869
-247.708
-247.661
-291.621
-516.937
-519.098
-350.252
-409.707
103.754
91.978
16.543
33.1065
71.9906
108.807
89.2858
102.367
-7.12143
-61.7065
170.811
-336.971
-367.11
-394.425
-265.486
-217.455
-151.974
-287.514
-235.253
-287.311
-285.219
-242.815
-249.331
-230.536
-242.535
-282.417
-288.221
-310.996
-302.521
-328.13
-327.143
-298.535
-299.89
-293.867
-272.535
-505.799
-476.545
-466.345
-435.924
-427.54
-470.347
-461.905
-500.077
-229.623
-215.004
-246.806
-270.453
-290.164
-308.727
-303.439
-332.761
-329.408
-312.929
-324.54
-291.749
-450.984
-492.679
-489.981
-454.008
-462.418
-410.701
-415.305
-440.652
-513.933
-476.76
-470.475
-467.093
-472.382
-512.693
-248.257
-257.699
-237.025
-333.591
-319.744
-306.905
-278.609
-258.136
-290
-215.37
-247.147
-265.871
33.9548
45.0753
23.6512
69.5923
51.6707
39.8698
143.932
150.985
78.9555
94.998
75.5879
133.481
142.151
121.075
108.645
55.8369
342.528
105.091
38.5366
7.84733
11.652
41.0693
3.23485
0.48123
56.3994
46.7007
260.086
-5.5785
17.7014
-82.4297
-73.7067
61.8954
66.8052
61.3738
66.7453
60.1929
77.576
69.1368
63.8778
-35.94
-30.0623
-47.5481
-54.5349
86.3857
90.628
80.4594
96.528
111.114
-164.604
-139.862
-61.9282
-219.728
-161.983
-187.825
-447.174
-400.091
-519.157
-523.129
-355.961
-403.553
-163.886
-159.845
-179.532
-135.171
-153.86
-155.47
-212.564
-233.129
-185.912
-204.733
64.1422
80.8861
96.8647
46.6244
73.4889
58.4365
79.0083
49.4389
-232.912
-204.201
-225.969
-166.691
-195.797
-224.737
-251.592
-262.673
-231.943
-247.584
-154.961
-118.498
-156.738
-170.514
-185.213
-339.129
-359.291
-329.407
-340.135
-290.969
-237.831
-331.93
-305.152
-250.035
-286.855
-328.753
-320.41
-314.484
-288.665
-318.02
-324.284
-313.115
-314.018
-333.271
-331.42
-323.56
-330.109
-298.836
-325.339
-320.842
-284.653
-295.142
-266.377
-280.138
-304.754
-310.402
-297.513
-304.171
-271.453
-292.479
-285.847
-505.332
-476.729
-449.858
-437.703
-471.413
-498.059
-461.2
-451.047
-270.305
-284.913
-265.431
-294.562
-279.611
-315.253
-299.773
-255.429
-234.825
-274.07
-260.271
-333.227
-332.389
-301.949
-336.935
-340.294
-333.517
-338.363
-330.237
-317.038
-337.186
-333.137
-295.367
-327
-331.698
-456.555
-485.132
-438.455
-448.604
-484.466
-449.143
-421.23
-432.89
-479.024
-475.941
-516.251
-514.787
-475.921
-476.947
-121.474
-119.603
-117.088
-101.331
-139.524
-122.67
-128.349
-75.5187
-73.694
-61.5246
-96.0226
-79.0691
-81.4869
-206.057
-189.022
-228.19
-211.778
-165.691
-161.268
-144.97
-183.581
-166.683
-173.775
-284.394
-265.51
-255.204
-266.865
-284.091
-238.932
-258.643
-290.401
-300.321
-312.415
-288.997
37.5615
42.9693
33.5519
58.061
46.8106
41.1309
59.6019
4.56692
28.6912
9.54893
-112.272
-110.308
-128.8
-82.2335
-104.065
-104.864
-104.425
-111.673
154.424
169.546
116.68
129.659
152.886
126.825
11.3217
-30.4299
12.9284
5.74728
44.8714
70.0089
632.708
467.525
389.033
488.399
537.759
652.907
77.476
166.63
111.186
-182.47
-206.723
-246.658
-457.073
-459.621
-464.535
-513.725
-517.365
-179.458
-157.215
-174.756
-430.17
-424.234
-422.831
-230.589
-209.945
-204.141
-184.391
-143.166
-175.67
-256.684
-242.985
-222.414
-226.142
-272.932
-238.498
-246.884
-272.216
-260.516
-507.952
-470.78
-475.353
-470.106
-490.609
-488.036
-503.665
-419.448
-410.909
-434.99
-238.288
-207.264
-188.006
-229.046
-246.2
-230.947
-438.488
-436.523
-432.763
-500.301
-497.465
-479.991
-483.345
-511.372
-494.886
-493.06
-486.993
-490.368
-508.594
-199.951
-208.522
-223.568
-399.518
-386.705
-399.046
-180.693
-172.423
-204.506
150.328
150.972
118.877
101.69
83.1711
150.504
150.725
81.7977
106.707
73.5725
-44.6994
-23.8584
-93.9877
-58.0227
-63.4795
-64.48
-47.4564
-46.8032
-52.4119
-14.2464
-19.025
-20.8106
-75.2788
-69.1439
-69.8024
108.712
94.789
89.4433
193.245
307.478
255.576
-116.67
-134.356
-114.068
-82.7489
-235.501
-216.314
-36.4771
40.9655
58.7853
-439.207
-441.585
-434.337
-411.248
-425.827
-432.312
-527.076
-523.003
-382.096
-375.135
-368.091
-390.324
-396.205
-389.223
-176.257
-181.638
-137.546
-143.773
-144.198
-186.707
-191.868
-197.638
-202.778
-184.533
-217.324
-245.711
-246.524
-252.579
-190.451
-200.575
-222.827
-274.582
-280.002
-257.185
-260.108
-257.224
-61.45
-107.36
-139.472
-126.34
-118.519
-130.353
-181.945
-268.277
-257.415
-283.613
-275.535
-249.018
-283.969
-284.712
-494.602
-490.157
-379.118
-366.45
-389.853
-431.408
-401.588
-390.913
-236.516
-251.111
-265.187
-466.391
-476.981
-500.452
-500.376
-517.519
-518.881
-500.504
-500.366
-109.22
-109.957
-108.979
-103.258
-144.335
-139.074
-140.84
-186.848
-203.119
-191.26
-199.886
-194.7
-231.292
-226.772
-154.993
-154.956
-149.574
-189.938
-185.223
-363.675
-375.038
-393.56
-352.346
-341.499
-352.529
-31.115
-30.3849
-21.046
-51.8299
-40.8201
-36.6633
-55.2693
-59.6573
-75.6838
-34.0465
-47.0403
-48.1838
-125.62
-124.896
-131.034
-89.6662
-83.1658
-129.639
171.769
174.242
183.023
126.582
119.384
125.757
113.666
138.71
129.318
121.544
183.534
156.804
102.29
116.872
107.235
194.728
379.675
103.397
71.6209
74.4829
173.123
177.414
198.924
84.782
84.3487
79.6603
92.5835
88.3615
88.2497
194.852
165.64
158.315
337.275
483.538
432.851
-455.496
-456.604
-453.85
-401.286
-403.14
-396.824
-415.394
-404.375
-517.086
-516.971
-356.328
-360.436
-340.6
-348.615
-416.116
-416.497
-409.998
97.8743
102.006
107.908
91.8329
97.0808
93.0617
-375.682
-373.965
-365.038
-390.27
-382.332
-385.37
-505.463
-473.414
-476.446
-476.852
-501.442
-485.906
-483.877
-445.977
-440.22
-445.25
-499.465
-472.437
-476.56
-494.713
-497.611
-496.063
-512.249
-511.337
-493.141
-495.044
-327.729
-328.319
-332.993
-317.062
-322.523
-323.41
152.39
154.528
143.632
146.945
136.935
142.889
139.347
126.424
119.443
116.897
122.591
126.091
112.187
115.952
112.951
40.4769
18.0978
7.08451
74.259
287.133
245.079
317.248
128.079
160.826
210.603
20.5272
19.0787
10.5905
35.7808
27.8107
29.5409
-12.4673
-9.42938
-18.616
2.44672
-4.81877
-4.4283
76.6529
93.792
35.1079
-64.4072
-96.1489
-21.6296
-28.4479
-88.9586
-69.9119
-68.9486
-76.127
63.0792
64.7284
56.6296
59.2012
62.3332
-35.4869
-41.233
-41.79
-18.0112
-13.0143
-24.3435
-24.91
-22.0008
-29.647
-44.2273
-39.7717
-41.5148
-38.5526
-47.0848
-25.4917
-32.022
-62.3886
-61.8929
-54.0259
101.066
101.97
97.1484
112.812
107.154
105.92
-172.382
-143.306
-139.192
-207.969
-216.231
-195.956
-443.17
-441.396
-447.591
-453.202
-423.799
-421.516
-434.726
-427.835
-523.755
-524.973
-374.197
-380.172
-364.542
-369.064
-361.741
-369.049
-363.61
-404.915
-400.212
-397.232
-389.525
-160.682
-169.957
-149.647
-149.955
-155.996
-220.322
-221.513
-213.177
-233.778
-229.102
-227.267
-192.172
-192.762
-187.008
-205.609
-196.848
-197.801
-199.088
55.1865
51.0466
42.7509
68.8887
58.94
-223.322
-233.023
-240.447
-238.971
-228.581
-212.323
-222.151
-268.438
-270.548
-277.291
-273.354
-258.732
-257.197
-265.469
-157.299
-141.28
-152.577
-114.865
-193.001
-182.124
-173.431
-349.199
-332.05
-321.103
-354.839
-344.745
-358.639
-362.57
-350.366
-272.639
-274.977
-293.499
-258.486
-273.693
-256.282
-320.15
-306.139
-312.559
-316.737
-321.864
-324.99
-314.609
-318.046
-318.127
-316.556
-315.611
-332.096
-330.754
-324.663
-327.048
-290.13
-295.656
-289.742
-297.487
-296.826
-293.153
-270.101
-283.16
-280.687
-289.879
-286.319
-274.488
-286.661
-288.746
-306.042
-308.135
-307.127
-313.929
-310.71
-308.035
-300.079
-303.403
-300.108
-308.183
-308.381
-302.978
-498.978
-484.069
-290.203
-292.218
-294.811
-280.642
-287.414
-285.315
-310.525
-297.88
-302.106
-304.979
-249.234
-251.904
-258.792
-237.985
-244.437
-242.088
-269.128
-270.099
-274.679
-263.044
-266.207
-264.572
-337.433
-339.115
-336.363
-339.594
-324.681
-320.255
-334.229
-332.821
-460.803
-480.247
-517.732
-500.276
-499.092
-497.248
-499.202
-517.38
-114.415
-119.842
-114.684
-115.415
-135.408
-133.166
-126.282
-212.806
-205.809
-200.235
-205.399
-211.603
-222.73
-227.623
-232.039
-217.51
-222.489
-217.155
-223.304
-219.531
-166.535
-160.648
-160.135
-180.247
-171.99
-278.614
-274.661
-281.159
-261.094
-268.044
-272.597
-274.66
-279.66
-243.241
-245.18
-238.611
-251.364
-303.999
-302.453
-310.267
-287.264
-294.472
-296.683
39.609
38.506
41.9998
31.2991
35.1059
36.769
56.6894
52.2085
54.2198
45.6428
49.3136
50.9786
54.6205
2.23456
7.32059
-8.03177
-2.72093
23.8374
22.5043
26.7108
12.69
19.9524
17.574
-111.579
-118.706
-119.575
-97.0223
-119.437
158.098
163.154
121.616
127.825
119.261
135.365
130.853
125.452
134.603
140.251
143.231
132.576
50.1596
68.631
54.4329
76.1121
87.1327
63.4224
85.9816
67.914
54.5569
57.8827
33.717
32.8685
25.0319
36.705
39.8235
45.5032
83.5181
73.0819
103.648
169.436
97.8928
169.483
94.0267
73.6769
69.4723
20.6933
29.8377
9.64639
-5.30561
3.98091
4.97159
5.46488
31.7815
9.57052
37.3678
82.671
97.5522
162.46
142.504
271.301
195.342
156.13
67.2731
34.286
45.3262
-35.8493
-35.9794
-18.0117
-26.1367
-47.7342
-6.94864
-22.8152
-26.3376
-4.35175
0.774759
4.06334
33.9995
-100.742
-92.536
-39.7871
-114.471
-83.2358
-58.5424
-50.7191
-82.51
-59.3631
-83.0722
-101.988
-87.3877
-164.657
-184.814
-170.397
-293.236
-228.077
-182.429
-174.801
-124.317
-106.347
-53.7293
-77.8203
-84.854
-100.574
-120.866
-122.191
-207.218
-229.853
-230.705
-343.801
-273.342
-266.047
-180.824
-136.331
-134.655
-36.416
-43.8242
-71.0004
-72.1896
-82.9391
-96.0406
-140.82
-151.953
-166.112
-259.453
-219.41
-245.97
-138.884
-116.448
-129.723
-11.4337
-4.82788
-33.6208
-35.9675
-35.1901
-49.211
-128.453
-120.115
-158.62
-79.361
-79.3377
-98.8353
8.88373
20.757
3.21374
-13.9274
-34.6252
-55.5645
-29.779
-42.9498
-60.1462
19.1911
26.0381
22.664
34.2962
52.4618
58.7279
66.811
83.3867
98.6797
112.131
117.248
118.741
30.6866
2.6464
-14.209
-9.17958
-18.0475
-28.924
20.9255
26.6162
27.0649
31.4767
37.2266
48.0924
39.7936
40.1452
65.933
37.9485
30.0495
39.5639
23.7494
10.9269
4.72954
2.26853
-6.07424
-10.9495
25.1157
29.0069
32.0363
24.1813
33.2745
33.5716
29.457
18.2805
27.4226
18.0156
11.0254
12.2189
-153.565
-133.892
-117.949
-202.058
-226.232
-273.484
12.2554
-25.1715
-36.5864
-229.573
-226.525
-204.261
-359.565
-399.803
-414.53
-287.175
-325.048
-281.518
-179.687
-192.309
-175.169
-350.729
-389.31
-366.5
-417.42
-423.153
-377.428
-63.2184
-77.3636
-74.5652
-221.769
-240.83
-212.132
-357.634
-331.019
-308.583
-79.0777
-76.3787
-58.7765
-193.969
-173.148
-167.521
99.5791
91.9328
59.5099
185.787
171.259
157.107
154.662
153.048
183.221
-41.7247
-24.9233
-31.9515
103.687
163.396
90.866
743.003
635.664
643.143
158.074
191.171
268.756
750.75
780.124
48.3532
71.6571
46.5858
139.049
163.309
85.6467
-69.3843
-48.6118
-40.0458
-65.467
-56.2229
-82.7436
1.14854
-27.3347
-44.9566
-138.372
-150.496
-208.179
124.315
79.4038
63.1489
-167.619
-110.712
-130.601
-103.717
-110.307
-142.02
-47.8798
-78.1052
-78.3135
-119.51
-112.73
-92.1252
-173.849
-136.167
-144.074
-105.322
-123.232
-166.687
-207.108
-196.953
-176.035
-262.756
-249.117
-253.889
-209.702
-217.866
-230.981
-381.604
-390.817
-379.509
-264.41
-236.582
-307.549
-188.203
-216.31
-231.089
-171.067
-196.166
-171.909
-107.206
-115.684
-97.0452
-176.286
-138.024
-126.985
-146.963
-144.883
-182.073
-221.209
-226.68
-204.24
-281.938
-264.502
-259.889
-275.683
-275.831
-293.027
-256.011
-268.33
-338.993
-210.061
-240.637
-232.807
-240.067
-243.256
-211.539
-53.5719
-68.5586
-60.7081
-95.931
-77.8848
-59.2988
-112.631
-95.9497
-108.056
-122.364
-137.291
-127.974
-164.997
-148.406
-124.656
-194.987
-186.348
-194.003
-337.962
-345.629
-337.392
-172.036
-206.702
-244.023
-168.002
-186.049
-165.661
-220.456
-204.604
-182.865
-147.017
-153.124
-134.513
-226.006
-219.667
-216.978
-79.4068
-101.496
-112.528
-97.4139
-101.416
-80.6397
-144.176
-122.249
-115.543
35.9819
44.3089
53.6428
-24.8887
-12.6478
-16.5303
64.2534
78.1377
64.681
90.9272
82.9509
74.5608
135.407
120.228
114.478
69.3838
74.3184
88.7309
43.7812
64.6997
52.1204
74.0988
67.2819
41.7952
-206.375
-191.171
-200.955
-90.3851
-132.842
-171.555
-98.1633
-111.278
-85.5113
-155.524
-185.316
-158.201
57.7577
63.3448
102.766
-132.819
-108.56
-94.0201
-355.945
-365.318
-373.532
-205.241
-222.438
-212.993
-151.332
-188.335
-173.478
-215.797
-201.584
-174.993
-320.694
-305.7
-324.902
-289.795
-273.979
-275.183
-257.989
-261.855
-275.493
-199.905
-221.802
-215.304
-284.586
-290.889
-288.41
-311.345
-310.418
-300.025
-286.368
-283.934
-277.091
-372.471
-394.316
-348.684
-455.556
-448.874
-442.577
-383.235
-352.815
-337.768
-440.164
-433.869
-442.084
-302.034
-335.586
-364.689
-220.654
-211.967
-203.675
-254.387
-248.471
-262.806
-184.781
-203.71
-213.426
-277.875
-286.665
-290.636
-220.338
-225.434
-221.208
-302.987
-312.883
-311.928
-294.639
-297.845
-286.339
-412.404
-396.47
-361.365
-416.665
-419.23
-427.026
-377.849
-422.6
-416.805
-119.6
-121.181
-137.448
-62.2749
-71.4828
-70.7171
-206.282
-209.71
-215.006
-142.91
-159.209
-150.039
-235.293
-238.338
-232.223
-329.833
-323.743
-318.885
-282.1
-251.533
-239.933
-304.227
-295.568
-307.044
-224.413
-236.178
-241
-411.589
-406.848
-410.716
-318.684
-330.252
-346.41
-292.288
-321.288
-292.384
21.0633
24.5743
17.3653
61.5402
55.7092
51.3862
-42.9713
-42.2165
-52.3056
9.91949
2.10612
-0.616743
-51.3173
-49.8252
-37.2739
-128.315
-112.292
-111.213
-204.515
-201.055
-212.754
-130.283
-161.641
-169.821
-149.196
-152.96
-133.318
109.81
136.615
123.786
132.863
136.999
109.9
68.1097
72.9328
67.0511
76.8679
112.068
115.266
-56.8845
-26.3006
-25.9426
-31.2752
-26.3864
-76.0753
47.3952
10.7262
-3.9536
279.189
223.047
200.473
-4.91026
-6.99859
7.66116
-40.9213
-23.323
-14.9344
-9.24655
-21.8551
-23.8363
-19.0955
-19.0193
-5.31027
-49.4317
-33.7485
-27.1177
23.091
25.5043
33.3589
-18.8885
-12.2143
-12.9796
-3.40739
-17.1879
-3.78203
139.377
152.264
204.622
-112.302
-81.9241
-47.4789
-22.4803
-32.7229
30.312
-129.595
-57.2552
-59.622
-71.3419
-67.0316
-109.7
-88.4735
-83.4674
-63.4616
-116.009
-91.7502
-97.7523
-88.0014
-92.2658
-107.289
55.614
57.7216
54.7558
75.2181
71.9927
69.9907
-34.5472
-33.1659
-26.0683
-113.964
-94.9501
-96.0924
-87.5102
-88.8824
-120.096
-52.7625
-79.1171
-76.1497
79.8255
81.2206
78.144
103.57
99.3753
96.9322
0.248725
-16.5455
-35.4655
16.1429
0.802596
10.0439
-18.0303
-9.36861
4.72758
268.332
316.239
424.604
187.085
277.004
245.659
202.407
276.273
178.195
158.448
193.174
162.603
255.802
301.265
200.772
432.119
341.893
278.663
-58.6021
-129.677
-100.635
101.795
103.648
155.994
-50.1802
-16.1963
-27.5408
20.3045
29.7743
-15.971
-178.365
-159.139
-159.256
-184.735
-188.028
-183.603
76.0398
81.0627
86.7999
40.4382
47.6289
43.7064
-1.17281
-8.31699
-21.0395
17.2174
4.45687
5.76295
-5.21213
-0.445782
11.6331
-214.195
-192.994
-172.419
-211.832
-238.048
-220.287
-185.465
-168.778
-180.308
-67.9245
-90.169
-104.871
-67.3618
-78.7993
-49.1669
-310.175
-321.152
-309.171
-274.363
-287.119
-299.244
-302.573
-300.917
-291.807
-296.641
-305.155
-303.685
-267.749
-264.769
-255.802
-266.145
-272.979
-270.185
-470.357
-467.528
-483.097
-405.766
-424.813
-432.349
-409.535
-416.283
-398.228
-428.594
-450.316
-455.071
-438.869
-444.937
-424.06
-490.802
-475.501
-472.693
-398.361
-390.248
-402.485
-329.227
-348.036
-360.289
-320.808
-335.009
-316.389
-372.789
-392.124
-401.173
-371.71
-382.376
-363.251
-421.334
-410.836
-402.881
-259.421
-263.838
-257.479
-245.599
-250.074
-254.549
-312.563
-312.953
-301.084
-299.052
-310.009
-311.242
-455.602
-459.285
-475.9
-415.528
-438.372
-430.697
-451.625
-445.478
-421.798
-386.155
-403.164
-392.552
-422.286
-413.065
-394.272
-463.092
-447.288
-451.626
-439.849
-464.405
-465.526
-459.056
-462.234
-438.458
-435.494
-461.014
-456.931
-465.358
-463.923
-438.36
-101.344
-115.876
-109.67
-65.1016
-64.6359
-58.9987
-97.696
-92.0919
-93.5153
-80.5146
-81.5456
-92.0995
-160.293
-164.725
-181.325
-277.612
-271.62
-268.284
-287.249
-290.305
-283.747
-370.966
-376.434
-381.838
-350.863
-363.184
-352.836
-383.114
-373.335
-360.588
-310.825
-320.485
-309.387
-342.226
-331.474
-321.126
-363.967
-358.541
-363.872
30.1067
31.8145
27.8766
52.1811
49.689
47.4979
-23.6072
-32.628
-33.9275
-21.2527
-22.403
-17.4461
-53.8824
-48.1567
-48.0058
7.63413
5.77328
13.6865
-12.0481
-2.94809
3.0247
-8.51321
-6.21087
-14.8675
-5.59966
-3.92558
-9.10011
23.5666
19.3589
18.1606
-74.3144
-62.5316
-63.0118
-70.4563
-70.349
-76.4916
-29.0107
-36.3141
-35.1215
-82.6876
-89.5962
-89.704
-99.8519
-98.627
-86.7811
137.141
148.497
140.893
162.671
151.358
141.67
109.346
111.071
107.382
111.339
122.111
142.818
91.7774
96.8346
93.7172
51.0695
39.4067
44.655
20.3857
30.8636
48.0908
77.6402
67.4271
74.4762
50.8186
59.3608
68.3684
95.8734
103.196
108.899
81.4794
94.7873
87.8595
109.755
96.1109
83.9925
36.2444
30.6976
41.1062
7.53669
19.5307
30.3822
9.10385
13.8122
2.64007
201.045
215.407
263.495
147.843
166.402
162.307
150.739
160.63
148.352
131.343
140.226
133.961
145.882
150.175
133.165
247.508
189.972
189.682
428.682
467.268
585.869
320.937
384.613
373.592
329.218
414.023
300.726
313.983
357.666
324.198
407.525
473.446
362.932
601.619
518.702
456.645
-238.396
-244.114
-257.939
-218.614
-230.558
-224.57
-240.324
-235.332
-221.695
-386.489
-399.084
-409.014
-271.482
-268.516
-286.259
-243.06
-256.607
-259.011
-248.821
-252.765
-237.907
-249.678
-263.04
-262.571
-261.313
-262.192
-246.96
-292.729
-275.087
-273.804
-358.373
-352.932
-344.491
23.4067
34.2822
26.6854
49.7711
40.8021
29.3285
62.5126
52.0763
61.1727
103.296
111.987
126.697
94.8768
103.056
96.2293
113.967
106.105
97.6207
-14.596
23.5828
25.2794
26.9627
25.6259
-21.5045
120.883
74.6306
61.2171
-348.882
-357.323
-348.23
-248.077
-225.586
-241.781
-195.162
-209.576
-231.49
-162.736
-187.145
-175.503
-271.742
-288.825
-305.169
-251.833
-271.289
-254.826
-307.55
-288.117
-268.841
-270.372
-272.5
-287.724
-246.881
-259.294
-256.81
-262.208
-260.646
-246.257
-236.383
-248.286
-244.164
-254.613
-251.303
-237.576
-279.117
-265.062
-268.053
-295.187
-292.928
-285.186
-308.661
-300.96
-302.691
-297.056
-299.065
-305.235
-327.458
-316.227
-316.952
-315.079
-315.846
-327.487
-300.619
-309.888
-308.793
-297.564
-292.825
-295.013
-288.741
-290.811
-295.539
-276.173
-282.003
-279.669
-456.073
-452.155
-460.288
-429.499
-441.282
-445.999
-466.402
-480.591
-483.271
-475.827
-478.506
-465.997
-226.367
-238.245
-243.534
-225.497
-231.808
-219.282
-254.958
-241.912
-235.096
-277.622
-281.904
-272.995
-295.8
-288.243
-284.118
-296.776
-292.767
-302.782
-313.736
-313.278
-302.001
-332.66
-319.83
-320.118
-317.847
-318.961
-331.029
-316.792
-303.541
-300.277
-310.03
-306.934
-320.735
-290.461
-301.239
-303.838
-455.988
-471.584
-468.095
-478.166
-475.237
-460.972
-426.164
-421.491
-411.549
-433.752
-426.579
-431.723
-473.639
-488.651
-490.418
-485.234
-487.42
-474.035
-468.073
-484.184
-481.589
-488.531
-486.886
-472.185
-251.653
-244.887
-241.904
-249.867
-246.672
-253.813
-234.059
-240.003
-242.839
-312.951
-317.346
-311.182
-272.379
-284.674
-290.449
-268.888
-275.83
-264.517
-298.189
-286.929
-279.52
-225.057
-230.681
-219.808
-253.153
-241.818
-236.028
-253.542
-248.179
-260.159