/*--------------------------------*- C++ -*----------------------------------*\
| =========                 |                                                 |
| \\      /  F ield         | OpenFOAM: The Open Source CFD Toolbox           |
|  \\    /   O peration     | Version:  5.x                                   |
|   \\  /    A nd           | Web:      www.OpenFOAM.org                      |
|    \\/     M anipulation  |                                                 |
\*---------------------------------------------------------------------------*/
FoamFile
{
    version     2.0;
    format      ascii;
    class       surfaceScalarField;
    location    "300";
    object      phi;
}
// * * * * * * * * * * * * * * * * * * * * * * * * * * * * * * * * * * * * * //

dimensions      [0 3 -1 0 0 0 0];

internalField   nonuniform List<scalar> 
13181
(
0.000403257
0.412043
0.000393743
0.412525
0.000348314
0.412538
0.000297788
0.412543
0.000213487
0.412599
-0.000120285
0.412826
-0.000329489
0.412708
-0.000365599
0.412538
-0.00031911
0.412453
-0.00011738
0.412298
0.000264185
0.41212
0.000756234
0.412007
0.00121809
0.412037
0.00150597
0.412214
0.00156751
0.412438
0.00144011
0.412627
0.00119196
0.41275
0.000882565
0.412809
0.00038007
0.412995
-5.30965e-05
0.412948
-0.000613795
0.413053
-0.00084128
0.41272
-0.000885245
0.412559
0.411538
0.000581662
0.411343
0.00161938
0.411487
0.00164539
0.412512
0.00163185
0.412557
0.00137057
0.412861
0.000514087
0.413683
-0.000613408
0.413836
-0.000980323
0.412905
-0.000952153
0.412425
-0.000560781
0.205948
0.205958
0.000209941
0.205672
0.205677
0.00124547
0.205477
0.205495
0.00222065
0.20551
0.205552
0.00282198
0.20578
0.205832
0.00293865
0.206135
0.206186
0.00232867
0.413237
0.0013723
0.413706
0.000414205
0.413767
-0.000600707
0.41401
-0.000950565
0.413298
-0.000970074
0.413073
-0.00101146
0.412761
-1.85737e-05
0.411566
0.411344
-0.000135231
0.411286
2.07316e-05
0.411331
0.000933907
0.411599
0.000866141
0.412624
0.000934444
0.412792
0.001011
0.413606
-0.000456377
0.415303
-0.00143674
0.413885
-0.000788357
0.412761
-0.000985047
0.205819
-0.000659472
0.205452
-0.00027059
0.000490346
-2.66957e-05
0.20513
0.000373796
-0.000759177
0.20514
0.00112896
-0.00145192
0.205533
0.00169897
-0.00183466
0.206123
0.00184698
0.00177835
0.207415
-0.00139841
-0.00191963
0.207361
0.000111265
0.415373
-0.000425157
0.414303
-0.000340188
0.413925
-0.00038809
0.413346
-0.000446581
0.413131
0.000342317
0.411972
0.000383035
0.411525
0.411447
-0.000388027
0.411411
-0.000496324
0.411439
-0.00048934
0.411592
0.000158293
0.411977
-1.325e-05
0.412964
3.40714e-05
0.413559
-0.000133392
0.415471
-0.00103318
0.414785
-0.00144288
0.207752
-0.00155676
0.206976
0.205625
-0.00130277
-0.205765
0.204872
-0.000799022
-0.205185
0.00111215
0.000316179
0.204019
0.000320979
-0.204656
-0.00105507
0.203906
0.00177228
-0.204623
-0.00231653
0.205306
0.00227538
-0.205265
-0.0015294
0.207454
0.000599617
-0.206524
5.75934e-06
0.20753
-0.000120569
0.00134715
0.207492
-0.000524917
-2.00003e-05
0.207079
0.0010974
0.414553
0.000755522
0.414267
0.000291792
0.41381
0.000818009
0.412605
0.000788527
0.412002
0.000549332
0.411765
0.411622
-0.000460334
0.411548
-0.000639885
0.411619
-0.000849926
0.411802
-0.000896045
0.412023
-0.000556054
0.412624
-0.000652897
0.413656
0.000908441
0.413909
0.00110472
0.206543
0.000591366
0.207454
0.208995
-0.000138526
0.206015
-0.0013599
-0.205687
0.00103199
0.204874
-0.00180395
-0.204622
0.00155155
0.00115534
-3.14557e-05
-0.203173
0.101012
0.101037
-0.0013891
0.00281412
-0.202921
0.100749
0.100747
-0.00329449
0.00170789
-0.206086
0.103561
0.104111
-0.00222345
0.207393
0.00232284
-0.207492
-0.00198482
0.207818
0.0020246
-0.207857
-0.00196264
0.207521
0.00193429
0.00226829
0.415751
-0.0018636
-0.00160238
0.00140798
0.415127
0.00151238
0.413705
0.00127807
0.412839
0.000910886
0.412369
0.000644082
0.412031
0.411824
-0.000500506
0.411682
-0.000687675
0.411806
-0.000933628
0.412048
-0.00128278
0.412372
-0.00145127
0.412792
-0.00149679
0.413701
-0.00095282
0.414677
-0.00131174
0.206937
-0.00134689
0.207265
0.000364534
-0.208727
0.00109669
0.206351
0.0012131
-0.20646
-0.00110443
-0.102894
-0.000133716
0.103153
-0.000125096
-0.100494
0.00064947
0.100618
-0.000773452
-0.0997323
-0.00081235
0.0991623
0.00138237
-0.103068
-0.00111685
0.101774
0.00240999
-0.00176861
0.00455473
-0.207652
-0.00194006
0.103211
0.103595
-0.00443229
0.208451
0.00383459
-0.207854
-0.00315371
-0.207962
0.208543
0.00257246
0.00293335
0.417331
-0.00236009
-0.00215361
0.00235878
0.415702
0.0018643
0.4142
0.00132721
0.413376
0.000957625
0.412739
0.000675003
0.412314
0.412023
-0.000524829
0.41182
-0.00071928
0.412
-0.000946967
0.412275
-0.00125896
0.412684
-0.00171621
0.41325
-0.00211298
0.414098
-0.00139014
0.415322
-0.0013674
-0.207311
0.207712
-0.00179118
-0.207306
0.207934
-0.00292735
0.00229966
-0.206834
0.207906
0.00375552
-0.00227779
-0.00254968
-0.102658
0.00234451
0.102717
-0.00240295
-0.0502265
0.000867638
0.050069
-0.000710152
-0.00038597
-0.0476297
0.0473886
0.000627081
-0.0019967
-0.102523
0.00395235
-0.00137433
0.0503817
0.0515595
-0.00461935
-0.103819
0.104343
0.00409539
-0.00620816
-0.209479
0.210741
0.00494666
-0.00391858
-0.209217
0.210053
0.00308229
0.00341127
0.418703
-0.00238155
-0.00240208
0.00255367
0.416559
0.00174708
0.415006
0.00120891
0.413915
0.00084458
0.413103
0.000586262
0.412572
0.412147
-0.00048706
0.411925
-0.000665954
0.412179
-0.000864613
0.412474
-0.00117386
0.412993
-0.00158011
0.413656
-0.00216781
0.414686
-0.00128895
0.415944
-0.00150074
-0.208123
0.208548
-0.00171328
-0.208734
0.209489
-0.00303395
0.002279
-0.209366
0.210922
0.00410056
-0.00277839
-0.00287789
-0.104306
0.00398582
0.105187
-0.00486677
-0.0510575
0.00445396
0.0516771
-0.00507354
-0.00638895
-0.0519795
0.0525874
0.0057811
-0.00655095
-0.10634
0.107305
0.00558607
-0.00732395
-0.212413
0.214065
0.00567238
-0.00444101
-0.21106
0.211956
0.003545
0.00326993
0.420775
-0.00253745
-0.00280381
0.00194493
0.417884
0.00131397
0.415637
0.000891272
0.414337
0.000636292
0.413358
0.000488527
0.41272
0.412236
-0.000437812
0.412009
-0.000537699
0.412279
-0.00067964
0.412616
-0.00084646
0.41316
-0.00107147
0.413881
-0.00137628
0.414991
-0.00106113
0.416445
-0.000816898
-0.208604
0.208916
-0.00137297
-0.210373
0.2109
-0.00247777
0.00195119
-0.212378
0.213341
0.00315241
-0.00220322
-0.00191156
-0.107604
0.00314526
0.108188
-0.00372924
-0.0554277
0.00339275
0.0557645
-0.00372955
-0.00552162
-0.0571013
0.0575947
0.00502825
-0.00512809
-0.110032
0.110838
0.00432162
-0.00519325
-0.215626
0.216818
0.00400151
-0.0030878
-0.212761
0.213374
0.00247462
0.00242123
0.421698
-0.0014287
-0.00191637
0.00127529
0.41903
0.000642998
0.41627
0.000443778
0.414536
0.000325895
0.413476
0.000254923
0.412791
0.412203
-0.000344238
0.412049
-0.000424924
0.41236
-0.000475956
0.412667
-0.00054708
0.413231
-0.000554687
0.413888
-0.000539765
0.414976
-0.000354367
0.416354
-9.37873e-05
-0.209189
0.209458
-0.000623932
-0.211173
0.21119
-0.000683215
0.000666227
-0.213781
0.213664
0.00063041
-0.000430157
-8.3399e-05
-0.109072
0.000508119
0.109055
-0.000491029
-0.0568186
0.000285923
0.0567938
-0.000261074
-0.00123221
-0.059531
0.0595851
0.00117804
-0.00133353
-0.112293
0.112444
0.00118192
-0.00124923
-0.217524
0.217676
0.00109762
-0.000977488
-0.213779
0.21393
0.000826576
0.000873246
0.421642
-0.000175266
-0.000641331
0.000910586
0.418993
0.00012711
0.417053
-0.000119824
0.414783
-2.83425e-05
0.413384
1.85009e-05
0.412744
0.412087
-0.000267482
0.412072
-0.000288344
0.412381
-0.00027946
0.412658
-0.00020175
0.413153
-0.000110315
0.413797
0.00020408
0.414661
0.000264038
0.415923
0.000370835
-0.209513
0.209482
0.000294798
-0.210973
0.210553
0.000991592
-0.000571611
-0.213057
0.212113
-0.00164366
0.0011643
0.00142269
-0.108195
-0.00181823
0.107709
0.00230417
-0.0554708
-0.00227759
0.0551777
0.00257072
0.00284455
-0.0584595
0.0581478
-0.00253289
0.00248571
-0.11185
0.111393
-0.00202879
0.0026014
-0.217303
0.216521
-0.00181931
0.00118366
-0.213783
0.213413
-0.000813576
-0.000673526
0.420782
0.000932994
0.000600722
-7.9669e-05
0.418399
0.00024501
0.416728
-0.000672727
0.415701
-0.000445293
0.413157
-0.000238044
0.412537
0.411893
-0.000177794
0.412067
-0.000131311
0.412334
-6.46314e-05
0.412592
7.34929e-05
0.413015
0.00034746
0.413523
0.000837809
0.414171
0.000640101
0.415396
0.000724557
-0.209213
0.208929
0.000923847
-0.210023
0.20945
0.00191637
-0.00134398
-0.210976
0.209836
-0.00272691
0.00191889
0.00194781
-0.106018
-0.00278636
0.105452
0.00335294
-0.0529864
-0.00296856
0.052688
0.00326697
0.0046013
-0.0555063
0.0551203
-0.00421521
0.00456784
-0.109471
0.108762
-0.00385898
0.00499517
-0.215347
0.213952
-0.0036001
0.00266918
-0.212848
0.212183
-0.00200417
-0.00170988
0.419327
0.00165838
0.00150592
-0.00082671
0.417516
-0.000244437
0.416146
1.62433e-05
0.41544
-0.000809358
0.413983
-0.000508644
0.412236
0.411617
-0.000108797
0.412047
-3.80436e-05
0.412263
5.49137e-05
0.412499
0.000246529
0.412824
0.000526401
0.413243
0.00102128
0.413676
0.000852094
0.414719
0.000846183
-0.208607
0.208298
0.00116052
-0.208886
0.208393
0.00200072
-0.00150749
-0.208788
0.207945
-0.0026388
0.00179871
0.00168257
-0.103988
-0.00244669
0.103623
0.00281189
-0.0510075
-0.00222503
0.0508612
0.0023714
0.00421098
-0.0524677
0.0521327
-0.00387599
0.0045419
-0.106704
0.106115
-0.00395231
0.0052357
-0.212431
0.211186
-0.00399094
0.00307744
-0.211501
0.210845
-0.00242209
-0.0021088
0.417833
0.00179379
0.00180952
-0.00115061
0.416558
-0.000490376
0.415486
-0.000403542
0.415354
-0.000950677
0.41453
-0.00074801
0.412034
0.411283
-4.27036e-05
0.412004
9.85746e-06
0.412211
0.000123221
0.412385
0.000279167
0.412668
0.000520447
0.413002
0.000869038
0.413327
0.00129183
0.414296
0.0011902
0.415532
0.000756005
-0.208051
-0.208135
-0.208013
0.207789
0.00141397
-0.207345
0.20786
0.000840238
-0.00135559
-0.103298
0.000281677
0.104543
-0.00152649
-0.0516343
0.00217489
0.0508639
-0.00140448
-0.0179185
0.000567947
0.0179695
-0.000618912
0.00139835
-0.0508462
0.102305
-0.0029889
0.00118296
-0.0510514
-0.104881
0.00309889
0.104711
-0.00292868
0.00388002
-0.210245
0.20954
-0.00317492
0.00257873
-0.210366
0.210226
-0.00243863
-0.00195768
0.416717
0.00143755
0.00163597
-0.00113586
0.415736
-0.000542251
0.414892
-0.0010957
0.415907
9.54947e-05
0.413339
-0.00082952
0.412959
0.41103
-4.65471e-05
0.411993
-4.85878e-06
0.412169
6.41549e-05
0.412316
0.000158213
0.412574
0.000327721
0.412832
0.000455298
0.4132
1.84089e-05
0.414733
-0.000733877
0.417998
-0.00171375
-0.208325
0.209223
-0.00163205
-0.208494
0.207728
-0.000897005
0.0016631
-0.103235
-0.000275922
0.103117
0.000393329
-0.102126
0.000137795
0.102451
-0.00046223
-0.0408792
0.00154242
0.0845633
-0.00240194
-0.0428245
-0.103647
0.00270396
0.10339
-0.00244617
-0.208284
0.00299503
0.208803
-0.00546325
0.00194941
0.00509092
-0.209168
0.208667
-0.00458969
-0.00562671
0.416551
0.00280739
0.00421811
-0.210955
-0.206995
-0.00444714
0.415537
-0.00356419
0.414853
-0.00276045
0.414089
-0.000325162
0.413472
9.55806e-05
0.412918
0.000422173
0.412632
0.412164
-4.85548e-05
0.411997
-4.96277e-05
0.41217
-3.50058e-05
0.412302
9.75775e-06
0.412529
3.21382e-05
0.41281
-0.000145227
0.413377
-0.00136914
0.415957
-0.001696
0.418288
3.68364e-05
-0.209145
0.207909
-0.00046036
-0.207252
0.207294
0.000115135
-0.000156593
-0.206772
0.207179
-0.000511594
0.000104699
-0.103159
0.000486888
0.103333
-0.000660856
-0.0864472
0.00105443
0.0871999
-0.00180712
-0.103315
0.00175903
0.207071
-0.00385072
-0.103368
0.00170353
-0.208413
0.00425362
0.20812
-0.00396088
-0.208357
0.00374645
0.208089
-0.00347792
-0.00417043
0.414919
0.00270972
0.00309317
-0.00289113
0.414258
-0.00244818
0.41441
-0.00220625
0.413847
-0.00194764
0.413213
-0.00164041
0.412611
-0.00120512
0.412197
0.411777
-8.85335e-05
0.412042
-9.12649e-05
0.412173
-0.000111032
0.412321
-0.000137585
0.412556
-0.000210068
0.412882
-0.000785354
0.413952
-0.00162242
0.416794
-0.000358588
0.417024
-0.00020285
0.415705
-0.207903
-0.207641
-0.000316616
-0.207451
0.207555
-0.000306428
-0.207519
0.207798
-0.000762553
0.000484511
-0.207283
0.00111236
0.207398
-0.00122697
-0.184345
0.00177713
0.185301
-0.00273305
-0.20746
0.0028349
0.207585
-0.00295904
-0.207872
0.00291591
0.207736
-0.00277978
-0.207905
0.00270746
0.207765
-0.00256698
-0.00412221
0.414396
0.002271
0.00237408
-0.00340937
0.413545
-0.00267021
0.413671
-0.00190512
0.413082
-0.00122464
0.412533
-0.000940976
0.412327
-0.000860296
0.412116
0.411815
-0.000116146
0.412107
-0.000165728
0.412223
-0.000240022
0.412396
-0.000308386
0.412624
-0.000550946
0.413125
-0.00160493
0.415006
-0.00164265
0.416832
-0.000728443
0.41611
-0.00104483
0.416021
-0.00071487
0.415948
-0.207683
-0.207779
-0.000816731
-0.208037
0.208261
-0.000939262
-0.207337
0.00126201
0.206827
-0.000752235
-0.186218
0.00153466
0.187404
-0.00272109
-0.20772
0.00206506
0.207852
-0.00219696
-0.00412915
0.415112
-0.207688
-0.207591
0.00207957
0.00221604
-0.00394283
0.415038
-0.20765
-0.207574
-0.00357598
0.414029
-0.00326307
0.413232
-0.00261004
0.413018
-0.00204661
0.412518
-0.00157715
0.412063
-0.00119444
0.411944
-0.000656248
0.411578
0.412107
-0.000149632
0.412189
-0.000243582
0.412316
-0.000322114
0.412474
-0.00042266
0.412724
-0.000614857
0.413317
-0.00141614
0.415808
-0.0011024
0.416518
-0.000774959
0.415782
-0.00116882
0.416415
-0.00163111
0.416411
-0.00191789
0.417351
-0.208594
-0.20847
-0.00275564
0.400022
-0.204744
-0.19444
-0.00366359
0.393348
-0.189994
-0.202446
-0.0035859
0.416168
-0.208058
-0.208188
-0.00350765
0.415034
-0.00340203
0.414932
-0.003132
0.413759
-0.0028807
0.412981
-0.00240803
0.412545
-0.00200687
0.412117
-0.00171982
0.411776
-0.00125953
0.411484
-0.000875776
0.411194
0.412208
-0.000185866
0.412286
-0.000275404
0.412406
-0.000397495
0.412596
-0.000521367
0.412848
-0.000717469
0.413513
-0.00117993
0.41627
-0.00101707
0.416355
-0.000923437
0.415689
-0.00121079
0.416702
-0.0015992
0.416799
-0.00183749
0.41759
-0.00234126
0.400526
-0.00286854
0.393875
-0.00295113
0.416251
-0.00302282
0.415106
-0.00295527
0.414865
-0.00276921
0.413573
-0.00256175
0.412773
-0.00221944
0.412203
-0.00189492
0.411792
-0.00160262
0.411484
-0.00126106
0.411142
-0.000942041
0.410875
0.412254
-0.00022284
0.412394
-0.000349145
0.412532
-0.000486744
0.412734
-0.000626625
0.412988
-0.000771089
0.413658
-0.000951759
0.416451
-0.000968341
0.416372
-0.00100708
0.415727
-0.00124401
0.416939
-0.00157923
0.417134
-0.00173511
0.417746
-0.00208364
0.400874
-0.0024487
0.39424
-0.00251
0.416312
-0.00262879
0.415224
-0.00258196
0.414818
-0.00245327
0.413444
-0.0023043
0.412625
-0.00205065
0.411949
-0.0017872
0.411529
-0.0015257
0.411222
-0.00122989
0.410847
-0.00095052
0.410596
0.412288
-0.000259379
0.412512
-0.000396042
0.412669
-0.000521586
0.412859
-0.000671649
0.413138
-0.000824405
0.413811
-0.000897063
0.416524
-0.00100003
0.416475
-0.00119586
0.415923
-0.00125194
0.416995
-0.00153313
0.417416
-0.00166201
0.417875
-0.00188189
0.401094
-0.00212239
0.394481
-0.00219705
0.416387
-0.00230383
0.415331
-0.00227298
0.414787
-0.00218862
0.41336
-0.00208578
0.412522
-0.00186051
0.411724
-0.00169001
0.411358
-0.00142796
0.41096
-0.00119419
0.410613
-0.000972815
0.410374
0.412285
-0.000317506
0.412658
-0.000415907
0.412767
-0.000570418
0.413014
-0.000703501
0.413271
-0.000858865
0.413966
-0.000931772
0.416596
-0.00103503
0.416578
-0.00121634
0.416105
-0.0012389
0.417018
-0.00147418
0.417651
-0.00158188
0.417982
-0.00171725
0.401229
-0.0018702
0.394634
-0.0019439
0.416461
-0.00203845
0.415426
-0.00201623
0.414765
-0.00195832
0.413302
-0.00185854
0.412422
-0.00171687
0.411582
-0.00156155
0.411203
-0.00133555
0.410734
-0.00113526
0.410412
-0.000922666
0.410162
0.41231
-0.000329339
0.412786
-0.000476815
0.412915
-0.000611678
0.413149
-0.000747044
0.413407
-0.000901045
0.41412
-0.000948508
0.416644
-0.00105056
0.41668
-0.00121563
0.41627
-0.00132681
0.417129
-0.00141745
0.417742
-0.0015015
0.418066
-0.00158007
0.401308
-0.00167168
0.394725
-0.0017389
0.416528
-0.00181954
0.415506
-0.00180358
0.414749
-0.0017622
0.413261
-0.00168598
0.412346
-0.00155111
0.411447
-0.00142455
0.411077
-0.00127289
0.410583
-0.00110007
0.41024
-0.000936642
0.409998
0.41229
-0.000362708
0.412914
-0.000489071
0.413041
-0.000646785
0.413306
-0.000781906
0.413542
-0.000909394
0.414247
-0.000951997
0.416686
-0.001055
0.416783
-0.00120349
0.416418
-0.0013449
0.417271
-0.00135716
0.417754
-0.00142541
0.418135
-0.00145407
0.401337
-0.00151282
0.394784
-0.00155734
0.416572
-0.00163466
0.415584
-0.00162326
0.414738
-0.00159805
0.413235
-0.00154114
0.412289
-0.0014506
0.411357
-0.00134624
0.410972
-0.00117356
0.41041
-0.00102322
0.410089
-0.000882024
0.409857
0.41229
-0.000395242
0.413042
-0.000521038
0.413167
-0.000654283
0.41344
-0.000787325
0.413675
-0.000932029
0.414392
-0.000968681
0.416723
-0.00104822
0.416863
-0.00118303
0.416553
-0.00130908
0.417397
-0.00156162
0.418006
-0.00154555
0.418118
-0.00151658
0.401308
-0.00150036
0.394768
-0.00153624
0.416608
-0.00158263
0.41563
-0.00157182
0.414727
-0.00156266
0.413226
-0.00153156
0.412258
-0.00150243
0.411328
-0.00130299
0.410773
-0.00114963
0.410257
-0.000994786
0.409934
-0.00084953
0.409712
0.412284
-0.000427176
0.413167
-0.000550765
0.413291
-0.000658034
0.413547
-0.000810329
0.413827
-0.000926042
0.414508
-0.000978785
0.416776
-0.00103823
0.416922
-0.00116017
0.416675
-0.00138509
0.417622
-0.00159957
0.418221
-0.0016409
0.41816
-0.00162787
0.401295
-0.00163212
0.394772
-0.00167953
0.416656
-0.00172427
0.415675
-0.00171335
0.414716
-0.00169671
0.41321
-0.00163242
0.412193
-0.00157069
0.411266
-0.00149481
0.410697
-0.00137811
0.41014
-0.00128149
0.409838
-0.00115078
0.409581
0.411933
-0.000458589
0.413289
-0.000578752
0.413411
-0.000704078
0.413672
-0.000806942
0.41393
-0.000915922
0.414617
-0.000961965
0.416822
-0.00102733
0.416988
-0.00124643
0.416894
-0.00143907
0.417814
-0.00155665
0.418338
-0.00158297
0.418186
-0.00155549
0.401267
-0.00153997
0.394757
-0.00157458
0.41669
-0.00161268
0.415713
-0.00160414
0.414707
-0.0015898
0.413195
-0.00155095
0.412155
-0.00147597
0.411191
-0.00140914
0.41063
-0.00132615
0.410057
-0.0012175
0.409729
-0.00112023
0.409484
0.41157
-0.000489566
0.413405
-0.000582704
0.413504
-0.000702629
0.413792
-0.000800839
0.414028
-0.000925517
0.414742
-0.000965136
0.416862
-0.00112113
0.417144
-0.00133246
0.417105
-0.00141585
0.417898
-0.00151457
0.418437
-0.00153717
0.418209
-0.00149436
0.401224
-0.00146131
0.394724
-0.00149157
0.416721
-0.00152265
0.415744
-0.00151376
0.414699
-0.0015004
0.413182
-0.00146294
0.412117
-0.00141676
0.411145
-0.00133398
0.410547
-0.00123727
0.40996
-0.00118057
0.409673
-0.00106925
0.409373
0.411213
-0.00049735
0.413492
-0.000630607
0.413637
-0.000721896
0.413884
-0.000837902
0.414144
-0.000910654
0.414814
-0.00108003
0.417031
-0.00124836
0.417312
-0.00131988
0.417177
-0.00139507
0.417973
-0.00148259
0.418525
-0.00149412
0.41822
-0.00144342
0.401174
-0.00139411
0.394674
-0.00141867
0.416745
-0.00144882
0.415774
-0.00143696
0.414687
-0.0014262
0.413171
-0.00138872
0.41208
-0.00134727
0.411103
-0.00126875
0.410469
-0.00120065
0.409892
-0.00110398
0.409576
-0.00102067
0.409289
0.410859
-0.000549408
0.413595
-0.000631887
0.41372
-0.000716823
0.413968
-0.000828134
0.414256
-0.00105308
0.415039
-0.00133022
0.417308
-0.00124231
0.417224
-0.00130658
0.417241
-0.00137262
0.418039
-0.00145371
0.418606
-0.00146237
0.418229
-0.00140169
0.401113
-0.00134338
0.394616
-0.00136335
0.416765
-0.00138465
0.415795
-0.0013764
0.414678
-0.00136578
0.413161
-0.00132709
0.412041
-0.00126659
0.411043
-0.00123524
0.410437
-0.00114922
0.409806
-0.00107744
0.409504
-0.0009976
0.409209
0.410484
-0.00055468
0.413667
-0.000654199
0.413819
-0.000754957
0.414069
-0.000816833
0.414317
-0.00148868
0.415711
-0.0013084
0.417128
-0.00123902
0.417155
-0.00129784
0.4173
-0.00135783
0.418099
-0.00143004
0.418678
-0.00143473
0.418234
-0.0013683
0.401046
-0.00129918
0.394547
-0.00131737
0.416783
-0.00133798
0.415816
-0.00132595
0.414666
-0.00131552
0.41315
-0.00127685
0.412002
-0.00124135
0.411007
-0.00116609
0.410362
-0.00112797
0.409768
-0.00103431
0.40941
-0.000956182
0.409131
0.410108
-0.000602559
0.413752
-0.000651735
0.413868
-0.000745435
0.414163
-0.00121216
0.414784
-0.00151498
0.416014
-0.0013323
0.416945
-0.00123375
0.417056
-0.00128933
0.417356
-0.00134346
0.418153
-0.00141154
0.418746
-0.00141068
0.418233
-0.00134268
0.400978
-0.00126972
0.394474
-0.001282
0.416796
-0.00130093
0.415835
-0.00128897
0.414654
-0.0012795
0.413141
-0.00123711
0.41196
-0.00120437
0.410975
-0.00115055
0.410308
-0.00107038
0.409688
-0.000997649
0.409338
-0.000897781
0.409031
0.409751
-0.000601279
0.413804
-0.000691785
0.413959
-0.000755375
0.414227
-0.00133452
0.415363
-0.00147155
0.416151
-0.00131158
0.416785
-0.00123081
0.416975
-0.00128364
0.417408
-0.00133131
0.418201
-0.00139724
0.418812
-0.00139571
0.418231
-0.00132442
0.400907
-0.00124862
0.394398
-0.00125654
0.416804
-0.00127545
0.415854
-0.00125966
0.414639
-0.00125269
0.413134
-0.00120688
0.411914
-0.00117791
0.410946
-0.00112116
0.410252
-0.00106644
0.409633
-0.000968031
0.409239
-0.000890614
0.408954
0.409365
-0.000615187
0.413845
-0.000683003
0.414027
-0.000736961
0.41428
-0.0011846
0.415811
-0.00140158
0.416368
-0.00133888
0.416722
-0.00122409
0.41686
-0.00128538
0.41747
-0.0013229
0.418238
-0.00138975
0.418879
-0.00138379
0.418225
-0.00131392
0.400837
-0.00123758
0.394322
-0.00124154
0.416807
-0.001265
0.415877
-0.00123845
0.414612
-0.00124163
0.413137
-0.00120752
0.41188
-0.00116425
0.410902
-0.00110021
0.410188
-0.00102943
0.409562
-0.000968962
0.409179
-0.00087155
0.408857
0.40897
-0.000646022
-0.000715311
-0.000737618
-0.000964756
-0.00108076
-0.00134417
-0.00122028
-0.00128648
-0.0013093
-0.00137709
-0.00136575
-0.00130799
-0.00124408
-0.00123458
-0.00125883
-0.00122491
-0.00123618
-0.00117046
-0.00115831
-0.00108631
-0.00104463
-0.000932526
-0.000882557
0.00374518
-0.00412922
-0.0550437
0.0573714
0.00592006
-0.0567522
-0.00321958
-0.00331965
-0.0515161
-0.00706414
0.0521913
0.00069292
-0.000708416
-0.0568031
0.0600334
0.001822
-0.0599107
-0.000912098
-0.00103259
0.0579169
-0.00298896
-0.00307816
-0.00205197
0.0023323
-0.0557512
0.0587616
-0.0024503
-0.0591044
0.00143895
0.00135417
0.0600943
-0.000586095
-0.000707028
-0.00297586
0.00327886
-0.0532894
0.0554738
-0.00453386
-0.0559043
0.00496437
0.0583951
0.00164281
0.00156817
-0.00236169
0.00255081
-0.0511967
0.0521639
-0.00436313
-0.052546
0.00474523
0.00505644
0.0550187
0.002318
-0.00305619
-0.0508962
-0.000654521
0.0201833
0.000421036
-0.010076
-0.00987383
-0.000794784
-0.00853654
-0.00924168
0.0504918
-0.00220713
-0.0504188
0.00213413
0.00452009
0.0518547
0.00423003
-0.00471131
-0.0505762
-0.0473975
0.000152461
0.0468591
0.00589704
-0.0509464
-0.00646675
-0.0499932
-0.00224593
0.0502425
0.00364088
-0.00437802
-0.106867
0.0551789
-0.0548361
0.00340232
-0.0515309
0.00397331
0.0520115
0.0138081
0.00552798
-0.0272615
0.0138638
-0.00293619
-0.00300222
0.00492399
-0.0240445
-0.00534361
0.0244641
0.00536894
-0.0565502
0.110654
0.00581667
-0.109562
-0.00690851
-0.106051
-0.00769669
0.107196
0.00121122
-0.00134602
-0.108937
0.0564903
-0.0564719
0.000674495
0.00308044
0.0554912
0.0564797
0.00228831
-0.00247886
-0.0562891
0.0289281
-0.000780922
-0.0288718
0.00145447
-0.000729838
-0.0284596
-0.00249067
0.00239719
0.0285531
0.0147236
0.0004835
-0.015104
-0.000103036
-0.0147751
0.00231858
-0.00254414
0.0150007
0.00170931
-0.0594183
0.113316
0.00238887
-0.112968
-0.00273682
-0.00609854
0.111625
-0.00134057
0.00175146
-0.108606
0.0553416
-0.055591
-0.00180259
0.000294605
0.0564816
0.056448
-0.000860698
0.00101383
-0.0566011
0.0294017
0.00060817
-0.0294892
-0.000871889
0.000351179
-0.0294897
-0.000126351
0.000156908
0.0294718
-1.27338e-05
0.0136965
3.5455e-05
-0.0136781
-5.38584e-05
-0.0137742
6.21291e-05
0.0137894
-7.7292e-05
-0.00216227
-0.0587475
0.112623
-0.00162275
-0.11308
0.00208002
-0.00146887
0.113452
-0.00269285
0.00327026
-0.106596
0.0530725
-0.053354
-0.00269441
-0.00201552
0.0550796
0.0542357
-0.00275622
0.00307786
-0.0545573
0.00216405
0.0272517
-0.0273646
-0.0020512
-0.0282125
0.000954627
-0.00176364
0.0280453
0.000976255
0.014925
-0.00184972
-0.0152934
0.0022181
-0.0142578
-0.000370405
4.43485e-05
0.0145839
-0.00411126
-0.055929
0.109677
-0.00418202
-0.110529
0.00503403
0.00307237
0.112036
0.0258751
-0.0033141
-0.0259852
0.00172629
0.0016979
-0.0135447
-0.00165485
0.00169009
0.0135095
-0.00401455
-0.0528162
0.106384
-0.00470933
-0.107148
0.0054734
0.00541684
0.108828
0.0239702
-0.00233083
-0.024055
0.00241564
-0.0248522
-0.00297268
0.00309585
0.024729
-8.00698e-05
-0.000297729
-0.101749
-0.000806768
0.0437365
-0.0433712
0.000441379
0.000427409
0.0203239
-0.00139146
-0.0402945
-0.00292248
0.103203
-0.103629
0.00334833
0.00118212
0.0507081
-0.00255996
-0.0284159
0.00251626
-0.00370623
-0.0272079
0.00347266
0.0274415
-0.0535622
0.00452925
0.0540995
-0.00506654
-0.0272842
0.027555
-0.00200764
-0.00196943
0.0285264
-0.0286084
-0.00125302
-0.00122495
0.00376947
-0.0245238
0.0248599
-0.00410559
0.00382126
-0.00406289
-0.0270425
0.00206134
-0.0148694
-0.0019671
0.00275701
-0.00283782
0.0138889
-0.0546162
0.00676725
-0.00752022
0.0553692
-0.0275179
-0.00272432
0.0278611
0.00513806
0.0148378
0.00206302
-0.0148395
-7.2262e-05
-0.0295118
0.000294547
-0.000200114
-0.000793322
0.00139854
0.0291596
-0.000836785
0.00189077
0.0566327
-0.00204384
-0.0144015
0.0145209
-0.000912675
0.0150417
-9.39685e-05
-0.01502
0.0143412
0.0143504
-0.00127155
-0.00138431
-0.000798148
-0.0143843
-1.20695e-05
-0.0138533
9.11401e-05
0.000770191
-0.000304193
0.0142576
-0.0591697
0.00353164
0.0594778
-0.0018645
-0.00197528
-0.0148614
0.0145747
0.00105692
0.0151235
0.000113626
-0.0152492
0.0150072
0.00214926
0.000820003
-0.0151979
0.00407419
-0.0588147
-0.00215966
-0.0022695
0.000967123
-0.0283729
-0.00168724
0.000880478
0.000572534
-0.00108209
0.0291085
0.000802751
-0.00119552
0.0562403
0.00140322
-0.0152067
0.0150193
0.000759917
0.0142446
0.00104626
-0.0143237
0.0149897
-7.43169e-05
0.000584335
-0.0151829
-0.000656599
-0.0138645
0.000263311
3.769e-06
0.0137036
-1.07776e-05
-0.0598719
-0.00103886
0.0596672
0.000673792
0.000569829
-0.0150526
0.015125
-6.87149e-05
0.0144429
-0.000898718
-0.0142007
0.0150582
0.000127495
-4.66847e-05
-0.0149704
-0.000502861
-0.060013
0.000376522
0.000267359
-0.0272273
-0.00217105
0.0271597
0.00108546
0.00115311
0.0263171
-0.00219448
0.0022844
-0.026407
0.0141229
0.00107631
-0.0273102
0.00112893
0.00111811
-0.00171862
-0.0136258
0.00179969
-0.00201999
0.00256523
0.0143798
-0.0571879
-0.0040204
0.0567609
0.00223724
0.00221016
-0.0147766
0.0144582
-0.00170165
0.0272861
0.00169699
-0.00319057
-0.0275111
0.0147296
-0.000657122
-0.00162442
-0.0150019
-0.00379069
-0.0576046
0.00212848
0.0020789
-0.0255513
-0.00192093
0.0254746
0.00199761
0.0250289
-0.00159388
0.00165226
-0.0250872
-0.00218668
0.0262603
0.00224344
-0.00196382
0.00205435
-0.0256418
-0.00300984
-0.0249927
0.00315034
-0.00330265
0.0257331
0.0017375
0.00170722
0.00163756
0.0271727
-0.0031791
0.0262536
-0.00318022
-0.0263875
0.0537569
-0.00474222
-0.0541616
0.00514686
-0.0245993
-0.000960748
0.0245571
0.00100295
0.0246376
4.99257e-05
9.90472e-06
-0.0246974
-0.00152471
0.0249619
0.00159168
-0.00107042
0.00109935
-0.0246282
0.0239639
-0.000632382
-0.0243345
0.00100299
-0.00222343
0.00231443
0.0238792
0.00463033
-0.00523064
-0.0529619
-0.0269644
0.00357778
-0.0248647
0.00351744
0.0251168
0.0128315
0.00381334
-0.0168352
0.000190379
0.00344882
-0.0111283
-0.00366968
0.0113492
-0.00260292
0.003036
-0.104421
0.0512285
-0.0514034
-0.00218678
-0.00269112
0.0527951
0.051873
-0.00281605
0.00306865
-0.0521256
0.025663
-0.0257431
-0.00188372
-0.0263936
-0.00210167
0.0263086
0.0111517
-0.00168857
-0.0113083
0.0018452
-0.0115194
-0.00183765
0.00198927
0.0113678
-0.00220655
-0.0508467
-0.00355232
0.104249
-0.10462
0.00392327
0.00523562
0.10569
-0.0114017
0.00277134
0.0117251
-0.00309473
0.0133834
0.00303776
-0.00303431
-0.0133869
-0.0244951
0.0248335
0.00458563
0.00520834
-0.0271982
0.00681556
-0.0537925
-0.00763928
-0.0264964
-0.00209175
-0.00207104
0.0271517
-0.00285678
0.0539174
0.00317501
-0.0115493
-0.000182978
0.0117822
-4.9936e-05
0.0123365
-0.000626087
0.000197207
-0.0119076
-0.0117485
-0.00106389
0.0116664
0.00114598
0.0118612
-0.0010644
0.001135
-0.0119318
-0.000445725
0.0126936
8.86316e-05
-0.0013267
0.0120779
0.00114703
-0.0118982
-0.0016989
-0.011378
0.00155754
-0.00229814
-0.0107983
0.00202483
0.0110716
-0.00467779
0.0051002
0.0533345
0.0261175
-0.0031665
0.0252413
-0.00287829
-0.0253728
-0.000991531
0.0116894
0.00116334
0.0115515
-0.000817984
0.000831119
-0.0115646
0.0251178
-0.00284921
0.0244
-0.00227548
-0.0244554
0.0509654
-0.00348141
-0.0512427
0.00375869
5.037e-05
-0.0238524
0.000393017
0.023409
0.00215513
-0.0488329
0.0243465
0.0237339
-0.000833974
-0.0005687
0.00347414
-0.00376415
-0.0242338
0.00452821
-0.0237078
-0.00486488
0.00340529
-0.0475575
-0.00150195
-0.00209916
0.0234452
0.0243081
-0.0245537
0.0241933
0.000410866
0.00349666
0.00929664
3.8165e-05
-0.0258984
0.00567321
0.0263785
-0.00306194
-0.00309136
-0.0133514
0.0129152
0.00393292
-0.0113055
0.0114691
0.00328521
0.0040025
-0.0135406
0.00560143
-0.0254411
-0.00605871
-0.0150568
0.00285451
-0.00386118
0.0160634
0.00248558
-0.0146927
-0.00284962
-0.0136587
-2.49959e-05
0.0135961
8.76223e-05
-1.17027e-05
-0.0136777
3.06628e-05
-0.0142313
-0.00213547
0.0025601
0.0138067
-0.00249902
-0.015235
0.00350273
-0.0132591
-0.0032809
0.0263608
-0.0132401
0.00175619
0.00166316
0.0128531
-0.00126456
-0.0115287
-5.98951e-05
-0.00166804
-0.0133153
0.00172424
0.0107335
-0.0013555
-0.010719
0.00134098
-0.00164577
0.00176163
0.0110358
-0.0115563
0.0114696
-0.00175091
0.0112397
-0.00160393
-0.0113244
0.0243628
-0.00270784
-0.024483
0.00282799
0.0012555
-0.0127916
0.0115462
-1.01525e-05
0.0281337
0.00327974
-0.0279528
-0.00173528
-0.0017254
0.0115323
-0.0123921
0.000920786
-6.09707e-05
-0.0140057
0.00203568
0.0132255
0.00254075
0.00899128
3.06252e-07
0.00317791
0.028433
-0.00177145