/*--------------------------------*- C++ -*----------------------------------*\
| =========                 |                                                 |
| \\      /  F ield         | OpenFOAM: The Open Source CFD Toolbox           |
|  \\    /   O peration     | Version:  5.x                                   |
|   \\  /    A nd           | Web:      www.OpenFOAM.org                      |
|    \\/     M anipulation  |                                                 |
\*---------------------------------------------------------------------------*/
FoamFile
{
    version     2.0;
    format      ascii;
    class       volVectorField;
    location    "300";
    object      U;
}
// * * * * * * * * * * * * * * * * * * * * * * * * * * * * * * * * * * * * * //

dimensions      [0 1 -1 0 0 0 0];

internalField   nonuniform List<vector> 
6584
(
(45.0029 -0.00774148 1.83377e-25)
(45.0021 -0.0170404 8.91166e-24)
(45.0027 -0.0232254 8.16788e-29)
(45.0029 -0.0317641 -1.61112e-23)
(45.0033 -0.0408707 0)
(45.0034 -0.0510137 0)
(45.0031 -0.0612389 0)
(45.0013 -0.0682969 1.7159e-23)
(44.9985 -0.0695777 1.76466e-23)
(44.9935 -0.05822 0)
(44.9883 -0.025359 7.90561e-24)
(44.9846 0.0270516 -6.89809e-24)
(44.9854 0.086386 -4.62777e-25)
(44.9906 0.133141 1.1875e-24)
(44.9969 0.154954 3.93767e-25)
(45.0035 0.151971 3.80346e-23)
(45.0066 0.134685 3.40879e-23)
(45.0078 0.112167 2.75241e-24)
(45.0073 0.0890264 2.39622e-23)
(45.0064 0.068313 1.73273e-23)
(45.0053 0.0512564 0)
(45.0046 0.0363559 0)
(45.0035 0.0259371 2.6307e-23)
(45.0044 0.0115605 1.61662e-23)
(45.012 -0.0162519 -8.69086e-24)
(45.0104 -0.0342901 -3.38435e-23)
(45.0127 -0.0458013 -4.55769e-23)
(45.0138 -0.0630209 0)
(45.0159 -0.0813628 -6.35685e-24)
(45.0165 -0.102355 -5.19078e-23)
(45.0151 -0.124545 -3.19753e-23)
(45.0066 -0.140998 5.44761e-23)
(44.9947 -0.146541 -1.92539e-24)
(44.9619 -0.125997 -1.31629e-23)
(44.922 -0.0591744 -4.55872e-27)
(44.8956 0.0512439 0)
(44.9008 0.178118 2.06833e-23)
(44.9372 0.276668 1.34771e-23)
(44.986 0.32166 -8.41846e-23)
(45.0193 0.313064 -2.23432e-23)
(45.0331 0.273563 -5.25158e-23)
(45.0379 0.225152 -6.84815e-23)
(45.0356 0.176825 -1.77645e-22)
(45.0308 0.134666 -1.46649e-22)
(45.0252 0.100795 -1.00702e-23)
(45.0215 0.0710635 -4.27127e-24)
(45.0168 0.05175 0)
(45.0183 0.0240571 1.40935e-23)
(45.0265 -0.0249056 -2.19247e-23)
(45.0254 -0.0506418 0)
(45.0305 -0.0665342 -9.04472e-24)
(45.0344 -0.0923749 -5.92236e-23)
(45.0399 -0.120356 -9.08371e-23)
(45.0427 -0.15404 0)
(45.0404 -0.19316 0)
(45.0222 -0.224303 -1.56975e-23)
(44.9866 -0.258775 -4.00185e-24)
(44.9293 -0.182778 4.14527e-24)
(44.8629 -0.101631 -7.50233e-24)
(44.8102 0.0426488 -1.08424e-23)
(44.8142 0.221095 0)
(44.8796 0.363996 0)
(44.9652 0.43201 1.58229e-24)
(45.0494 0.505302 -9.54488e-23)
(45.0874 0.421845 0)
(45.0974 0.338857 -3.01765e-23)
(45.0896 0.260368 0)
(45.0761 0.195203 -2.29676e-23)
(45.0618 0.145015 -6.32684e-23)
(45.0514 0.101258 -3.80742e-23)
(45.0409 0.0749778 0)
(45.04 0.03619 1.09731e-23)
(45.0441 -0.0329029 -1.33968e-23)
(45.0453 -0.064733 0)
(45.0545 -0.0840113 -1.21148e-23)
(45.0632 -0.117868 0)
(45.075 -0.15544 0)
(45.0843 -0.20411 0)
(45.0852 -0.266221 -3.21395e-23)
(45.0619 -0.328179 1.68965e-22)
(44.9954 -0.407938 -9.56391e-24)
(44.8853 -0.332255 1.2715e-23)
(44.742 -0.240719 -7.74711e-24)
(44.5944 -0.0109993 2.14281e-24)
(44.5764 0.329556 2.08385e-24)
(44.7311 0.601248 0)
(44.9302 0.688438 -1.408e-22)
(45.074 0.634885 0)
(45.1926 0.580214 0)
(45.193 0.451545 2.26033e-22)
(45.1712 0.334863 1.49097e-22)
(45.1402 0.245271 -5.02121e-23)
(45.1121 0.180085 -3.5223e-23)
(45.0908 0.124234 0)
(45.0723 0.0930583 1.58352e-23)
(45.0657 0.0464533 1.30451e-23)
(45.0638 -0.0394551 -5.16278e-24)
(45.0689 -0.0751929 -3.26902e-25)
(45.0833 -0.0964161 -1.5428e-24)
(45.0998 -0.136842 -2.36722e-24)
(45.1216 -0.182405 3.33912e-24)
(45.1459 -0.246663 1.27466e-22)
(45.1593 -0.33631 -2.32867e-22)
(45.156 -0.436872 2.03012e-22)
(45.0207 -0.482919 1.21668e-23)
(44.8806 -0.547257 6.08268e-23)
(44.6024 -0.500784 -7.62765e-24)
(44.2074 -0.166072 1.20672e-23)
(44.1125 0.491898 -3.47231e-25)
(44.5061 0.993926 1.96636e-22)
(44.9411 1.06562 0)
(45.1915 0.906123 1.39904e-22)
(45.2749 0.687321 -3.20791e-23)
(45.3289 0.528107 -1.87505e-22)
(45.2807 0.389052 -1.06571e-22)
(45.2212 0.276498 4.08929e-23)
(45.1736 0.201251 -2.61577e-24)
(45.1368 0.136726 -1.5339e-24)
(45.1081 0.10354 1.81031e-23)
(45.0932 0.0534453 -6.93835e-24)
(45.084 -0.0438066 2.54604e-24)
(45.0944 -0.0806783 -6.7731e-24)
(45.1151 -0.101683 -3.16692e-25)
(45.1421 -0.145729 0)
(45.1777 -0.194212 -2.82302e-23)
(45.2256 -0.270947 -1.65307e-23)
(45.2639 -0.365474 -9.13158e-23)
(45.2269 -0.475384 -1.92296e-23)
(45.1539 -0.640411 7.46211e-23)
(45.0069 -0.864141 3.38961e-22)
(44.4853 -0.899284 7.42369e-23)
(43.7332 -0.585665 1.19513e-26)
(43.3488 0.610266 -2.76371e-24)
(44.2036 1.55844 3.25717e-23)
(45.1123 1.639 -3.17337e-22)
(45.4533 1.22215 0)
(45.5015 0.866157 1.80751e-26)
(45.5069 0.570238 3.9172e-23)
(45.4133 0.411904 1.04568e-23)
(45.3149 0.281701 4.50072e-23)
(45.242 0.203578 -1.72108e-23)
(45.1857 0.13568 0)
(45.1453 0.104235 -9.38738e-24)
(45.1197 0.0558712 -1.33565e-23)
(45.103 -0.0453759 2.27694e-26)
(45.1196 -0.0802739 -3.21799e-24)
(45.1469 -0.0983732 3.98771e-24)
(45.1858 -0.141942 7.93928e-25)
(45.2374 -0.186114 1.10777e-24)
(45.3137 -0.267822 -4.21651e-23)
(45.3901 -0.357056 -5.84208e-23)
(45.3844 -0.50867 -1.21218e-24)
(45.416 -0.760069 -1.08576e-23)
(45.3719 -1.17385 5.46854e-23)
(44.7783 -1.64031 0)
(43.1461 -1.83333 4.85291e-23)
(41.0811 0.818341 1.92956e-24)
(44.0414 3.21893 1.41824e-22)
(45.5102 2.29656 -2.04797e-24)
(45.9446 1.47884 0)
(45.8369 0.949904 9.57074e-23)
(45.719 0.540861 1.65037e-23)
(45.5585 0.386283 1.38901e-23)
(45.4128 0.252933 -3.78832e-24)
(45.3105 0.182769 -3.70786e-23)
(45.2323 0.118884 0)
(45.1798 0.0936225 -8.66415e-24)
(45.1419 0.0527388 -8.35796e-24)
(45.1191 -0.0439267 -3.05041e-24)
(45.1419 -0.0738661 2.68967e-24)
(45.1748 -0.0863234 1.36023e-24)
(45.225 -0.124632 7.7846e-25)
(45.292 -0.156221 -1.92974e-24)
(45.3955 -0.229165 2.04475e-23)
(45.5163 -0.290777 6.43868e-27)
(45.5757 -0.456932 -1.08347e-23)
(45.76 -0.723419 8.5323e-27)
(46.0025 -1.21391 -1.30406e-22)
(45.8983 -2.17607 -7.71357e-24)
(45.0581 -4.56595 2.9701e-24)
(45.8432 5.7551 2.56036e-23)
(46.7849 2.81399 -2.42088e-23)
(46.6641 1.46918 5.15113e-23)
(46.2533 0.862566 -9.8108e-24)
(45.9298 0.41522 3.23741e-23)
(45.6936 0.300729 3.29e-23)
(45.5005 0.186029 2.38374e-23)
(45.3693 0.137095 -1.18303e-23)
(45.2703 0.0859285 0)
(45.2068 0.0714225 0)
(45.1567 0.0436376 -9.73724e-29)
(45.131 -0.0397037 -5.50588e-25)
(45.1589 -0.0623933 -7.93343e-26)
(45.1954 -0.067153 -3.45039e-25)
(45.2535 -0.0959051 2.23819e-24)
(45.3311 -0.108137 3.0758e-24)
(45.4519 -0.158283 1.36211e-23)
(45.6058 -0.172666 3.72426e-23)
(45.7413 -0.308046 0)
(46.0638 -0.476004 0)
(46.6063 -0.773894 0)
(47.2967 -1.54858 -4.19311e-24)
(48.8522 -3.33827 6.69538e-25)
(50.4267 4.92073 0)
(48.4548 2.11974 0)
(47.3557 0.997243 0)
(46.6295 0.553909 1.05954e-23)
(46.0848 0.199285 0)
(45.7878 0.158741 -3.60853e-23)
(45.5607 0.0857732 -2.31413e-23)
(45.408 0.0696567 -2.15347e-24)
(45.2932 0.0392412 0)
(45.2221 0.0390823 4.75032e-25)
(45.1614 0.0289421 7.03466e-25)
(45.1378 -0.0334395 1.03861e-25)
(45.1689 -0.047822 -1.54228e-25)
(45.2061 -0.0442754 1.65015e-25)
(45.267 -0.0612441 8.23131e-25)
(45.347 -0.0520191 -1.94457e-24)
(45.4688 -0.0719844 -1.28583e-25)
(45.6303 -0.0358735 -4.35752e-24)
(45.8159 -0.101773 -1.72537e-25)
(46.1792 -0.101543 0)
(46.8004 -0.0613799 -1.164e-23)
(47.8261 -0.150869 1.82409e-29)
(49.9562 -0.23262 -1.60016e-24)
(52.4609 1.07167 -4.11045e-24)
(49.3448 0.44316 -1.45734e-23)
(47.6683 0.181104 -1.10833e-22)
(46.817 0.0866527 0)
(46.137 -0.0610645 -7.27445e-23)
(45.816 -0.0163533 0)
(45.5801 -0.0329278 -5.85851e-25)
(45.4185 -0.0109935 0)
(45.2964 -0.0157449 -3.65181e-25)
(45.2226 -0.000162096 3.7163e-27)
(45.1546 0.00988936 -1.14087e-24)
(45.1398 -0.0262012 0)
(45.1718 -0.0326849 -8.08771e-25)
(45.2069 -0.0219485 -7.57552e-25)
(45.2648 -0.0277521 -5.01042e-25)
(45.3389 -0.000666264 1.09592e-24)
(45.446 0.00703515 5.94364e-24)
(45.5884 0.0795641 1.81916e-23)
(45.7772 0.0904829 6.77671e-24)
(46.0708 0.236555 0)
(46.5246 0.544822 5.46882e-23)
(47.3258 1.06202 1.56338e-23)
(48.6816 2.35592 -9.32563e-25)
(51.432 -2.69233 -1.83558e-24)
(49.0288 -1.25473 2.45431e-23)
(47.4868 -0.640365 4.55826e-24)
(46.7523 -0.389732 6.37867e-23)
(46.0745 -0.303771 3.17595e-22)
(45.773 -0.189659 1.77084e-22)
(45.5544 -0.149556 -1.19253e-22)
(45.3985 -0.0933096 -8.40614e-23)
(45.2787 -0.0718473 4.60867e-24)
(45.2073 -0.0419317 1.99704e-24)
(45.1362 -0.0116685 -4.80103e-24)
(45.138 -0.0191105 1.14279e-25)
(45.1687 -0.0193672 4.40598e-25)
(45.1995 -0.00390254 6.9663e-25)
(45.2505 -0.0015174 -1.97075e-25)
(45.313 0.0359184 -2.03423e-32)
(45.3966 0.0611892 9.23931e-24)
(45.5037 0.147505 2.80934e-23)
(45.6566 0.211832 6.12847e-24)
(45.8234 0.421211 0)
(46.0064 0.810739 -1.69959e-23)
(46.3204 1.52876 -4.07761e-24)
(46.4886 3.02446 -1.87897e-24)
(48.8678 -4.37462 -8.38993e-25)
(47.9162 -2.23602 0)
(46.9648 -1.18582 -9.96918e-23)
(46.4881 -0.740531 8.09338e-23)
(45.9238 -0.482033 4.56864e-22)
(45.6741 -0.330172 3.00501e-22)
(45.4908 -0.246379 0)
(45.3522 -0.166317 -7.48744e-23)
(45.2423 -0.122402 -4.25156e-23)
(45.1776 -0.0817784 3.1887e-24)
(45.1074 -0.0336888 -4.06292e-24)
(45.1337 -0.0130671 0)
(45.1617 -0.00947368 1.59472e-25)
(45.1875 0.00776786 -1.87835e-25)
(45.2298 0.0143521 -5.10504e-25)
(45.2791 0.0539632 0)
(45.3386 0.0845541 -1.50245e-24)
(45.4096 0.164785 4.88101e-24)
(45.5098 0.2466 -3.58661e-25)
(45.5632 0.436266 1.25019e-24)
(45.5287 0.742031 7.84495e-24)
(45.435 1.29696 1.48214e-24)
(44.7801 2.26322 0)
(46.2984 -4.15567 -1.27428e-24)
(46.6721 -2.36104 8.19054e-24)
(46.3598 -1.36895 4.69491e-23)
(46.1402 -0.909472 5.55318e-24)
(45.732 -0.579637 2.02977e-22)
(45.5459 -0.421632 2.13424e-22)
(45.4031 -0.313599 0)
(45.2877 -0.222696 -1.03268e-24)
(45.1923 -0.162676 1.67412e-23)
(45.1367 -0.116326 9.43616e-24)
(45.0709 -0.0543566 3.30981e-25)
(45.1287 -0.00860392 0)
(45.1532 -0.00362007 0)
(45.1742 0.0127827 0)
(45.2083 0.019891 0)
(45.2464 0.0552304 -9.29493e-26)
(45.2874 0.0817611 1.62006e-25)
(45.3321 0.141127 -1.08656e-23)
(45.3604 0.219944 9.79273e-23)
(45.3786 0.341051 0)
(45.246 0.500397 0)
(45.0138 0.730424 1.59226e-23)
(44.1901 0.823754 8.36474e-23)
(30.9352 -0.989054 -1.51751e-24)
(44.8964 -2.48077 -1.66881e-22)
(45.799 -1.92997 -3.13473e-23)
(45.8721 -1.27886 -2.22197e-25)
(45.8124 -0.921495 -1.24363e-24)
(45.5419 -0.607641 -6.2146e-23)
(45.4142 -0.464223 8.1727e-24)
(45.3068 -0.350364 1.37483e-25)
(45.2145 -0.259877 -7.86435e-23)
(45.1349 -0.190875 0)
(45.0888 -0.143604 3.51754e-24)
(45.0294 -0.0723844 -8.36115e-24)
(45.1242 -0.00587975 0)
(45.1452 -0.0015702 -1.00401e-24)
(45.1625 0.0122204 -1.42521e-26)
(45.1903 0.0173316 0)
(45.2206 0.0450769 0)
(45.2508 0.0628042 -3.30669e-23)
(45.282 0.102316 9.80258e-24)
(45.3008 0.141512 1.394e-22)
(45.2847 0.213481 1.39729e-22)
(45.1766 0.254867 1.09546e-22)
(44.9909 0.272029 0)
(44.6131 0.0104049 -6.05396e-24)
(36.593 -0.868702 1.40212e-23)
(44.8603 -1.44034 -1.53649e-23)
(45.3805 -1.29207 1.5521e-23)
(45.5696 -1.06804 -1.64228e-23)
(45.4733 -0.755522 2.83265e-23)
(45.3815 -0.586934 -4.71008e-24)
(45.2949 -0.466504 -5.8759e-26)
(45.2131 -0.361591 -1.93054e-25)
(45.1415 -0.279468 0)
(45.0754 -0.20745 -3.48787e-23)
(45.0382 -0.163068 -4.06018e-23)
(44.9859 -0.0871695 -1.11987e-23)
(45.1212 -0.00478178 1.87778e-26)
(45.139 -0.00259126 -7.93325e-25)
(45.1539 0.00771395 1.98286e-24)
(45.1775 0.00953442 1.9605e-28)
(45.2038 0.0287365 -6.47948e-24)
(45.2291 0.036921 -2.26515e-23)
(45.2575 0.0571163 -9.13043e-23)
(45.2744 0.0730363 -1.53224e-22)
(45.2617 0.0988039 -2.96045e-23)
(45.2061 0.0742339 -5.05923e-24)
(45.1375 -0.0242067 0)
(45.0017 -0.187466 -4.47479e-24)
(37.8201 -0.76415 -3.58379e-23)
(45.0759 -0.868427 -6.12435e-24)
(45.2888 -0.956409 -4.85493e-24)
(45.408 -0.861166 -8.60989e-24)
(45.3376 -0.661209 -1.37569e-22)
(45.2617 -0.545815 0)
(45.1961 -0.446495 -1.89509e-23)
(45.1298 -0.355747 -4.90603e-24)
(45.0726 -0.284819 -1.54133e-24)
(45.0176 -0.21418 5.57755e-24)
(44.9877 -0.175021 0)
(44.9427 -0.0983784 0)
(45.1202 -0.00505026 6.05512e-27)
(45.1354 -0.00578953 9.86671e-26)
(45.1492 0.000853988 6.5724e-25)
(45.1704 -0.000924446 0)
(45.1957 0.0100653 -2.21393e-24)
(45.2202 0.0103879 0)
(45.2524 0.0134871 -2.23205e-23)
(45.2766 0.0152703 -3.20673e-24)
(45.306 -0.0178684 2.21576e-25)
(45.2664 -0.0351654 -3.36162e-24)
(45.2888 -0.14212 1.55531e-23)
(45.2081 -0.387739 -9.30239e-24)
(40.2674 -0.703524 -3.71063e-23)
(45.1655 -0.703585 2.75721e-24)
(45.2764 -0.732739 1.37668e-23)
(45.3242 -0.694365 4.66187e-24)
(45.2369 -0.572614 -6.95941e-23)
(45.1734 -0.490187 7.24462e-23)
(45.1162 -0.414248 0)
(45.0592 -0.338688 2.78579e-23)
(45.0114 -0.280222 -2.00113e-24)
(44.9645 -0.213592 6.842e-24)
(44.9397 -0.180844 0)
(44.9013 -0.106344 0)
(45.1213 -0.00637872 -4.74639e-26)
(45.1346 -0.0103178 1.41248e-25)
(45.1483 -0.00706192 -9.96328e-25)
(45.1684 -0.0120598 -7.57721e-25)
(45.1948 -0.00816765 0)
(45.221 -0.0131124 0)
(45.2601 -0.0216403 5.78701e-23)
(45.2951 -0.0288893 -8.9474e-24)
(45.348 -0.070897 7.82134e-24)
(45.348 -0.111971 -2.6061e-23)
(45.3913 -0.189151 0)
(45.1388 -0.321431 -1.95428e-23)
(40.7331 -0.692439 -1.20895e-22)
(45.2715 -0.513636 1.71452e-23)
(45.2666 -0.535202 4.61353e-23)
(45.2606 -0.517539 9.83529e-23)
(45.1763 -0.490494 5.74679e-23)
(45.1124 -0.429304 6.19315e-23)
(45.054 -0.377423 -9.09973e-24)
(45.0015 -0.315111 -5.82181e-24)
(44.9585 -0.269156 -1.35826e-23)
(44.9171 -0.207837 -4.88056e-23)
(44.8957 -0.181766 6.82616e-25)
(44.8629 -0.111404 -2.27572e-24)
(45.1244 -0.00848002 -6.26396e-25)
(45.1364 -0.0154891 1.61913e-25)
(45.1506 -0.0151243 -1.01568e-24)
(45.1705 -0.0225972 -1.72143e-24)
(45.1992 -0.0244659 0)
(45.2278 -0.0319615 0)
(45.2746 -0.0487268 7.00727e-23)
(45.3164 -0.0545952 2.66792e-24)
(45.3947 -0.110934 -1.08879e-23)
(45.3926 -0.0928102 -3.02442e-23)
(45.5161 -0.303428 0)
(43.5615 -0.0121015 -2.36287e-23)
(42.8449 -0.618902 -1.68561e-24)
(45.3964 -0.312394 1.0089e-23)
(45.2568 -0.492058 5.33492e-24)
(45.2537 -0.424768 -2.52474e-23)
(45.1424 -0.427164 -1.79829e-23)
(45.0713 -0.375336 1.05951e-23)
(45.0068 -0.342102 -3.38574e-24)
(44.9554 -0.289187 -4.74359e-23)
(44.9139 -0.254699 -1.50333e-23)
(44.876 -0.198866 -6.36942e-23)
(44.8563 -0.17909 0)
(44.8281 -0.114058 -9.00382e-24)
(45.1293 -0.0111228 -6.54784e-25)
(45.1403 -0.0208202 -6.15378e-25)
(45.1556 -0.0228197 0)
(45.1756 -0.0319156 -1.1556e-24)
(45.2071 -0.0385144 0)
(45.2378 -0.0461594 -3.79483e-23)
(45.292 -0.0703326 -5.47543e-24)
(45.3371 -0.0686703 6.4911e-24)
(45.4317 -0.142333 -9.13835e-24)
(45.4339 -0.0884281 -1.01388e-23)
(45.5272 -0.318522 -4.40393e-24)
(43.6441 -0.0505417 -9.66495e-23)
(42.9184 -0.503775 3.67287e-23)
(45.3864 -0.235871 -9.77749e-24)
(45.2649 -0.439764 -4.81357e-24)
(45.2486 -0.346025 -1.44494e-24)
(45.1176 -0.377619 -9.10554e-24)
(45.0417 -0.327162 -1.20907e-23)
(44.9704 -0.30996 -2.68643e-23)
(44.9188 -0.263162 -6.49759e-24)
(44.8765 -0.238912 -3.88282e-24)
(44.8409 -0.188105 -2.08899e-23)
(44.8216 -0.173984 -8.98996e-24)
(44.7971 -0.114776 -4.01907e-24)
(45.1357 -0.0141402 0)
(45.1461 -0.026007 -1.34621e-24)
(45.1625 -0.0299131 -8.93503e-25)
(45.1828 -0.0397781 -6.98171e-25)
(45.2173 -0.0504135 6.01456e-24)
(45.2496 -0.0562818 -4.24651e-23)
(45.3102 -0.0875292 0)
(45.3581 -0.0761023 -1.01133e-23)
(45.4618 -0.163231 0)
(45.4756 -0.0866725 0)
(45.5486 -0.311848 -9.81676e-26)
(43.7043 -0.0643723 1.96814e-25)
(42.98 -0.431492 1.61e-23)
(45.3962 -0.188197 -6.11929e-24)
(45.2807 -0.391898 -2.30824e-24)
(45.2446 -0.28396 -2.34967e-24)
(45.1007 -0.337522 2.25714e-24)
(45.0202 -0.284266 -5.3983e-24)
(44.942 -0.281425 -7.41071e-24)
(44.8895 -0.238116 1.2096e-23)
(44.8453 -0.222998 -3.93105e-24)
(44.8111 -0.17651 0)
(44.7915 -0.16734 1.76092e-28)
(44.7699 -0.113962 0)
(45.1432 -0.0174211 0)
(45.1531 -0.0308777 -1.68463e-24)
(45.1709 -0.0363298 -9.98546e-25)
(45.1914 -0.0461661 2.03733e-24)
(45.2288 -0.0603509 0)
(45.2623 -0.0630678 1.69089e-24)
(45.3281 -0.100722 -3.1454e-23)
(45.3789 -0.0792718 -2.03255e-23)
(45.4872 -0.175372 -1.74616e-24)
(45.5119 -0.0838978 5.3758e-26)
(45.5687 -0.299477 1.27131e-23)
(43.7367 -0.0699444 -1.11983e-23)
(43.0154 -0.37784 2.00513e-23)
(45.4096 -0.154459 -3.14695e-24)
(45.2957 -0.352523 4.90259e-24)
(45.2422 -0.235712 -7.58858e-25)
(45.0901 -0.304671 -4.09461e-24)
(45.0044 -0.246942 3.65736e-24)
(44.9199 -0.256608 9.09397e-24)
(44.8662 -0.214704 -1.77715e-28)
(44.8194 -0.207701 -1.89476e-24)
(44.786 -0.164716 -1.31469e-23)
(44.7655 -0.159812 6.80257e-24)
(44.7461 -0.11195 6.21137e-24)
(45.1516 -0.0208989 -1.00996e-24)
(45.1612 -0.0353592 -1.92007e-24)
(45.1801 -0.0420948 -3.25558e-32)
(45.2008 -0.0512084 4.49013e-24)
(45.2408 -0.0685693 1.1586e-23)
(45.2752 -0.0673126 1.04335e-24)
(45.345 -0.110566 -3.0101e-23)
(45.3985 -0.0798673 -1.87424e-23)
(45.5086 -0.181806 1.02686e-23)
(45.5417 -0.0810267 0)
(45.5839 -0.285689 2.56055e-24)
(43.7566 -0.071668 -4.04505e-24)
(43.0373 -0.336269 5.75391e-24)
(45.4202 -0.12886 -2.45983e-24)
(45.3082 -0.319392 -2.06299e-29)
(45.2408 -0.197556 -7.00029e-24)
(45.0834 -0.277413 -3.39583e-24)
(44.9925 -0.214887 -8.06443e-25)
(44.9026 -0.23523 4.9672e-24)
(44.8475 -0.193264 -7.2167e-24)
(44.7978 -0.193433 -1.13872e-23)
(44.765 -0.153131 -5.56361e-24)
(44.7432 -0.151881 -5.8782e-24)
(44.7256 -0.109005 5.41659e-24)
(45.1604 -0.0245355 -1.36429e-32)
(45.1697 -0.0394483 -1.03263e-24)
(45.1899 -0.0472818 1.17375e-24)
(45.2106 -0.0551125 2.34382e-24)
(45.2529 -0.075338 1.1175e-27)
(45.288 -0.0697254 0)
(45.3605 -0.117759 -9.1457e-25)
(45.4165 -0.0790231 -1.70263e-23)
(45.5266 -0.184432 8.59884e-24)
(45.5666 -0.0781863 0)
(45.5959 -0.271593 -9.54226e-29)
(43.7693 -0.0710257 3.03817e-24)
(43.0515 -0.303634 -6.46221e-24)
(45.4294 -0.109177 0)
(45.3187 -0.291374 5.58946e-25)
(45.2398 -0.167106 2.37085e-24)
(45.079 -0.254546 0)
(44.9832 -0.187509 1.733e-24)
(44.8889 -0.216867 1.60511e-24)
(44.8323 -0.173892 -1.86916e-23)
(44.7798 -0.180365 -4.7938e-24)
(44.7472 -0.142003 4.72402e-24)
(44.724 -0.143865 -6.06949e-24)
(44.7077 -0.105342 0)
(45.1696 -0.0283138 1.10712e-24)
(45.1786 -0.0431799 -1.06741e-24)
(45.1998 -0.0519848 0)
(45.2206 -0.0581062 7.40425e-25)
(45.2646 -0.080915 2.82234e-24)
(45.3003 -0.0708769 2.5555e-25)
(45.3746 -0.122888 0)
(45.433 -0.0774153 -2.41319e-25)
(45.5421 -0.184524 7.3149e-24)
(45.5877 -0.0754815 0)
(45.6056 -0.258094 1.77605e-24)
(43.7767 -0.0690462 1.19287e-24)
(43.0598 -0.277395 -4.24036e-24)
(45.4372 -0.0937949 4.3623e-25)
(45.3276 -0.267715 -1.47007e-24)
(45.2393 -0.142694 1.78238e-25)
(45.0763 -0.23522 1.20199e-24)
(44.9759 -0.164219 -5.20421e-25)
(44.8781 -0.201097 1.42862e-25)
(44.8199 -0.15656 -6.75095e-24)
(44.7647 -0.168546 2.59719e-24)
(44.7321 -0.13147 2.71206e-24)
(44.7075 -0.135982 -9.76928e-25)
(44.6923 -0.101128 -5.22525e-25)
(45.1787 -0.0322242 -1.23178e-25)
(45.1875 -0.0466095 -1.39419e-24)
(45.2096 -0.0562944 -2.719e-25)
(45.2303 -0.0604034 0)
(45.2758 -0.085531 2.14271e-23)
(45.3121 -0.0712082 0)
(45.3874 -0.126442 -1.209e-23)
(45.448 -0.0754794 0)
(45.5555 -0.182994 6.02908e-24)
(45.6054 -0.0730437 3.7769e-24)
(45.6126 -0.245546 0)
(43.7798 -0.0666153 9.33795e-25)
(43.0641 -0.256032 0)
(45.4436 -0.0816916 3.50156e-25)
(45.3351 -0.247598 -3.96381e-25)
(45.2388 -0.123039 0)
(45.0745 -0.218782 0)
(44.9699 -0.144495 -4.34902e-25)
(44.8693 -0.187549 6.17536e-25)
(44.8095 -0.141186 0)
(44.7518 -0.157935 0)
(44.7192 -0.121603 2.36597e-24)
(44.6932 -0.128367 4.73416e-25)
(44.6787 -0.0964981 -1.82181e-24)
(45.1876 -0.0362582 1.27388e-25)
(45.1963 -0.0497951 1.00173e-25)
(45.219 -0.0602909 0)
(45.2398 -0.0621943 -2.17881e-25)
(45.2864 -0.0893835 1.05233e-23)
(45.3231 -0.0710475 -7.97704e-26)
(45.3989 -0.128825 -1.04851e-23)
(45.4615 -0.0735056 -2.87569e-25)
(45.5672 -0.180511 0)
(45.6205 -0.0708176 3.90011e-24)
(45.6173 -0.234131 0)
(43.7795 -0.0644346 0)
(43.066 -0.238395 0)
(45.4491 -0.0719486 2.56308e-24)
(45.3412 -0.230331 4.41279e-24)
(45.2384 -0.107189 0)
(45.0733 -0.204728 -1.37448e-25)
(44.9647 -0.12788 0)
(44.862 -0.175901 0)
(44.8007 -0.127655 0)
(44.7409 -0.148463 0)
(44.7081 -0.11246 -2.31563e-24)
(44.6807 -0.121106 -1.80588e-24)
(44.6667 -0.0915852 3.33129e-29)
(45.1962 -0.0404017 0)
(45.2047 -0.0527865 5.04008e-25)
(45.2281 -0.0640355 -1.0163e-24)
(45.2488 -0.0636273 1.06532e-24)
(45.2962 -0.092634 9.70031e-24)
(45.3335 -0.0706307 1.92428e-23)
(45.4093 -0.130363 0)
(45.4736 -0.0716863 0)
(45.5775 -0.177564 5.74462e-25)
(45.6334 -0.0689012 -2.63377e-25)
(45.6207 -0.224005 -1.0508e-31)
(43.777 -0.062539 1.32868e-24)
(43.0653 -0.223471 7.35234e-24)
(45.4538 -0.0639905 2.10061e-24)
(45.3463 -0.215734 1.2505e-25)
(45.2379 -0.0943472 0)
(45.0724 -0.192725 -3.07492e-24)
(44.9602 -0.113892 -4.2471e-24)
(44.8558 -0.165892 0)
(44.7929 -0.115793 -4.10565e-24)
(44.7313 -0.140057 -3.4435e-39)
(44.6981 -0.104027 5.64627e-24)
(44.6695 -0.114264 3.41247e-24)
(44.6559 -0.0864774 2.76594e-24)
(45.2043 -0.0446306 -1.1081e-24)
(45.2127 -0.0556163 3.86134e-25)
(45.2366 -0.0675665 -5.05694e-25)
(45.2573 -0.0648163 2.00176e-24)
(45.3052 -0.0954072 8.51153e-24)
(45.3431 -0.0701244 3.5486e-23)
(45.4186 -0.131301 0)
(45.4846 -0.0700994 0)
(45.5866 -0.174449 4.97737e-25)
(45.6446 -0.0673471 0)
(45.6231 -0.215089 0)
(43.773 -0.0610102 0)
(43.0625 -0.210832 0)
(45.4577 -0.0575698 -1.70307e-24)
(45.3505 -0.203389 -3.02206e-24)
(45.2375 -0.0839571 -2.64995e-24)
(45.0716 -0.182503 -5.01761e-24)
(44.9562 -0.102182 -3.616e-24)
(44.8505 -0.157321 0)
(44.7861 -0.105472 -9.82412e-25)
(44.7227 -0.132651 0)
(44.6892 -0.0963079 0)
(44.6594 -0.107885 1.59512e-24)
(44.6459 -0.0812664 1.32135e-24)
(45.2117 -0.0489069 -8.24889e-25)
(45.2201 -0.0582992 -5.68953e-25)
(45.2444 -0.0708982 -2.13149e-25)
(45.2653 -0.0658381 1.21872e-25)
(45.3135 -0.0977949 -2.28167e-32)
(45.352 -0.0696467 1.63569e-23)
(45.4271 -0.13183 0)
(45.4946 -0.0687817 -6.80429e-25)
(45.5947 -0.171354 7.31329e-25)
(45.6544 -0.0661634 2.99945e-25)
(45.6246 -0.207292 3.8192e-24)
(43.7677 -0.0598949 9.10135e-25)
(43.058 -0.200158 2.61327e-24)
(45.4609 -0.0524865 0)
(45.354 -0.192971 0)
(45.237 -0.0756128 4.33185e-26)
(45.071 -0.173854 2.11374e-24)
(44.9526 -0.092467 1.34541e-29)
(44.8457 -0.150042 -1.78993e-24)
(44.7798 -0.0965854 0)
(44.715 -0.126191 0)
(44.6809 -0.0893192 5.81151e-25)
(44.6501 -0.102013 0)
(44.6365 -0.0760452 0)
(45.2184 -0.0531738 0)
(45.227 -0.0608193 -8.06252e-25)
(45.2516 -0.0740196 -6.22218e-25)
(45.2728 -0.0667299 -9.15795e-25)
(45.3211 -0.0998584 0)
(45.3603 -0.0692629 0)
(45.4347 -0.132081 0)
(45.5037 -0.0677687 -9.88235e-25)
(45.602 -0.168428 0)
(45.6632 -0.0653573 -1.1581e-25)
(45.6256 -0.200533 1.64773e-24)
(43.7615 -0.0592209 3.39021e-25)
(43.0522 -0.191195 2.18283e-24)
(45.4635 -0.0485899 2.10241e-24)
(45.3571 -0.18425 2.08192e-24)
(45.2364 -0.0690231 0)
(45.0703 -0.166619 -1.75756e-24)
(44.949 -0.0845242 -2.05381e-24)
(44.8414 -0.14395 0)
(44.7738 -0.0890475 0)
(44.7079 -0.120653 0)
(44.673 -0.0830884 5.56912e-25)
(44.6413 -0.0967032 0)
(44.6273 -0.070917 0)
(45.2243 -0.0573444 6.70501e-26)
(45.2332 -0.0631355 -5.41598e-25)
(45.258 -0.0768856 1.85864e-25)
(45.2798 -0.0675019 0)
(45.3281 -0.101619 9.65333e-25)
(45.3681 -0.0689507 -2.51735e-25)
(45.4417 -0.132132 0)
(45.5121 -0.0670485 -4.49346e-25)
(45.6086 -0.165744 6.22716e-25)
(45.6711 -0.0649092 2.38678e-25)
(45.626 -0.19474 -7.16361e-26)
(43.7545 -0.0589792 2.25764e-25)
(43.0453 -0.183755 3.59704e-24)
(45.4657 -0.0457769 2.39491e-26)
(45.3597 -0.177063 -2.2032e-26)
(45.2356 -0.0639773 1.33418e-24)
(45.0696 -0.160689 2.75349e-26)
(44.9456 -0.0781834 -1.3807e-25)
(44.8374 -0.138968 0)
(44.768 -0.0827989 -1.40343e-24)
(44.7011 -0.116025 -1.14587e-24)
(44.6652 -0.0776594 0)
(44.6327 -0.0920275 1.48091e-24)
(44.6181 -0.0660028 6.2577e-25)
(45.2292 -0.0612844 0)
(45.2388 -0.0651707 -3.88373e-25)
(45.2637 -0.0794296 -2.50012e-25)
(45.2863 -0.0681625 -3.74942e-26)
(45.3343 -0.103087 0)
(45.3755 -0.068726 6.48131e-24)
(45.4479 -0.132063 -1.34771e-24)
(45.5199 -0.0666027 -4.29002e-25)
(45.6146 -0.163359 -5.43657e-25)
(45.6785 -0.0647891 -1.51764e-25)
(45.6261 -0.189859 1.10796e-24)
(43.7471 -0.0591441 2.38496e-25)
(43.0376 -0.177729 1.43998e-24)
(45.4675 -0.0439686 1.81412e-26)
(45.362 -0.1713 -1.3441e-24)
(45.2347 -0.0603181 -9.83068e-25)
(45.069 -0.155987 5.43161e-26)
(44.9421 -0.0733223 -1.39921e-25)
(44.8337 -0.135056 0)
(44.7623 -0.0778186 -9.81733e-25)
(44.6947 -0.112334 -9.12304e-25)
(44.6575 -0.0731127 0)
(44.6242 -0.0880897 4.44936e-25)
(44.6087 -0.0614649 -6.53804e-25)
(45.2331 -0.0648164 -2.171e-25)
(45.244 -0.0668308 2.9699e-25)
(45.2687 -0.0815621 -7.00101e-25)
(45.2928 -0.0686583 -2.69898e-26)
(45.3399 -0.104245 6.799e-25)
(45.3829 -0.0685802 6.38364e-24)
(45.4535 -0.131921 -5.79463e-25)
(45.5278 -0.0663967 -2.06372e-25)
(45.62 -0.161297 -4.58235e-25)
(45.6856 -0.0648876 -2.74054e-25)
(45.6258 -0.185763 -9.70044e-25)
(43.7392 -0.0596095 -3.94818e-26)
(43.0292 -0.173114 -1.08092e-24)
(45.4688 -0.0431614 0)
(45.3643 -0.166906 -9.97046e-25)
(45.2335 -0.0579143 -6.65675e-25)
(45.0685 -0.152447 2.46402e-26)
(44.9382 -0.0698315 0)
(44.8302 -0.132169 7.13681e-26)
(44.7562 -0.0740811 1.122e-25)
(44.6884 -0.109581 -6.76132e-25)
(44.6492 -0.069529 -9.42944e-25)
(44.6156 -0.084989 3.04119e-25)
(44.5983 -0.0574968 0)
(45.2356 -0.0675201 -8.99711e-26)
(45.2484 -0.0679115 2.60578e-25)
(45.2724 -0.0830527 -2.02119e-25)
(45.2986 -0.0689239 0)
(45.3442 -0.105004 0)
(45.3897 -0.0685134 -1.4498e-24)
(45.4578 -0.131734 4.23882e-25)
(45.5349 -0.0664216 -1.37528e-25)
(45.6242 -0.159722 -6.62093e-25)
(45.692 -0.0652237 -7.6727e-26)
(45.6253 -0.18273 6.97447e-25)
(43.7319 -0.0603415 0)
(43.0214 -0.169945 0)
(45.4698 -0.0431305 0)
(45.3666 -0.16391 0)
(45.2319 -0.0566774 -3.97504e-26)
(45.0684 -0.150115 0)
(44.9344 -0.067745 0)
(44.8275 -0.130353 5.96999e-26)
(44.7504 -0.0717243 0)
(44.6832 -0.107873 0)
(44.6415 -0.0671642 0)
(44.608 -0.0829692 2.72603e-25)
(44.5886 -0.0545383 0)
(45.2374 -0.0694061 0)
(45.2554 -0.0685393 -4.49521e-26)
(45.2762 -0.0840113 -1.39982e-25)
(45.3086 -0.0690532 -7.16775e-27)
(45.3485 -0.105485 1.68731e-25)
(45.4016 -0.068542 -2.81546e-24)
(45.462 -0.131551 1.3857e-26)
(45.5473 -0.0665727 1.29836e-28)
(45.6283 -0.158417 3.33652e-32)
(45.702 -0.0649813 -1.25046e-29)
(45.6236 -0.179224 8.11452e-25)
(43.7224 -0.0603744 0)
(43.011 -0.169053 1.30129e-25)
(45.4692 -0.0448757 -3.81967e-25)
(45.3706 -0.162225 -3.2173e-25)
(45.2277 -0.0563017 -2.40288e-25)
(45.0701 -0.14865 0)
(44.9266 -0.0666466 0)
(44.8253 -0.129269 0)
(44.7399 -0.0703857 0)
(44.6765 -0.106893 0)
(44.6283 -0.0657488 0)
(44.5969 -0.0817821 1.91258e-25)
(44.5719 -0.0525386 0)
(48.5305 -3.67944 9.29451e-25)
(50.1988 5.78728 3.24703e-24)
(45.4271 6.42678 1.46844e-23)
(49.9547 -0.636481 -1.57215e-24)
(52.8361 1.71626 -6.00503e-25)
(50.7171 5.37268 -2.70059e-24)
(48.9314 2.13445 -8.68002e-25)
(52.0114 -2.48222 -6.71464e-24)
(52.9321 1.13312 -1.99689e-24)
(46.7545 3.0322 -2.61033e-24)
(49.2438 -4.60142 1.01562e-23)
(51.7096 -2.87833 0)
(44.9428 2.41097 2.69955e-28)
(46.398 -4.58482 -7.24943e-24)
(48.8687 -4.71587 6.58689e-24)
(44.1895 0.993328 0)
(35.0587 -0.377906 -1.10089e-24)
(30.4605 -1.07609 3.11109e-24)
(44.7126 -2.93562 3.46446e-23)
(46.0902 -4.44898 -1.10211e-23)
(44.5421 -4.34071 7.29277e-24)
(41.1008 -0.0723516 1.9049e-24)
(44.7805 6.06691 2.06933e-23)
(43.2052 2.84055 4.49649e-23)
(47 -1.81682 -5.24434e-24)
(48.3063 -3.28067 2.65345e-25)
(45.3991 -4.07475 -9.93881e-24)
(48.1163 10.6875 0)
(42.4437 9.87107 -1.17729e-23)
(49.9599 5.27935 0)
(48.3245 2.95342 5.09041e-25)
(46.7194 3.32915 -6.09297e-23)
(47.7995 -0.519531 5.75602e-24)
(49.6408 -0.57708 -1.43535e-24)
(48.6014 -2.97815 3.04275e-25)
(49.5587 -2.22445 -2.76749e-25)
(50.9876 -2.69043 2.54751e-25)
(50.1047 -4.56819 -2.78845e-25)
(53.5598 5.12555 2.68698e-24)
(52.0295 7.81625 1.14523e-24)
(52.3758 1.60599 2.41415e-25)
(49.7107 1.14336 -1.74834e-23)
(48.792 2.60403 6.69748e-24)
(47.5255 0.817854 1.16137e-23)
(48.7719 1.88644 7.65029e-25)
(49.6483 -0.207039 -1.64016e-27)
(49.7167 0.923935 9.64064e-29)
(51.0467 1.59896 -1.5126e-24)
(51.46 -0.334988 -1.80412e-26)
(53.8959 -2.0192 1.0899e-25)
(54.4154 1.52595 -2.25161e-24)
(51.6864 -2.32687 -8.06653e-24)
(49.6106 -0.992121 2.38007e-24)
(49.8266 0.585384 -1.79867e-23)
(46.5814 1.48706 -1.0211e-23)
(46.7856 2.76414 1.36877e-24)
(48.5471 2.09759 0)
(47.8683 2.82094 0)
(48.1491 4.00774 -5.12444e-25)
(49.5089 3.39502 -6.97097e-26)
(49.7255 -5.66994 -2.27846e-25)
(51.8814 -4.26456 2.2435e-24)
(49.2127 -4.2693 4.33573e-28)
(48.407 -2.37766 3.22771e-23)
(49.3817 -1.43496 2.80318e-23)
(45.9727 -6.48576 -8.68075e-25)
(47.7612 -6.34385 -1.03501e-25)
(46.5872 -4.28117 4.60569e-24)
(46.9171 -2.71899 0)
(48.0296 -2.55677 0)
(42.9213 -4.76929 8.01226e-25)
(44.1604 -5.91807 0)
(44.4751 0.106089 0)
(37.735 -0.166175 1.55446e-23)
(35.3329 -0.43718 8.73407e-28)
(35.0968 -1.03442 4.98262e-24)
(44.5099 -1.59221 0)
(44.6352 -2.70234 0)
(49.9364 -4.84411 2.13885e-25)
(48.0167 -6.70548 1.39691e-24)
(47.2773 -4.49287 8.60796e-24)
(48.136 -7.12671 3.9042e-25)
(50.0959 -5.04082 9.58231e-25)
(43.2074 -7.61958 1.64759e-23)
(47.707 -7.42898 1.79248e-24)
(51.8895 7.99763 -1.36305e-25)
(48.4899 10.5091 -1.67618e-25)
(48.3216 6.72211 -2.93636e-24)
(48.6424 9.86345 -2.97348e-25)
(51.7364 7.76538 8.02256e-26)
(51.4447 -0.606268 2.34323e-25)
(51.0724 -2.42669 0)
(49.7146 -1.83231 3.79877e-25)
(51.159 -2.5951 8.88841e-27)
(51.5381 -0.504809 7.06205e-28)
(50.2822 -4.74534 -4.64484e-25)
(51.1186 -2.73036 9.68187e-27)
(54.3744 1.80173 -3.2505e-24)
(53.639 4.93314 6.00445e-24)
(52.2303 3.40408 -4.99806e-25)
(53.5925 4.65206 -8.06338e-25)
(54.4013 2.0916 1.53144e-24)
(51.8862 7.59585 1.037e-24)
(53.5102 4.84964 2.9375e-24)
(51.9294 3.93254 -4.8959e-25)
(49.6881 3.26312 0)
(50.9055 1.85074 -1.27746e-24)
(49.5615 1.27389 2.90626e-25)
(51.0429 2.0616 -1.05855e-25)