/*--------------------------------*- C++ -*----------------------------------*\
| =========                 |                                                 |
| \\      /  F ield         | OpenFOAM: The Open Source CFD Toolbox           |
|  \\    /   O peration     | Version:  5.x                                   |
|   \\  /    A nd           | Web:      www.OpenFOAM.org                      |
|    \\/     M anipulation  |                                                 |
\*---------------------------------------------------------------------------*/
FoamFile
{
    version     2.0;
    format      ascii;
    class       volScalarField;
    location    "400";
    object      p;
}
// * * * * * * * * * * * * * * * * * * * * * * * * * * * * * * * * * * * * * //

dimensions      [0 2 -2 0 0 0 0];

internalField   nonuniform List<scalar> 
6584
(
31.4162
30.2887
29.3035
28.7379
28.5307
28.798
29.5165
30.7145
32.0565
33.3162
33.505
31.5634
26.698
19.0752
9.79095
0.186589
-8.68307
-16.513
-23.1384
-28.6906
-33.2986
-37.1984
-40.3756
-43.2802
31.1721
30.1109
29.0749
28.4946
28.2474
28.5111
29.2588
30.6159
32.2117
33.9121
34.5591
32.9424
27.9963
19.8945
10.0432
-0.159037
-9.30572
-17.2378
-23.8222
-29.2891
-33.7858
-37.6207
-40.6927
-43.6698
30.6452
29.5942
28.4605
27.8049
27.4525
27.6803
28.5022
30.3035
32.4734
34.9262
37.9656
38.3669
34.256
25.2984
13.6317
-1.40211
-11.2129
-19.3407
-25.7657
-30.9422
-35.1286
-38.7291
-41.5758
-44.5029
29.9555
28.8392
27.5589
26.7453
26.1935
26.2611
27.1022
29.3311
33.0339
37.1733
43.3463
47.1098
43.6167
31.3249
15.3847
0.699961
-14.5023
-22.8199
-28.8336
-33.4487
-37.1212
-40.3109
-42.8331
-45.567
29.1606
27.9068
26.4244
25.3375
24.4423
24.0924
24.6388
26.8723
30.6614
38.6342
49.6633
60.5548
58.9617
39.3326
15.0598
-3.8333
-16.5138
-28.2225
-33.2734
-36.7831
-39.6729
-42.2424
-44.3418
-46.7484
28.3117
26.851
25.1117
23.615
22.1834
20.9326
20.6462
21.6929
26.444
35.2926
52.2486
82.7619
94.4637
56.7883
9.52218
-14.2033
-26.2237
-35.3722
-38.8463
-40.791
-42.6403
-44.3902
-45.9808
-47.9369
27.4812
25.7608
23.7337
21.7253
19.6217
17.1671
15.484
15.2079
15.9162
21.7776
43.4693
101.326
185.499
61.704
-5.45564
-34.4865
-40.4457
-44.5826
-45.3188
-45.2064
-45.7723
-46.5467
-47.5783
-48.9918
26.7488
24.7493
22.4469
19.9035
17.0754
13.3003
9.58837
7.10293
1.19201
-4.72149
-2.11732
27.7913
-20.9713
-62.3121
-66.2634
-59.1449
-54.7478
-51.9366
-49.5111
-48.6851
-48.4396
-48.9274
-49.762
26.1855
23.9326
21.422
18.4355
14.9983
10.1426
4.48667
-0.752975
-13.5873
-35.0158
-67.053
-148.654
-246.079
-142.173
-100.789
-77.6819
-63.6423
-57.3555
-52.9301
-50.888
-49.7632
-49.8146
-50.1109
25.8384
23.4041
20.804
17.5858
13.8584
8.58636
1.94011
-5.11364
-21.0761
-49.4542
-97.0664
-206.528
-353.009
-190.781
-120.813
-88.8916
-68.5796
-60.1286
-54.6681
-51.914
-50.2466
-50.0592
-49.9399
25.7175
23.2046
20.6554
17.4747
13.8716
9.00476
2.74354
-4.32357
-17.9507
-40.7286
-78.2042
-152.111
-310.987
-182.303
-117.274
-88.3969
-67.9446
-59.4661
-54.2815
-51.5013
-49.7425
-49.5638
-49.2116
25.792
23.3074
20.9284
18.0193
14.8862
11.0342
6.25157
0.772247
-6.95831
-17.0018
-30.7496
-45.1294
-186.143
-131.544
-94.6414
-77.371
-62.1675
-55.6398
-51.861
-49.7021
-48.2803
-48.3454
-47.9621
25.9992
23.6275
21.4843
18.9761
16.4751
13.8254
10.889
7.6824
5.9079
7.5621
14.3152
43.1307
-54.9432
-70.3038
-65.0345
-60.9704
-53.3079
-49.7944
-47.9621
-46.8443
-46.0656
-46.5266
-46.2908
26.2638
24.0532
22.1503
20.0548
18.1561
16.5434
15.1507
15.6531
15.4999
23.7447
37.0527
76.9649
160.994
22.0669
-24.761
-39.4946
-44.7139
-43.7836
-43.292
-43.3447
-43.3953
-43.3687
-44.2955
-44.3318
26.5164
24.4784
22.7735
21.0168
19.5587
18.5938
18.0857
19.1324
20.81
28.3719
39.934
59.5253
64.1521
29.1582
-5.93235
-22.9266
-31.3096
-35.1543
-37.159
-38.6796
-39.7878
-40.4674
-41.8498
-42.2228
26.7055
24.8254
23.2552
21.7328
20.5274
19.8718
19.6571
20.9318
22.5172
27.4108
34.608
39.8591
33.3049
18.4708
0.785201
-13.9052
-24.1068
-28.6801
-32.0019
-34.4273
-36.3409
-37.6106
-39.3724
-40.0986
26.8013
25.0507
23.5518
22.1672
21.0544
20.4845
20.1713
21.271
22.399
24.2591
26.6166
25.8458
25.7274
15.0546
1.73434
-9.30966
-18.5101
-23.8284
-27.7885
-30.7607
-33.2205
-34.928
-36.983
-38.0373
26.7922
25.1391
23.6586
22.3364
21.1968
20.5588
19.947
20.4115
20.7245
21.9469
20.9349
21.5597
13.99
10.0137
-0.772237
-8.52547
-14.7047
-20.3632
-24.4465
-27.7197
-30.4947
-32.5094
-34.7598
-36.1005
26.6805
25.0953
23.5949
22.285
21.0478
20.2738
19.3019
19.2565
18.2681
19.1713
13.733
18.2514
13.1627
1.48975
-0.338953
-8.04425
-12.9125
-18.0871
-21.9233
-25.281
-28.18
-30.3932
-32.7528
-34.3305
26.4771
24.9362
23.3928
22.0697
20.7046
19.7986
18.4785
18.1652
16.3155
17.1017
12.5238
14.1484
10.2093
1.72156
-0.567176
-7.71287
-11.6148
-16.4564
-19.9923
-23.3348
-26.2371
-28.5717
-30.9758
-32.7432
26.197
24.6838
23.0858
21.74
20.2385
19.2262
17.5999
17.1099
14.7621
15.0912
10.9197
10.5905
7.2154
1.15084
-1.18415
-7.44672
-10.6708
-15.2482
-18.4835
-21.7735
-24.6109
-27.0184
-29.4214
-31.3376
25.8567
24.36
22.7033
21.3344
19.7001
18.6048
16.7259
16.0784
13.4358
13.3099
9.40616
8.42009
5.33672
0.357085
-1.82346
-7.29963
-10.0553
-14.358
-17.3034
-20.5196
-23.2524
-25.7012
-28.0727
-30.104
25.4722
23.9854
22.2713
20.8828
19.128
17.9694
15.8969
15.1164
12.3247
11.8669
8.23519
6.88856
4.03394
-0.243588
-2.34072
-7.21044
-9.64573
-13.6859
-16.3751
-19.508
-22.1171
-24.5867
-26.9079
-29.0271
25.0583
23.578
21.8108
20.4084
18.5498
17.3442
15.132
14.2423
11.3933
10.6821
7.28588
5.70116
3.02565
-0.730208
-2.76734
-7.14891
-9.36004
-13.1618
-15.6353
-18.6836
-21.1651
-23.6425
-25.9032
-28.0887
24.628
23.1531
21.3387
19.9278
17.9834
16.7432
14.4353
13.4545
10.6024
9.69358
6.50429
4.78
2.23709
-1.13646
-3.12292
-7.10442
-9.15537
-12.7428
-15.0376
-18.0035
-20.3619
-22.8384
-25.0347
-27.2695
24.1925
22.7227
20.8679
19.453
17.4403
16.1745
13.8057
12.7486
9.92662
8.86422
5.84875
4.04912
1.61499
-1.4646
-3.41349
-7.06851
-9.00414
-12.4004
-14.5484
-17.435
-19.6786
-22.1483
-24.2801
-26.5508
23.7613
22.2968
20.4081
18.9924
16.9273
15.642
13.2391
12.1183
9.34627
8.16919
5.29823
3.46648
1.1343
-1.72956
-3.64953
-7.03743
-8.88842
-12.1139
-14.1415
-16.9529
-19.0921
-21.5507
-23.6203
-25.915
23.3422
21.8828
19.9664
18.5517
16.4478
15.1471
12.7304
11.5567
8.84307
7.58205
4.83823
2.99898
0.744668
-1.96
-3.83979
-7.00458
-8.79073
-11.8643
-13.7936
-16.5341
-18.5805
-21.0242
-23.0357
-25.3444
22.9419
21.4866
19.5478
18.1343
16.0034
14.6893
12.2739
11.0566
8.40352
7.07922
4.44689
2.61002
0.423209
-2.14699
-3.99044
-6.96923
-8.70381
-11.6419
-13.4896
-16.1625
-18.1265
-20.5516
-22.5094
-24.8236
22.5658
21.1126
19.1559
17.7422
15.5937
14.2666
11.8629
10.6089
8.01859
6.64567
4.11132
2.28311
0.155873
-2.29846
-4.10933
-6.92995
-8.62238
-11.4384
-13.2178
-15.8249
-17.716
-20.1179
-22.0262
-24.338
22.2186
20.7635
18.7929
17.3757
15.2177
13.877
11.4909
10.2039
7.67756
6.26698
3.82023
2.00489
-0.068811
-2.42178
-4.20266
-6.88529
-8.54276
-11.2466
-12.9687
-15.5104
-17.3373
-19.7106
-21.5735
-23.8738
21.9046
20.4413
18.4606
17.0335
14.874
13.5158
11.1556
9.83611
7.37387
5.93145
3.56445
1.76385
-0.261503
-2.52303
-4.27618
-6.83458
-8.46328
-11.0612
-12.7361
-15.2104
-16.9815
-19.3189
-21.1406
-23.4193
21.6274
20.1453
18.1596
16.7125
14.5594
13.1745
10.8519
9.49554
7.10142
5.62792
3.33718
1.55061
-0.429625
-2.60513
-4.33451
-6.77575
-8.38393
-10.8763
-12.5152
-14.9155
-16.6405
-18.9309
-20.7165
-22.9595
21.3931
19.8779
17.894
16.4128
14.2779
12.8533
10.5822
9.17877
6.86027
5.34923
3.13098
1.35181
-0.583849
-2.6712
-4.38262
-6.70799
-8.30762
-10.6899
-12.3081
-14.6241
-16.3167
-18.5461
-20.3032
-22.4943
21.1977
19.6143
17.6507
16.098
14.0158
12.5103
10.3322
8.84335
6.63964
5.06637
2.94804
1.17081
-0.721904
-2.71907
-4.43307
-6.61805
-8.24029
-10.4763
-12.1075
-14.3001
-15.9878
-18.1185
-19.8634
-21.9643
21.0774
19.4267
17.4928
15.8684
13.8478
12.2593
10.1755
8.59856
6.49738
4.84603
2.763
0.922789
-0.902971
-2.74109
-4.46316
-6.52821
-8.18919
-10.2991
-11.9634
-14.0459
-15.7503
-17.7905
-19.5406
-21.5573
-133.202
-240.972
-11.0733
-205.541
-378.286
-267.48
-163.773
-348.581
-384.416
-58.4422
-212.564
-334.26
34.5698
-65.6228
-193.887
77.4342
180.738
175.292
30.3032
-49.259
49.69
185.714
18.8128
83.7122
-52.6075
-116.762
21.3067
-180.18
93.6374
-222.649
-137.652
-61.5457
-94.3565
-185.497
-130.898
-183.69
-265.866
-222.16
-471.264
-381.314
-347.586
-209.989
-160.743
-86.8974
-150.943
-186.381
-198.48
-277.133
-292.075
-519.746
-528.635
-322.925
-213.692
-217.634
-43.4997
-56.6003
-140.466
-113.437
-136.644
-203.778
-342.463
-440.546
-203.248
-159.155
-204.025
-141.36
-232.358
-69.7955
-85.0846
-140.868
47.9523
-29.2641
66.3666
63.8243
164.074
59.8834
44.3817
33.6466
-213.666
-120.498
-73.3812
-133.097
-230.029
91.5792
-114.176
-373.726
-204.711
-149.529
-195.517
-364.041
-290.876
-270.175
-191.57
-280.088
-301.513
-238.412
-279.284
-522.922
-475.879
-345.263
-460.677
-517.542
-370.434
-456.499
-329.628
-212.965
-270.81
-191.884
-280.876
-218.567
-300.835
-285.322
-445.192
-515.344
-380.278
-512.828
-433.894
-520.981
-516.608
-385.857
-130.528
-59.8143
-212.809
-140.952
-238.96
-335.849
-267.19
-332.202
-238.068
-428.587
-338.856
-285.012
19.1617
64.5139
-50.2744
11.5689
-41.4486
-128.843
-225.666
-140.36
-137.057
109.562
120.631
69.3309
107.087
93.4382
54.85
-49.4001
-100.645
80.7447
-65.2268
237.635
4.63177
28.8283
-44.4779
-7.24783
8.5016
-50.7032
33.3864
-20.8485
19.2748
-26.3521
-67.8193
186.254
-71.7807
75.6578
-167.832
-114.797
-59.6765
-126.8
-99.7152
-99.3858
-57.5464
59.2758
81.546
-51.793
-13.0591
-28.4357
-80.1323
-118.709
-128.156
-44.7612
84.2665
110.893
-33.4696
39.0347
-5.52878
309.03
197.392
120.951
125.915
199.807
311.467
-102.861
-69.3385
-112.728
213.782
-74.4423
-29.27
-436.83
-428.028
-535.201
-534.047
-386.777
-394.463
-178.137
-145.644
-185.524
89.6364
40.7079
-22.2715
29.884
6.75065
-206.052
-184.684
-251.65
-211.184
-255.018
-197.806
-199.548
-81.8406
-35.2998
-99.9883
-194.946
-305.874
-296.521
-293.491
-293.463
-258.618
-260.292
-501.85
-501.207
-496.295
-422.88
-400.076
-443.29
-428.798
-498.435
-418.746
-350.932
-311.535
-391.727
-362.162
-424.937
-255.645
-250.32
-301.806
-299.347
-484.355
-487.182
-484.632
-420.197
-438.268
-389.22
-412.921
-480.72
-529.014
-451.407
-446.49
-443.031
-450.816
-529.443
-104.516
-100.035
-104.744
-146.816
-57.7999
-99.2197
-89.9461
-182.676
-151.618
-172.27
-284.576
-291.626
-387.638
-351.898
-380.597
-310.765
-341.729
-381.312
31.1897
56.8908
-22.1943
-13.8954
-52.1189
24.5318
-8.83053
-13.3588
-7.69671
26.8524
-78.5505
-80.8318
-29.4501
-139.798
-87.017
-91.5274
-85.0552
143.3
158.884
204.713
114.168
137.771
217.378
129.818
94.0479
444.798
34.2951
64.1399
36.6574
63.7285
94.6224
67.2029
105.43
82.2538
94.1627
279.067
60.6661
15.778
4.20176
76.9236
85.7625
241.002
156.922
153.651
90.7574
101.098
135.608
135.452
208.539
468.862
323.112
217.088
276.122
352.214
480.045
-250.888
-208.937
-226.725
-460.795
-408.175
-403.354
-289.601
-243.197
-235.683
-246.792
-247.065
-291.631
-528.956
-530.492
-361.607
-421.738
113.327
100.971
17.9909
36.643
77.8455
118.131
96.2426
108.742
-4.50187
-58.4743
173.455
-346.158
-376.32
-403.785
-274.433
-226.275
-160.446
-296.65
-244.148
-296.336
-284.346
-241.521
-248.33
-228.895
-241.158
-281.434
-287.143
-310.097
-301.427
-327.952
-326.774
-297.952
-298.742
-292.573
-271.102
-516.657
-486.859
-476.576
-446.121
-437.576
-481.145
-472.502
-510.878
-229.494
-215.166
-247.859
-271.481
-291.337
-309.833
-303.304
-332.861
-329.296
-313.972
-325.348
-292.243
-463.648
-504.904
-502.163
-465.629
-473.949
-421.867
-426.94
-452.685
-525.236
-487.791
-481.301
-478.66
-483.817
-524.631
-258.202
-268.221
-246.866
-344.86
-331.108
-317.415
-288.972
-267.587
-300.051
-224.031
-256.399
-275.955
40.1697
53.8924
28.6577
77.3098
58.8938
46.4746
155.999
163.503
87.456
104.165
83.6222
144.875
154.108
131.67
118.593
47.2448
334.585
96.7382
42.4747
9.12657
13.1217
45.1849
3.9831
1.19469
59.7049
50.6959
263.652
-1.59348
21.0792
-82.5157
-73.9815
69.5217
74.5788
68.8082
74.1942
67.3039
85.6999
76.7132
71.4487
-34.2522
-28.2389
-49.9782
-57.3161
95.0973
99.4411
88.7368
105.685
121.379
-173.471
-148.563
-70.4028
-228.611
-170.741
-196.738
-457.023
-409.592
-531.136
-534.649
-367.354
-415.579
-171.554
-167.628
-187.593
-141.778
-161.308
-163.046
-221.927
-243.003
-194.098
-213.912
69.6517
88.4503
105.604
51.1894
80.4912
63.7169
86.6204
54.2178
-230.523
-201.764
-223.681
-164.032
-193.308
-222.298
-249.562
-260.785
-229.707
-245.504
-152.02
-115.717
-154.033
-167.349
-182.136
-348.286
-368.471
-338.571
-349.252
-300.018
-246.753
-341.025
-314.234
-258.928
-295.864
-337.876
-319.746
-313.649
-287.641
-317.211
-323.64
-312.086
-313.149
-332.926
-331.263
-322.974
-329.706
-298.197
-324.908
-320.235
-283.033
-293.675
-264.537
-278.461
-303.522
-309.318
-296.092
-302.891
-269.971
-291.137
-284.367
-516.143
-486.987
-460.207
-447.884
-481.698
-508.797
-471.769
-461.422
-271.751
-286.154
-266.496
-295.969
-281.244
-316.403
-301.138
-257.406
-236.957
-275.769
-262.179
-333.63
-332.562
-301.874
-337.12
-340.705
-333.428
-338.478
-331.039
-318.087
-337.67
-333.863
-295.805
-327.726
-332.18
-468.94
-497.291
-450.078
-460.164
-496.626
-461.313
-432.938
-444.439
-490.271
-486.997
-527.645
-526.676
-487.366
-488.214
-122.185
-121.312
-117.882
-101.459
-140.835
-123.689
-129.768
-74.9513
-73.271
-59.7554
-95.9744
-78.8425
-81.2935
-208.017
-191.03
-230.261
-213.715
-167.599
-163.043
-146.362
-185.604
-168.665
-175.548
-295.387
-276.147
-265.273
-277.616
-295.069
-249.073
-269.274
-301.223
-310.737
-323.698
-300.559
43.3484
49.1735
39.2137
65.0182
53.1706
47.1317
67.0648
8.21052
33.9107
13.3479
-117.856
-115.242
-135.151
-86.6941
-108.712
-110.06
-109.757
-117.367
167.177
183.755
127.357
140.81
166.32
137.859
4.12447
-38.3895
5.71241
6.04684
47.7248
74.2569
631.539
468.505
392.169
481.314
533.224
650.788
71.2801
161.385
104.316
-180.251
-204.696
-244.9
-467.069
-469.594
-474.577
-525.878
-528.619
-179.745
-157.435
-175.935
-442.329
-436.385
-434.922
-240.188
-219.131
-213.104
-182.082
-140.739
-173.381
-254.766
-240.926
-220.297
-235.018
-281.909
-247.37
-245.056
-270.503
-258.647
-518.926
-480.905
-485.547
-480.298
-501.518
-498.872
-514.589
-429.377
-420.713
-444.826
-239.446
-207.442
-188.35
-230.986
-247.964
-232.487
-450.538
-448.594
-444.828
-512.465
-509.589
-491.808
-495.14
-522.536
-505.938
-504.042
-498.776
-502.131
-520.652
-201.736
-210.471
-225.534
-411.198
-397.947
-410.227
-188.492
-179.952
-212.875
162.995
163.586
129.016
111.16
91.8134
163.267
163.48
88.2874
114.247
77.9566
-53.5729
-32.7205
-94.1402
-56.7594
-62.3827
-63.4317
-46.0271
-45.3382
-51.04
-11.5387
-16.6731
-18.3049
-79.1053
-72.7297
-73.2702
118.778
103.895
98.2917
187.429
302.437
248.609
-125.528
-143.3
-122.877
-91.4711
-244.42
-225.19
-44.8647
32.996
50.4117
-448.954
-451.311
-444.064
-420.833
-435.455
-441.992
-539.03
-534.658
-394.138
-386.981
-379.622
-402.414
-408.48
-401.795
-184.65
-190.017
-144.38
-150.827
-151.327
-195.203
-200.546
-206.414
-211.82
-192.56
-214.729
-243.432
-244.211
-250.324
-187.788
-197.975
-220.193
-272.715
-278.183
-254.993
-258
-255.107
-58.5175
-104.543
-136.465
-123.082
-115.353
-126.934
-179.185
-277.254
-266.397
-282.088
-273.873
-247.229
-282.196
-282.987
-505.207
-500.605
-388.646
-375.902
-399.337
-441.194
-411.277
-400.507
-238.053
-252.812
-266.697
-478.68
-489.157
-511.908
-511.769
-529.06
-530.661
-512.078
-511.882
-109.741
-110.465
-109.272
-103.436
-145.872
-140.545
-142.313
-188.841
-205.074
-193.039
-202.031
-196.853
-233.161
-228.867
-156.627
-156.645
-151.187
-192.101
-187.441
-374.998
-386.35
-405.233
-363.618
-352.379
-363.637
-29.3241
-28.3668
-18.4587
-50.0132
-38.9675
-34.9291
-58.1101
-62.3826
-79.8527
-35.563
-49.4749
-50.7736
-132.545
-131.185
-137.646
-94.4456
-87.1142
-136.066
185.39
188.543
198.182
137.728
128.522
136.804
124.033
150.271
140.497
132.153
201.775
171.482
111.443
127.024
114.684
198.964
383.986
107.749
79.5046
82.4561
187.353
193.187
217.321
93.1462
92.882
88.1512
101.527
97.0452
96.7986
212.321
179.828
171.609
331.439
478.609
425.827
-465.38
-466.525
-463.795
-410.663
-412.591
-406.235
-424.881
-413.791
-529.205
-528.278
-368.174
-372.226
-352.302
-360.39
-428.168
-428.568
-422.034
106.943
111.691
118.182
100.884
106.411
101.817
-384.934
-383.253
-374.285
-399.647
-391.663
-394.675
-516.361
-483.659
-486.669
-487.062
-512.299
-496.677
-494.587
-457.988
-452.326
-457.422
-511.732
-484.27
-488.387
-506.889
-508.799
-507.178
-523.477
-523.348
-504.878
-506.74
-339.146
-339.761
-344.961
-328.245
-333.766
-334.75
164.99
167.173
155.867
159.357
148.544
154.733
151.022
137.88
130.33
127.281
134.025
137.425
122.815
126.813
123.163
31.6581
9.33332
-1.68189
65.4478
278.785
236.856
309.579
119.427
152.228
201.956
22.7495
21.3126
12.0964
39.377
30.7642
32.5387
-12.5731
-9.69664
-19.4202
3.25824
-4.604
-4.24339
80.7142
97.5584
38.9762
-60.8565
-92.6455
-17.8202
-24.8425
-89.1242
-69.1714
-68.1246
-75.3291
70.7698
72.4555
63.8125
66.5258
69.5653
-33.9258
-39.7002
-40.2244
-15.4251
-10.1149
-21.7999
-22.8314
-20.495
-28.0207
-46.7634
-41.8292
-43.5544
-40.4972
-49.2406
-26.6865
-33.6072
-65.5068
-65.1496
-56.9543
110.557
111.511
106.382
123.076
117.041
115.779
-181.341
-152.179
-148.008
-216.895
-225.215
-204.96
-452.861
-451.186
-457.372
-463.045
-433.353
-431.047
-444.371
-437.427
-535.736
-536.591
-386.057
-392.154
-376.306
-380.838
-373.181
-380.817
-375.335
-416.971
-412.349
-409.294
-401.483
-169.065
-178.348
-156.969
-157.258
-163.644
-229.885
-231.225
-222.688
-243.712
-239.006
-237.011
-200.645
-201.507
-195.448
-214.985
-206.322
-206.7
-207.768
60.5488
55.992
46.9273
75.5397
64.6087
-220.799
-230.599
-238.077
-236.637
-226.061
-209.78
-219.673
-266.472
-268.632
-275.447
-271.462
-256.797
-255.135
-263.454
-154.247
-138.16
-149.344
-111.49
-190.088
-179.238
-170.447
-358.388
-341.184
-330.203
-364.045
-353.917
-367.857
-371.761
-359.518
-281.634
-283.939
-302.518
-267.517
-282.72
-265.245
-329.209
-315.187
-321.597
-325.83
-321.112
-324.291
-313.641
-317.087
-317.115
-315.644
-314.716
-331.811
-330.531
-324.137
-326.582
-288.565
-294.118
-288.157
-296.045
-295.336
-291.638
-268.311
-281.416
-278.892
-288.262
-284.632
-272.753
-284.987
-287.119
-304.859
-306.976
-305.92
-312.871
-309.601
-306.901
-298.705
-302.058
-298.714
-306.928
-307.079
-301.65
-509.669
-494.425
-291.685
-293.658
-296.17
-282.231
-288.933
-286.875
-311.751
-299.158
-303.228
-306.396
-251.273
-253.908
-260.745
-240.142
-246.514
-244.184
-270.896
-271.827
-276.335
-264.925
-268.009
-266.41
-337.693
-339.453
-336.345
-339.642
-325.558
-321.213
-334.788
-333.464
-473.117
-492.389
-529.211
-511.609
-510.352
-508.908
-510.821
-529.221
-115.18
-120.877
-115.221
-116.241
-136.883
-134.58
-127.597
-214.948
-207.951
-202.216
-207.587
-213.78
-224.651
-229.804
-234.559
-219.665
-224.611
-219.056
-225.416
-221.665
-168.542
-162.429
-161.893
-182.532
-174.641
-289.429
-285.158
-291.816
-271.44
-278.452
-283.342
-285.553
-290.576
-254.062
-255.213
-248.718
-261.943
-315.218
-313.564
-321.405
-298.224
-305.555
-307.905
45.6592
44.2327
47.9819
36.523
40.5934
42.6571
63.5084
59.0261
61.2469
51.908
55.8685
57.5277
61.9549
5.74892
10.9732
-4.904
0.630184
28.7908
27.0723
31.6087
16.5186
23.9616
22.385
-116.915
-124.487
-125.663
-102.077
-125.573
170.969
176.357
132.545
139.512
129.963
146.822
142.159
136.375
146.215
152.263
156.398
144.551
52.498
69.5502
55.5412
76.4274
85.5592
62.2016
83.7387
63.7811
50.9913
53.1691
27.746
27.1036
29.834
40.2775
43.4142
48.5548
84.8684
74.064
104.338
167.641
96.3007
167.199
89.1667
69.4076
64
13.6945
23.3725
2.20284
-13.6655
-4.14151
10.0989
9.48166
35.4628
13.1466
39.7178
84.2102
99.047
162.971
142.47
268.809
190.895
152.348
61.079
27.6348
39.0039
-44.0962
-44.8872
-26.6407
-20.7169
-43.4258
-2.83248
-19.0358
-22.9474
-1.06209
3.25516
6.48545
36.279
-108.94
-100.854
-47.5522
-123.49
-92.6291
-67.7135
-45.0821
-78.1268
-55.0243
-79.186
-98.5758
-83.9352
-162.306
-182.622
-168.091
-302.744
-237.443
-191.415
-184.201
-133.919
-115.892
-47.7794
-73.1679
-80.4421
-96.7167
-117.636
-118.941
-205.885
-228.932
-229.596
-354.065
-283.102
-275.711
-189.908
-145.665
-144.194
-29.8393
-38.2361
-66.1835
-67.7713
-79.1418
-92.5129
-139.818
-151.679
-165.951
-268.828
-228.222
-255.28
-146.657
-124.865
-138.677
-4.04637
2.0432
-27.7118
-32.0256
-31.5073
-46.1222
-134.318
-126.053
-165.835
-85.0262
-86.341
-106.582
16.7957
28.2566
10.3317
-14.8021
-36.9327
-58.7844
-33.5829
-48.5722
-66.4133
27.0579
33.4769
30.2565
41.277
58.9561
66.4677
74.0056
90.3448
107.665
118.533
124.079
127.425
30.8737
0.393724
-16.9035
-12.6327
-22.8354
-34.0578
28.3785
33.433
34.2184
37.6696
42.3383
54.273
43.9068
42.7878
68.9914
40.246
29.7555
40.1413
23.4914
8.94527
2.47324
-0.93073
-10.6113
-15.5625
30.3346
33.417
37.3132
28.021
35.3495
36.1079
30.7025
18.5124
26.7674
17.3556
8.59302
9.94031
-151.158
-131.402
-115.37
-210.845
-235.127
-282.601
4.93754
-32.8508
-44.2846
-228.283
-225.062
-202.509
-369.621
-409.971
-424.965
-296.365
-334.476
-290.84
-179.557
-192.14
-174.321
-361.272
-400.291
-377.315
-427.933
-433.911
-387.871
-60.7262
-75.3891
-72.0654
-230.429
-249.978
-220.719
-368.361
-341.564
-318.715
-82.8527
-79.9204
-61.4732
-202.06
-180.586
-174.661
109.3
101.187
67.539
202.49
185.859
169.927
167.032
165.182
199.243
-43.5948
-25.9694
-33.472
105.698
164.199
92.5344
742.25
637.547
646.166
157.632
191.264
267.105
747.712
778.098
41.579
65.0509
39.6149
134.862
158.424
79.7149
-65.9164
-45.1625
-36.2028
-62.7287
-53.124
-79.6411
4.0576
-24.2998
-42.2414
-146.919
-159.173
-217.01
117.077
71.8092
55.6543
-176.527
-119.15
-139.002
-112.417
-118.908
-150.873
-55.8596
-86.4178
-86.7903
-116.213
-109.374
-88.2543
-171.584
-133.309
-141.341
-102.267
-120.263
-164.323
-205.179
-194.887
-173.786
-261.266
-247.53
-252.392
-207.625
-215.868
-229.053
-390.978
-400.221
-388.883
-274.088
-245.985
-317.186
-197.526
-225.72
-240.609
-180.139
-205.425
-181.126
-103.855
-112.425
-93.1336
-174.873
-135.564
-124.485
-144.355
-142.376
-180.587
-220.654
-225.945
-203.038
-282.376
-264.64
-260.149
-275.1
-275.364
-292.764
-265.523
-277.995
-349.267
-219.353
-250.128
-242.134
-249.65
-252.83
-220.929
-48.9735
-64.3999
-55.9862
-93.7383
-74.4932
-55.3496
-109.974
-92.9958
-106.146
-121.625
-136.824
-126.797
-166.09
-148.481
-124.372
-195.982
-187.322
-195.313
-349.296
-357.257
-348.943
-179.657
-215.206
-253.111
-176.14
-194.292
-173.338
-229.523
-213.311
-191.413
-153.972
-160.5
-141.031
-235.414
-228.894
-226.197
-83.6824
-106.728
-117.794
-103.248
-106.929
-85.3358
-151.194
-128.53
-122.021
38.5953
47.421
57.3822
-25.8811
-12.9391
-17.0562
70.7209
84.6483
71.3527
96.4968
89.1621
75.7165
145.528
128.912
122.076
68.1888
76.9809
93.8523
45.2536
67.3549
54.4399
77.8978
70.4829
43.0062
-204.213
-188.951
-198.804
-87.8536
-130.361
-169.179
-95.5454
-108.727
-82.9288
-153.011
-182.825
-155.572
60.1722
65.8849
105.098
-130.145
-105.83
-91.3746
-365.218
-374.611
-382.871
-214.043
-231.283
-221.786
-159.825
-197.023
-182.096
-224.573
-210.292
-183.587
-329.896
-314.831
-334.086
-289.153
-273.175
-274.489
-256.583
-260.545
-274.298
-198.019
-220.175
-213.521
-283.4
-289.756
-287.221
-311.033
-310.042
-299.563
-285.125
-282.642
-275.753
-382.304
-404.406
-358.598
-465.695
-458.984
-452.626
-392.675
-362.185
-347.061
-450.182
-443.811
-452.028
-311.506
-345.088
-374.446
-221.988
-212.899
-204.653
-254.762
-248.961
-263.636
-183.889
-203.449
-213.032
-278.757
-287.633
-291.54
-222.047
-227.101
-222.837
-302.718
-312.703
-311.681
-295.484
-298.617
-286.979
-423.394
-407.489
-371.969
-428.348
-430.823
-438.683
-388.385
-433.413
-427.783
-120.148
-121.895
-138.591
-60.3853
-70.3082
-69.5414
-208.128
-211.394
-216.717
-144.161
-160.85
-151.402
-245.047
-248.269
-241.917
-341.203
-334.777
-329.861
-291.993
-260.906
-248.987
-313.415
-305.671
-317.513
-233.468
-245.445
-250.643
-423.285
-418.526
-422.328
-329.383
-341.04
-357.621
-302.218
-331.71
-302.442
26.5127
29.914
22.3235
68.8303
62.7322
58.5552
-40.711
-40.0932
-50.318
14.4246
6.14938
3.56899
-53.8101
-52.0775
-38.9114
-134.517
-115.76
-116.34
-213.186
-209.537
-221.515
-136.299
-168.78
-177.043
-155.736
-159.696
-139.312
119.136
147.15
134.023
143.144
148.261
118.967
76.1229
80.8869
74.645
81.2263
119.93
122.532
-54.312
-23.7976
-23.3804
-28.6959
-23.9352
-73.5235
49.6149
13.1203
-1.42038
271.704
215.101
192.718
0.609591
-1.07531
14.1787
-36.332
-18.0579
-9.84907
-4.4035
-17.5907
-19.3786
-15.5494
-14.9597
-0.574747
-46.7966
-30.3844
-23.949
25.4854
28.1371
36.6541
-19.6357
-12.5158
-13.3556
-4.47283
-18.7691
-4.21624
142.393
155.521
207.611
-108.657
-78.2301
-44.1032
-30.4016
-40.5169
23.0903
-137.979
-65.1864
-67.7401
-79.3071
-75.0223
-117.958
-87.7347
-81.9832
-61.4805
-115.487
-90.5581
-97.3466
-85.9186
-90.7622
-106.201
62.7976
64.9348
61.9116
83.1072
79.7804
77.7832
-36.1633
-34.793
-27.2525
-119.179
-99.3458
-100.595
-91.7615
-93.1161
-125.671
-55.2584
-82.9111
-79.8194
88.077
89.4229
86.1585
113.192
108.755
106.153
0.649843
-17.0079
-36.9966
17.4923
1.30294
11.0057
-18.8672
-9.66358
5.06775
267.729
316.367
423.15
188.184
277.412
245.304
204.617
277.064
179.486
151.945
186.773
155.77
251.909
296.608
195.195
429.794
337.605
275.067
-67.0121
-138.299
-109.035
93.6372
95.9408
148.707
-58.8041
-24.7097
-36.2687
12.5263
21.8879
-24.1294
-186.272
-166.835
-166.772
-193.314
-195.882
-190.084
82.3991
87.9793
94.172
44.3886
52.3209
48.0899
-0.639505
-8.17038
-21.7448
19.1145
5.48189
6.80357
-5.0841
-0.0400505
12.7458
-211.889
-190.551
-169.972
-209.628
-235.938
-218.03
-182.649
-165.99
-177.582
-64.8492
-87.0891
-101.728
-64.7012
-76.0525
-46.3953
-319.25
-330.263
-318.265
-283.331
-296.119
-308.285
-301.779
-300.066
-290.889
-295.887
-304.475
-302.948
-266.132
-263.108
-254.095
-264.569
-271.452
-268.613
-480.762
-477.872
-493.524
-415.849
-434.94
-442.58
-419.482
-426.305
-408.221
-439.037
-460.869
-465.734
-449.206
-455.381
-434.413
-501.392
-486.018
-483.151
-407.957
-399.793
-412.057
-338.601
-357.456
-369.787
-330.074
-344.351
-325.685
-382.497
-401.886
-411.034
-381.286
-392.042
-372.87
-431.012
-420.512
-412.495
-260.733
-265.083
-258.677
-247.022
-251.501
-255.911
-312.811
-313.125
-301.147
-299.342
-310.408
-311.563
-467.44
-471.11
-488.057
-426.726
-449.836
-442.162
-463.049
-456.928
-432.992
-397.288
-414.428
-403.619
-433.739
-424.481
-405.437
-475.288
-459.151
-463.471
-450.646
-475.392
-476.613
-469.829
-473.116
-449.172
-446.579
-472.344
-468.316
-476.538
-475.187
-449.386
-101.383
-116.254
-109.807
-63.7208
-63.3925
-57.7393
-97.7635
-92.06
-93.624
-79.6152
-80.9319
-91.8557
-161.876
-166.561
-183.301
-288.243
-282.068
-278.563
-297.845
-301.137
-294.576
-382.595
-388.041
-393.631
-361.683
-374.248
-363.834
-394.18
-384.418
-371.469
-321.181
-331.053
-319.853
-353.066
-342.152
-331.616
-375.421
-369.848
-375.29
35.4219
37.336
33.1063
59.2206
56.3973
53.9961
-20.7666
-30.2296
-31.3382
-18.9886
-20.0561
-14.7565
-52.4435
-46.6444
-46.3931
11.3227
9.67828
18.1761
-8.85197
0.603418
6.544
-4.71156
-2.53182
-11.5578
-2.32547
-0.725641
-6.14615
28.4796
23.9602
22.5171
-77.7578
-65.1291
-66.0486
-73.6559
-73.429
-80.2209
-30.3217
-38.0572
-36.8893
-86.8651
-94.1224
-94.209
-104.267
-103.283
-91.1092
148.382
160.618
152.551
176.16
163.662
153.112
119.034
121.235
117.222
120.098
132.563
154.825
99.4896
104.973
101.181
58.9293
46.992
52.2646
27.3953
38.2291
55.7682
86.285
75.6755
82.9898
58.2737
67.2541
76.5211
100.674
108.397
115.369
86.2986
99.7194
92.1068
117.191
102.583
90.0653
42.6332
37.2518
48.1411
12.9284
25.5334
36.4734
15.0582
19.768
8.05088
216.33
236.019
292.118
160.792
180.516
175.879
162.789
173.769
160.092
140.419
150.734
143.984
158.08
162.12
142.917
274.997
206.047
204.823
428.123
467.839
584.492
322.018
385.267
373.701
332.164
415.132
302.417
307.454
351.211
317.221
403.496
468.951
357.776
599.332
514.562
453.44
-236.638
-242.44
-256.357
-216.734
-228.78
-222.714
-238.712
-233.636
-219.894
-395.897
-408.526
-418.511
-271.376
-268.534
-286.555
-242.671
-256.449
-258.73
-248.889
-252.714
-237.589
-248.874
-262.417
-261.835
-260.921
-261.679
-246.238
-292.6
-274.737
-273.577
-370.071
-364.615
-355.837
25.1692
36.7676
28.7732
54.191
44.4386
32.149
67.1373
56.1589
66.1774
112.445
119.996
136.872
101.643
110.486
104.162
121.246
113.042
103.996
-11.8476
26.2582
27.8179
30.1519
28.4919
-18.5727
123.339
77.3418
64.3381
-358.088
-366.571
-357.477
-256.969
-234.388
-250.648
-203.849
-218.314
-240.329
-171.263
-195.789
-184.121
-280.795
-297.923
-314.352
-260.761
-280.303
-263.801
-316.65
-297.17
-277.817
-269.358
-271.59
-286.964
-245.688
-258.244
-255.658
-261.367
-259.697
-245.148
-234.829
-246.851
-242.639
-253.365
-249.959
-236.104
-278.027
-263.849
-266.939
-294.17
-291.854
-284.054
-307.699
-299.945
-301.732
-295.925
-297.992
-304.204
-327.215
-315.893
-316.682
-314.623
-315.45
-327.181
-300.099
-309.449
-308.292
-296.366
-291.591
-293.83
-287.41
-289.529
-294.292
-274.786
-280.662
-278.281
-466.226
-462.265
-470.477
-439.636
-451.49
-456.241
-477.112
-491.359
-494.109
-486.472
-489.217
-476.679
-226.367
-238.521
-243.7
-225.951
-232.168
-219.322
-255.9
-242.508
-235.797
-278.699
-282.921
-273.921
-296.961
-289.356
-285.298
-297.75
-293.812
-303.933
-313.694
-313.166
-301.793
-332.687
-319.76
-320.116
-317.642
-318.824
-330.986
-317.76
-304.36
-301.175
-310.692
-307.675
-321.624
-291.047
-301.942
-304.464
-467.542
-483.334
-479.871
-489.881
-486.983
-472.573
-437.62
-432.243
-423.676
-445.492
-438.238
-443.584
-484.582
-499.678
-501.513
-496.133
-498.389
-484.951
-479.567
-495.85
-493.294
-500.122
-498.527
-483.7
-261.816
-254.997
-251.853
-260.294
-256.919
-264.104
-243.9
-250.114
-253.058
-323.686
-328.156
-321.846
-282.201
-294.452
-300.653
-278.522
-285.786
-274.304
-308.513
-297.119
-289.378
-233.843
-239.799
-228.719
-262.721
-251.145
-245.052
-263.322
-257.614
-269.816
44.0536
37.1227
33.4497
44.4316
41.1927
47.9784
26.2315