/*--------------------------------*- C++ -*----------------------------------*\
| =========                 |                                                 |
| \\      /  F ield         | OpenFOAM: The Open Source CFD Toolbox           |
|  \\    /   O peration     | Version:  5.x                                   |
|   \\  /    A nd           | Web:      www.OpenFOAM.org                      |
|    \\/     M anipulation  |                                                 |
\*---------------------------------------------------------------------------*/
FoamFile
{
    version     2.0;
    format      ascii;
    class       volScalarField;
    location    "400";
    object      p_rgh;
}
// * * * * * * * * * * * * * * * * * * * * * * * * * * * * * * * * * * * * * //

dimensions      [0 2 -2 0 0 0 0];

internalField   nonuniform List<scalar> 
6584
(
10.4226
11.12
11.9601
13.2199
14.8382
16.9313
19.4757
22.4993
25.6667
28.7519
30.7661
30.65
27.6101
21.8129
14.3541
6.57533
-0.46873
-6.47303
-11.2725
-14.9985
-17.7801
-19.854
-21.2056
-22.2857
10.1768
10.9377
11.7258
12.9706
14.5486
16.639
19.2149
22.3993
25.8209
29.3467
31.8191
32.0279
28.9073
22.6311
14.6054
6.22918
-1.09068
-7.19554
-11.9522
-15.5916
-18.2617
-20.2704
-21.5181
-22.6742
9.64915
10.4175
11.1045
12.2723
13.7447
15.7992
18.4515
22.0838
26.0811
29.9037
34.7685
36.9952
34.7098
27.5777
17.7368
4.98918
-2.99059
-9.28926
-13.8864
-17.236
-19.5968
-21.3731
-22.3988
-23.5067
8.95911
9.66144
10.2001
11.2069
12.4783
14.3713
17.0425
21.1041
26.6379
32.1499
40.1481
45.7369
44.0693
33.6038
19.4957
6.64311
-6.26573
-12.7562
-16.9442
-19.7344
-21.5834
-22.9522
-23.6553
-24.5706
8.16411
8.72862
9.0647
9.79662
10.7218
12.1954
14.5686
18.6293
23.7988
33.6069
46.463
59.1807
59.4131
41.6192
19.1897
2.13139
-8.72165
-18.1487
-21.3761
-23.0629
-24.1321
-24.8827
-25.1636
-25.7518
7.31513
7.67261
7.75155
8.07315
8.4602
9.02983
10.5653
12.9796
19.5578
30.2362
48.8046
81.1571
94.6862
58.8672
13.6731
-8.22505
-18.4224
-25.2913
-26.9434
-27.0678
-27.0983
-27.0299
-26.8023
-26.9403
6.48448
6.58219
6.37312
6.18284
5.89742
5.26145
5.39812
6.48885
9.01814
16.6998
39.9879
99.5776
185.607
63.8071
-1.51914
-28.4992
-32.6372
-34.4966
-33.4129
-31.4819
-30.2297
-29.186
-28.3995
-27.9951
5.75203
5.57053
5.08607
4.36059
3.35056
1.39348
-0.50032
-1.62086
-5.71122
-9.80486
-5.60912
26.004
-18.9579
-58.3675
-60.2722
-51.3328
-44.6605
-40.0298
-35.786
-33.1421
-31.0786
-29.7486
-28.7653
5.18873
4.75375
4.06107
2.89242
1.27316
-1.76459
-5.60251
-9.47874
-20.4925
-40.1001
-70.5459
-150.444
-244.062
-138.228
-94.7998
-69.8721
-53.5575
-45.4499
-39.205
-35.3448
-32.4021
-30.6356
-29.1141
4.84164
4.22522
3.443
2.04273
0.133286
-3.32091
-8.14921
-13.8392
-27.9798
-54.5369
-100.558
-208.319
-350.992
-186.838
-114.827
-81.0853
-58.4992
-48.2266
-40.9447
-36.3709
-32.8855
-30.8802
-28.9431
4.72083
4.0259
3.29464
1.93184
0.146695
-2.90216
-7.34525
-13.0479
-24.8522
-45.8085
-81.6926
-153.898
-308.973
-178.366
-111.293
-80.5962
-57.87
-47.5697
-40.5625
-35.96
-32.3814
-30.3849
-28.2148
4.79535
4.12878
3.56781
2.47675
1.16161
-0.872301
-3.83627
-7.9503
-13.8573
-22.0785
-34.2342
-46.9126
-184.137
-127.615
-88.6684
-69.5779
-52.1001
-43.7502
-38.1484
-34.1653
-30.9206
-29.1666
-26.9653
5.00257
4.44894
4.12386
3.43371
2.75085
1.91922
0.801944
-1.03869
-0.989243
2.48799
10.8344
41.3526
-52.9485
-66.3874
-59.0717
-53.1868
-43.2497
-37.9131
-34.2571
-31.3139
-28.709
-27.3481
-25.2941
5.26714
4.87466
4.78998
4.51262
4.43208
4.63763
5.06457
7.3897
8.60438
18.6753
33.5816
75.2194
161.021
24.1473
-20.8607
-33.5468
-36.9422
-33.7369
-31.4208
-29.6487
-27.8713
-26.0165
-25.119
-23.3353
5.51975
5.29999
5.41336
5.47487
5.83507
6.68886
8.00199
10.8759
13.9225
23.3231
36.49
57.907
64.3634
31.2091
-1.82574
-16.9936
-23.095
-25.1147
-25.2937
-24.9894
-24.2695
-23.1215
-22.6787
-21.228
5.70895
5.64717
5.89537
6.19135
6.8046
7.96836
9.5773
12.6851
15.6474
22.3711
31.3945
38.2437
33.5183
20.7417
4.8867
-7.976
-15.8954
-18.643
-20.1397
-20.7375
-20.8253
-20.2689
-20.2056
-19.1056
5.80479
5.87271
6.19238
6.62645
7.33256
8.58324
10.0966
13.0303
15.9905
19.2205
23.404
24.4599
26.169
17.3253
5.83429
-3.38305
-10.3022
-13.7956
-15.9297
-17.0745
-17.7075
-17.5887
-17.8165
-17.0448
5.79583
5.96136
6.29958
6.79637
7.47641
8.66104
9.87792
12.1753
14.3173
17.3656
17.7228
20.1743
14.4321
12.2837
3.78147
-2.14537
-6.49875
-10.3322
-12.5895
-14.036
-14.9847
-15.1727
-15.596
-15.1091
5.68422
5.91789
6.23646
6.74581
7.32858
8.3795
9.238
11.0232
11.8617
14.5909
10.9787
17.3237
14.0617
4.21557
4.21335
-1.66573
-4.70807
-8.0573
-10.0676
-11.599
-12.6718
-13.0581
-13.5911
-13.3402
5.48087
5.75917
6.03498
6.53136
6.98658
7.90689
8.41781
9.93325
9.90959
12.5218
9.77013
13.2209
11.1082
4.44678
3.98416
-1.33553
-3.41155
-6.42768
-8.13774
-9.65416
-10.73
-11.2379
-11.8156
-11.7537
5.20092
5.50702
5.72853
6.20257
6.52171
7.33627
7.54112
8.8788
8.35653
10.5116
8.16609
9.66295
8.11399
3.87547
3.36642
-1.07026
-2.46846
-5.22028
-6.62983
-8.09384
-9.10479
-9.68573
-10.2625
-10.3488
4.86075
5.18356
5.34673
5.79781
5.98449
6.71614
6.66825
7.84786
7.03064
8.7303
6.65254
7.4924
6.23497
3.08125
2.72654
-0.923809
-1.85365
-4.33072
-5.45047
-6.8407
-7.74708
-8.36949
-8.91486
-9.11571
4.47634
4.80931
4.91523
5.34709
5.4134
6.08175
5.84011
6.88665
5.91994
7.28741
5.48149
5.96071
4.93193
2.4802
2.20884
-0.835118
-1.44466
-3.65913
-4.52269
-5.82967
-6.61247
-7.25577
-7.75089
-8.03919
4.06253
4.40233
4.45531
4.87344
4.83617
5.45755
5.07594
6.01324
4.98893
6.10281
4.53211
4.77315
3.92342
1.9933
1.78188
-0.773985
-1.15938
-3.13548
-3.7834
-5.00572
-5.66104
-6.31221
-6.74691
-7.10119
3.63231
3.97769
3.98376
4.39361
4.27077
4.85746
4.37993
5.22604
4.19859
5.11456
3.75045
3.85185
3.13465
1.58679
1.42601
-0.729802
-0.955065
-2.71685
-3.18605
-4.32604
-4.85823
-5.50872
-5.87899
-6.28235
3.19694
3.54767
3.51349
3.91955
3.72857
4.28957
3.75094
4.52077
3.52345
4.28554
3.09538
3.12125
2.51274
1.25871
1.13543
-0.693937
-0.803895
-2.37447
-2.69682
-3.75748
-4.17515
-4.81897
-5.12491
-5.56392
2.76585
3.12201
3.05419
3.4597
3.21644
3.7579
3.18496
3.89099
2.94372
3.59157
2.54598
2.53965
2.03298
0.994631
0.900249
-0.662039
-0.687369
-2.08712
-2.28908
-3.27472
-3.58812
-4.22098
-4.46479
-4.92788
2.3469
2.70835
2.61297
3.01965
2.73776
3.26374
2.67682
3.32991
2.44154
3.0059
2.08745
2.07364
1.64482
0.765662
0.711434
-0.62775
-0.588275
-1.83622
-1.93983
-2.85465
-3.07525
-3.69324
-3.87907
-4.35674
1.94668
2.31241
2.19482
2.60282
2.29403
2.80665
2.22094
2.83084
2.00342
2.50451
1.6976
1.68616
1.32485
0.58016
0.562246
-0.590962
-0.499946
-1.61242
-1.63445
-2.48167
-2.62001
-3.21936
-3.3515
-3.83541
1.57066
1.9386
1.80337
2.21131
1.88508
2.38472
1.8109
2.38461
1.61992
2.07242
1.3635
1.36073
1.05899
0.430157
0.444821
-0.55025
-0.417092
-1.40749
-1.36131
-2.14272
-2.20822
-2.7845
-2.86712
-3.34916
1.2235
1.58977
1.44076
1.84529
1.50988
1.99632
1.44064
1.98107
1.28036
1.69521
1.07388
1.08399
0.83579
0.308311
0.352952
-0.504126
-0.33604
-1.21429
-1.11081
-1.82695
-1.82819
-2.37586
-2.41312
-2.88438
0.909559
1.26782
1.10886
1.50367
1.1675
1.6374
1.10712
1.61472
0.978121
1.36113
0.81958
0.844429
0.644578
0.208538
0.280907
-0.451991
-0.255122
-1.02751
-0.876787
-1.52558
-1.47103
-1.98289
-1.979
-2.42919
0.632411
0.972006
0.808141
1.1835
0.855232
1.29876
0.805284
1.27564
0.707126
1.05909
0.593782
0.632673
0.477937
0.127922
0.224024
-0.391682
-0.174347
-0.841163
-0.65455
-1.22925
-1.12877
-1.59355
-1.55358
-1.96882
0.398209
0.70483
0.542886
0.885218
0.576526
0.980225
0.537406
0.960371
0.467428
0.781855
0.389066
0.435349
0.325196
0.0633228
0.177396
-0.322468
-0.0965887
-0.65335
-0.446076
-0.936506
-0.803512
-1.20741
-1.13901
-1.50292
0.202922
0.44134
0.299862
0.571786
0.317087
0.639796
0.289252
0.626432
0.248281
0.500462
0.207608
0.255836
0.188625
0.0169276
0.128424
-0.231077
-0.0278059
-0.438303
-0.243992
-0.611063
-0.473296
-0.778442
-0.697865
-0.972254
0.0826032
0.253933
0.142268
0.343109
0.150845
0.390925
0.134406
0.383155
0.107466
0.281599
0.0240444
0.00929905
0.00903875
-0.00361119
0.0998026
-0.139762
0.0247311
-0.259696
-0.0984825
-0.355516
-0.234372
-0.449108
-0.373771
-0.564592
-134.993
-239.182
-9.28741
-207.331
-376.495
-265.689
-165.561
-346.792
-382.625
-60.226
-210.782
-332.472
32.791
-63.8513
-192.106
75.6743
180.649
175.319
32.0537
-47.4892
47.904
185.593
20.597
85.4637
-56.1004
-118.779
19.2924
-179.242
94.5696
-220.632
-134.161
-58.0558
-97.8486
-187.514
-132.915
-185.48
-266.921
-223.214
-470.291
-380.346
-345.568
-206.499
-157.253
-90.3867
-152.958
-188.398
-200.27
-278.185
-293.128
-518.767
-527.656
-320.911
-210.207
-214.145
-46.9852
-58.6105
-142.48
-115.223
-137.695
-204.831
-341.503
-439.574
-201.24
-155.678
-200.541
-140.425
-231.392
-67.799
-81.6183
-137.393
48.8758
-28.3348
64.7471
63.6905
163.986
59.9787
45.9725
35.3912
-214.72
-121.551
-75.171
-134.037
-230.969
90.6448
-115.115
-372.757
-203.745
-147.74
-194.465
-363.016
-291.929
-271.229
-193.36
-281.058
-302.481
-239.353
-280.254
-521.945
-474.903
-343.472
-459.647
-516.512
-369.409
-455.471
-327.837
-214.017
-271.862
-193.674
-281.842
-219.534
-301.803
-286.287
-444.217
-514.367
-378.487
-511.798
-432.865
-519.949
-515.577
-384.066
-131.466
-60.7505
-213.776
-141.89
-237.994
-334.886
-265.405
-331.18
-237.018
-427.559
-337.835
-283.226
18.2279
63.5824
-51.2103
10.6349
-40.5186
-127.908
-224.615
-139.313
-135.28
108.633
119.745
68.3998
106.158
94.3363
55.7728
-51.1895
-101.697
79.6964
-64.7343
238.134
1.15016
26.823
-46.4875
-9.02909
7.45488
-51.752
33.8912
-20.3418
21.2505
-22.9016
-64.3565
185.749
-72.2865
76.7039
-166.781
-113.008
-60.7256
-127.851
-101.501
-99.8971
-58.0609
58.7657
81.0389
-52.3028
-13.5699
-27.9288
-79.6255
-116.932
-127.11
-43.7193
83.7587
110.386
-32.4284
40.0697
-3.76544
308.966
196.544
120.019
126.845
200.652
311.529
-102.36
-68.4022
-112.173
214.34
-73.8877
-28.3346
-435.868
-427.061
-534.215
-533.061
-385.809
-393.5
-177.201
-145.085
-184.559
90.1413
41.2131
-21.7072
30.4464
7.67757
-206.567
-185.624
-252.226
-211.751
-255.598
-198.745
-200.114
-82.4049
-36.2375
-100.493
-195.454
-304.908
-295.554
-294.456
-294.429
-259.587
-261.261
-500.891
-500.251
-495.282
-421.485
-398.68
-441.894
-427.403
-497.42
-417.722
-349.537
-310.14
-390.331
-360.767
-423.916
-256.615
-251.289
-302.774
-300.314
-483.4
-486.224
-483.618
-418.803
-436.873
-387.826
-411.527
-479.708
-527.977
-450.011
-445.094
-441.635
-449.42
-528.405
-105.033
-100.972
-105.313
-147.38
-58.3696
-99.7854
-90.8831
-183.615
-152.187
-173.207
-283.61
-290.66
-386.617
-350.506
-379.203
-309.374
-340.336
-380.288
30.6792
56.3815
-23.1294
-14.4625
-52.6858
23.9644
-9.39722
-14.2936
-8.20624
26.3416
-77.6186
-80.2697
-28.8857
-139.243
-86.4577
-90.5949
-84.5575
142.822
158.409
204.592
113.66
137.292
217.483
130.291
94.5526
445.057
30.8177
62.0321
34.6527
61.9522
93.5244
66.1028
105.52
83.0391
94.998
278.802
59.6219
14.7316
2.42112
76.6489
85.4966
240.906
156.46
153.221
90.4844
100.813
136.041
135.914
208.587
468.79
322.661
216.586
276.619
352.66
480.11
-251.943
-210.331
-228.119
-459.835
-407.364
-402.39
-290.654
-244.591
-237.076
-248.186
-248.459
-292.684
-527.973
-529.509
-360.644
-420.779
113.601
101.241
18.9169
37.2054
78.4346
117.304
95.4189
108.604
-5.43901
-59.0387
172.892
-345.194
-375.537
-402.978
-273.381
-224.882
-159.053
-295.255
-242.755
-295.283
-285.399
-242.915
-249.725
-230.289
-242.552
-282.486
-288.11
-310.883
-302.233
-328.741
-327.561
-298.919
-299.549
-293.375
-272.072
-515.686
-485.899
-475.555
-444.925
-436.407
-479.946
-471.304
-509.853
-230.887
-216.559
-248.913
-272.449
-292.137
-310.614
-304.272
-333.652
-330.086
-314.752
-326.132
-293.209
-462.689
-503.934
-501.139
-464.433
-472.751
-420.699
-425.746
-451.666
-524.2
-486.591
-480.102
-477.462
-482.618
-523.595
-257.237
-267.431
-246.069
-344.053
-330.308
-316.449
-287.921
-266.197
-298.66
-222.643
-255.01
-274.904
39.2369
53.3261
28.0905
76.717
58.2992
45.5421
155.722
163.231
86.526
103.573
83.029
144.589
153.828
131.947
118.863
47.7447
334.897
97.2391
42.7623
9.63302
13.458
45.5109
4.32819
1.70253
59.2006
50.3655
263.323
-1.92828
20.5756
-83.0153
-74.4871
69.227
74.2989
68.2996
73.8598
66.9592
85.3719
76.3829
70.941
-34.7506
-28.7387
-49.473
-56.8134
94.5884
99.1009
88.4033
105.404
121.107
-172.91
-147.828
-69.6684
-227.874
-170.005
-196.167
-456.066
-408.627
-530.152
-533.664
-366.388
-414.623
-170.975
-166.893
-186.858
-141.042
-160.572
-162.467
-221.197
-242.26
-193.361
-213.182
70.1567
88.7813
105.936
51.5235
80.8197
64.2217
86.8873
54.504
-231.08
-202.501
-224.421
-164.772
-194.045
-222.852
-250.295
-261.527
-230.446
-246.236
-152.589
-116.456
-154.773
-167.861
-182.649
-347.494
-367.691
-337.607
-348.514
-299.282
-246.015
-340.295
-313.497
-257.961
-295.071
-337.088
-320.528
-314.43
-288.606
-317.932
-324.365
-312.839
-313.872
-333.658
-331.997
-323.7
-330.437
-299.164
-325.695
-321.018
-283.764
-294.406
-265.282
-279.198
-304.269
-310.072
-296.826
-303.635
-270.941
-291.937
-285.161
-515.174
-486.035
-459.013
-446.689
-480.683
-507.774
-470.573
-460.227
-272.553
-286.957
-267.465
-296.721
-281.99
-317.124
-301.885
-258.136
-237.687
-276.512
-262.913
-334.419
-333.353
-302.842
-337.856
-341.44
-334.163
-339.214
-331.766
-318.808
-338.403
-334.592
-296.771
-328.511
-332.969
-467.989
-496.325
-448.884
-458.968
-495.604
-460.299
-431.744
-443.246
-489.07
-485.797
-526.608
-525.639
-486.166
-487.013
-122.708
-121.872
-118.619
-102.198
-141.572
-124.425
-130.321
-75.517
-74.0093
-60.4659
-96.7131
-79.5803
-81.8547
-208.759
-191.764
-230.997
-214.459
-168.182
-163.782
-147.101
-186.335
-169.4
-176.127
-294.585
-275.354
-264.307
-276.879
-294.313
-248.329
-268.542
-300.469
-309.772
-322.905
-299.768
42.8421
48.8448
38.8682
64.6752
52.8459
46.6258
66.7676
7.70689
33.56
12.8434
-117.29
-114.506
-134.416
-85.9594
-107.977
-109.5
-109.252
-116.854
166.905
183.481
127.083
140.523
166.59
138.137
6.13643
-34.9006
9.19337
7.80767
48.8143
75.3295
631.497
468.258
391.904
481.563
533.464
650.821
73.0564
162.465
105.36
-181.645
-206.09
-245.954
-466.101
-468.68
-473.657
-524.898
-527.639
-181.137
-158.826
-176.987
-441.41
-435.471
-433.954
-239.391
-218.341
-212.139
-183.135
-142.133
-174.775
-255.564
-241.72
-221.237
-234.223
-281.116
-246.403
-246.025
-271.298
-259.447
-517.951
-479.98
-484.619
-479.321
-500.432
-497.787
-513.56
-428.208
-419.546
-443.806
-240.5
-208.835
-189.742
-231.777
-248.754
-233.454
-449.562
-447.667
-443.904
-511.491
-508.56
-490.723
-494.055
-521.503
-504.85
-502.955
-497.689
-501.043
-519.619
-202.676
-211.27
-226.328
-410.179
-396.781
-409.059
-187.443
-178.566
-211.488
162.83
163.425
128.424
110.568
90.8837
163.095
163.311
88.876
114.832
78.8757
-53.082
-32.2743
-94.6458
-57.2216
-62.8505
-63.9494
-46.5319
-45.7877
-51.4958
-11.9949
-17.1284
-18.8141
-78.6463
-72.2769
-72.7644
118.445
103.557
97.7831
188.35
303.005
249.165
-125.021
-142.75
-122.263
-90.8562
-243.796
-224.573
-44.1304
33.7302
50.9702
-448.053
-450.416
-443.107
-419.864
-434.541
-441.079
-538.044
-533.672
-393.223
-386.065
-378.652
-401.456
-407.584
-400.892
-184.034
-189.395
-143.763
-150.207
-150.762
-194.573
-199.91
-205.45
-211.03
-191.766
-215.25
-244.002
-244.835
-250.951
-188.413
-198.598
-220.761
-273.342
-278.815
-255.621
-258.616
-255.685
-59.2271
-105.283
-137.033
-123.587
-115.796
-127.377
-179.689
-276.617
-265.764
-282.879
-274.665
-248.197
-282.833
-283.629
-504.245
-499.651
-387.478
-374.734
-398.313
-440.176
-410.112
-399.341
-239.02
-253.604
-267.496
-477.729
-488.196
-510.816
-510.678
-528.023
-529.623
-510.987
-510.79
-110.263
-111.038
-109.899
-104.062
-146.492
-141.16
-142.871
-189.634
-205.872
-193.978
-202.653
-197.47
-233.801
-229.511
-157.202
-157.273
-151.811
-192.714
-188.051
-373.833
-385.186
-404.216
-362.594
-351.213
-362.471
-29.8847
-29.0746
-19.1675
-50.7223
-39.6751
-35.4888
-57.5484
-61.6767
-79.1178
-34.8572
-48.769
-50.2106
-131.986
-130.566
-137.029
-93.9513
-86.6547
-135.546
185.267
188.385
198.019
137.544
128.014
136.463
123.699
149.934
140.156
131.673
201.922
171.639
111.773
127.358
115.188
198.691
383.774
107.466
79.2348
82.1897
187.094
192.954
217.256
92.8605
92.6418
87.9145
101.294
96.8076
96.5112
212.318
180.07
171.871
331.929
478.913
426.14
-464.476
-465.615
-462.831
-409.853
-411.743
-405.377
-424.035
-412.948
-528.223
-527.296
-367.33
-371.376
-351.464
-359.551
-427.204
-427.659
-421.13
107.221
111.917
118.4
101.116
106.643
102.096
-384.143
-382.406
-373.442
-398.79
-390.81
-393.877
-515.388
-482.684
-485.74
-486.138
-511.272
-495.594
-493.505
-457.065
-451.398
-456.448
-510.76
-483.188
-487.304
-505.862
-507.709
-506.089
-522.443
-522.313
-503.789
-505.65
-338.337
-338.905
-344.117
-327.392
-332.91
-333.944
164.832
167.019
155.686
159.18
148.26
154.505
150.79
138.057
130.505
127.555
134.238
137.647
123.027
127.021
123.433
32.0966
9.77441
-1.18362
65.8419
279.105
237.237
309.957
119.813
152.608
202.289
23.0779
21.699
12.4874
39.7644
31.1495
32.8621
-12.2195
-9.30553
-19.0319
3.65464
-4.20502
-3.89099
80.3865
97.1699
38.5894
-61.245
-93.0439
-18.1988
-25.222
-89.6255
-69.6885
-68.596
-75.7981
70.4796
72.1703
63.4141
66.1281
69.2229
-34.3648
-40.1438
-40.725
-15.8343
-10.5204
-22.2066
-23.336
-20.9385
-28.4581
-46.3187
-41.3759
-43.0466
-40.0911
-48.8338
-26.2937
-33.2075
-65.0038
-64.7036
-56.5128
110.28
111.288
106.155
122.863
116.823
115.506
-180.723
-151.565
-147.456
-216.319
-224.599
-204.339
-451.997
-450.231
-456.476
-462.145
-432.496
-430.196
-443.505
-436.564
-534.751
-535.606
-385.19
-391.285
-375.45
-379.976
-372.211
-379.903
-374.426
-416.072
-411.452
-408.339
-400.617
-168.448
-177.736
-156.396
-156.633
-163.018
-229.151
-230.547
-222.017
-243.02
-238.32
-236.272
-199.909
-200.825
-194.767
-214.317
-205.65
-205.967
-207.134
60.8812
56.3815
47.317
75.8114
64.8879
-221.32
-231.215
-238.696
-237.2
-226.62
-210.4
-220.29
-267.087
-269.253
-276.132
-272.143
-257.536
-255.745
-264.065
-154.705
-138.61
-149.851
-111.893
-190.595
-179.706
-170.913
-357.595
-340.335
-329.353
-363.202
-353.071
-367.073
-371.016
-358.774
-280.899
-283.264
-301.837
-266.835
-282.044
-264.508
-328.483
-314.5
-320.908
-325.101
-321.834
-325.014
-314.39
-317.791
-317.82
-316.342
-315.449
-332.543
-331.265
-324.865
-327.312
-289.293
-294.787
-288.826
-296.719
-296.007
-292.366
-269.056
-282.108
-279.582
-288.939
-285.322
-273.495
-285.631
-287.759
-305.608
-307.673
-306.613
-313.573
-310.301
-307.652
-299.442
-302.74
-299.392
-307.618
-307.765
-302.39
-508.703
-493.473
-292.436
-294.358
-296.873
-282.924
-289.629
-287.624
-312.474
-299.86
-303.925
-307.128
-252
-254.578
-261.419
-240.81
-247.182
-244.91
-271.636
-272.513
-277.025
-265.603
-268.691
-267.146
-338.428
-340.188
-337.081
-340.378
-326.283
-321.936
-335.52
-334.195
-472.166
-491.425
-528.173
-510.518
-509.261
-507.818
-509.73
-528.184
-115.705
-121.498
-115.846
-116.813
-137.437
-135.194
-128.212
-215.581
-208.579
-202.955
-208.269
-214.466
-225.393
-230.493
-235.235
-220.355
-225.303
-219.801
-226.058
-222.303
-169.17
-163.059
-162.473
-183.141
-175.257
-288.628
-284.303
-290.961
-270.589
-277.598
-282.545
-284.809
-289.825
-253.328
-254.516
-248.02
-261.214
-314.43
-312.718
-320.556
-297.373
-304.708
-307.119
45.3251
43.8432
47.5962
36.1248
40.1995
42.3172
63.178
58.635
60.8506
51.524
55.4826
57.2039
61.661
5.36086
10.5895
-5.30393
0.236329
28.4366
26.6722
31.2076
16.1364
23.5733
22.0334
-116.294
-123.866
-125.095
-101.578
-125.053
170.817
176.204
132.266
139.293
129.75
146.588
141.927
136.09
146.028
152.079
156.562
144.722
49.2932
67.4905
53.2544
74.8243
85.3253
61.7402
83.9611
65.3857
52.3569
55.2398
30.9672
30.3135
24.7623
36.3439
39.2735
45.0801
82.7782
72.0011
102.712
167.52
96.0665
167.306
90.799
71.0225
66.0938
17.1727
26.832
6.13684
-8.59359
0.923873
5.01793
5.53689
31.525
9.65634
37.7046
82.1086
97.2739
161.896
141.416
268.929
191.735
153.176
63.0816
30.2066
41.5687
-40.1522
-39.8067
-21.5642
-25.8014
-47.3733
-6.77873
-22.5285
-25.9857
-4.09944
1.46689
4.92422
34.7188
-106.925
-98.1573
-44.8574
-119.545
-87.5479
-62.6322
-50.1658
-82.0733
-58.9717
-82.6787
-101.614
-86.9738
-164.096
-184.186
-169.655
-300.726
-234.746
-188.718
-180.257
-128.84
-110.812
-52.8608
-77.1117
-84.3881
-100.208
-120.673
-121.979
-207.676
-230.496
-231.16
-352.049
-280.407
-273.015
-185.969
-140.591
-139.117
-34.9176
-42.1763
-70.1265
-71.2588
-82.1751
-95.5472
-141.605
-153.24
-167.512
-266.816
-225.532
-252.589
-142.726
-119.797
-133.606
-9.12165
-1.89335
-31.6511
-33.8082
-33.0636
-47.6791
-132.315
-123.373
-163.151
-81.1064
-81.2829
-101.519
11.7227
24.3232
6.39588
-12.8138
-34.3793
-56.227
-29.6779
-43.5266
-61.3609
21.9971
29.3363
26.1028
37.8317
56.8804
64.376
72.2703
89.2931
106.61
118.563
124.455
127.842
32.9259
3.82053
-13.4581
-8.51848
-17.8093
-29.0205
23.3368
29.3053
30.0871
34.4552
40.2657
52.1981
42.291
42.5434
68.7445
40.4594
31.3422
41.7316
25.5354
12.1327
5.89568
3.17229
-5.59304
-10.5425
27.1216
31.1173
35.0129
26.6348
34.8772
35.8638
31.1443
19.8682
28.3532
19.626
11.7789
13.1259
-152.721
-132.965
-117.161
-209.055
-233.62
-281.094
6.496
-31.2909
-42.4975
-229.847
-226.626
-204.3
-367.829
-408.462
-423.457
-294.857
-332.968
-289.049
-181.119
-193.702
-176.109
-359.483
-398.784
-375.808
-426.424
-432.402
-386.079
-62.2837
-76.9472
-73.8498
-228.646
-248.476
-219.161
-366.855
-340.059
-316.928
-81.0796
-78.3719
-59.9263
-200.504
-179.031
-172.881
108.239
100.09
65.7633
202.426
185.654
169.723
167.185
165.354
199.238
-42.0497
-24.4263
-31.7042
104.651
163.115
90.7577
742.203
637.425
646.027
156.814
190.425
266.978
747.821
778.132
43.3609
66.6044
41.1711
135.923
159.497
81.4873
-68.955
-48.201
-39.6957
-64.7455
-55.7083
-82.2256
1.47483
-26.8836
-44.2578
-145.982
-158.379
-216.215
117.895
72.6285
56.5877
-173.83
-116.453
-136.986
-108.926
-115.871
-147.836
-52.824
-83.3814
-83.2998
-119.251
-112.412
-91.7468
-173.601
-135.893
-143.925
-104.852
-122.847
-166.34
-206.743
-196.451
-175.577
-262.32
-248.698
-253.56
-208.793
-217.035
-230.107
-390.066
-399.312
-387.916
-271.392
-243.288
-315.168
-194.036
-222.683
-237.573
-177.102
-202.388
-177.635
-106.89
-115.461
-96.6238
-176.889
-138.146
-127.066
-146.938
-144.959
-182.603
-222.217
-227.509
-204.828
-283.429
-265.807
-261.316
-276.268
-276.531
-293.817
-262.831
-275.3
-347.25
-215.866
-247.094
-239.101
-246.614
-249.795
-217.441
-52.0048
-67.4322
-59.4728
-95.7503
-77.0716
-57.9269
-112.554
-95.5752
-108.159
-123.185
-138.385
-128.583
-167.141
-149.872
-125.762
-197.147
-188.487
-196.366
-348.336
-356.359
-348.043
-176.972
-212.517
-251.101
-172.66
-191.265
-170.313
-226.492
-210.282
-187.931
-153.037
-159.707
-140.238
-234.505
-227.985
-225.231
-81.1212
-104.164
-115.793
-99.778
-103.912
-82.3224
-148.172
-125.51
-118.548
39.5197
48.2338
58.1943
-25.0636
-12.1224
-16.1276
69.558
83.5974
69.7322
96.3595
88.3394
74.8966
145.098
128.485
121.992
68.9728
77.7627
93.9442
46.8495
68.3691
55.5688
78.9616
71.5062
44.7308
-205.266
-190.118
-199.972
-89.2465
-131.754
-170.232
-97.3355
-110.29
-84.4918
-153.951
-183.621
-156.369
59.2367
65.0632
104.278
-130.97
-106.655
-92.3133
-364.251
-373.701
-381.959
-213.133
-230.373
-220.819
-158.263
-195.459
-180.306
-223.521
-209.126
-182.422
-328.729
-313.664
-333.034
-290.207
-274.342
-275.657
-257.751
-261.712
-275.351
-199.81
-221.739
-215.085
-284.369
-290.668
-288.135
-311.942
-310.95
-300.53
-286.04
-283.556
-276.724
-380.796
-402.898
-356.807
-464.664
-457.899
-451.541
-391.652
-361.017
-345.894
-449.097
-442.728
-451.003
-309.715
-343.579
-372.938
-223.041
-214.066
-205.819
-255.929
-250.128
-264.689
-185.678
-205.012
-214.595
-279.723
-288.54
-292.445
-222.956
-228.01
-223.804
-303.686
-313.612
-312.59
-296.388
-299.522
-287.944
-421.886
-405.982
-370.179
-427.264
-429.739
-437.654
-386.594
-431.904
-426.274
-121.086
-122.689
-139.386
-61.2087
-71.1316
-70.4779
-209.096
-212.305
-217.627
-144.957
-161.646
-152.341
-244.081
-247.361
-241.008
-340.298
-333.867
-328.895
-290.49
-259.403
-247.203
-312.391
-304.505
-316.348
-232.305
-244.282
-249.593
-422.26
-417.444
-421.244
-328.217
-339.874
-356.599
-300.431
-330.204
-300.938
25.5793
29.0933
21.5024
68.0114
61.913
57.6234
-41.6465
-40.9153
-51.1408
13.6034
5.32799
2.63475
-52.8794
-51.259
-38.0933
-133.724
-114.967
-115.406
-212.136
-208.375
-220.353
-134.915
-167.395
-175.995
-153.958
-158.142
-137.759
118.209
146.561
133.432
142.599
147.679
118.045
75.1921
80.0687
73.8264
82.1429
120.509
123.089
-55.8746
-25.3595
-25.1693
-29.7472
-25.3268
-74.9161
48.2819
11.7861
-2.47109
272.143
215.542
193.218
-1.39751
-3.64913
11.606
-38.9081
-20.6328
-11.8568
-5.95851
-19.1464
-21.1605
-16.597
-16.2894
-1.90375
-48.1275
-31.7146
-24.9969
25.99
28.5825
37.1003
-19.187
-12.0651
-12.848
-1.93003
-16.2203
-2.23055
141.888
155.074
207.165
-109.106
-78.6755
-44.6079
-29.3524
-39.127
24.4778
-136.587
-63.796
-66.6901
-77.5192
-73.4614
-116.396
-88.7846
-83.3719
-62.812
-116.877
-91.9471
-98.3969
-87.7035
-92.3209
-107.76
62.2875
64.4811
61.4578
82.6586
79.3325
77.2764
-35.6554
-34.3409
-26.8033
-117.628
-97.7958
-98.8204
-90.7168
-91.7349
-124.288
-53.9359
-81.5306
-78.7754
87.5685
88.9713
85.7083
112.741
108.304
105.645
1.68851
-15.689
-35.6758
18.8072
2.61985
12.0435
-17.1015
-8.12254
6.60662
267.297
315.924
423.08
187.264
276.848
244.756
204.029
276.493
178.563
152.873
187.586
156.586
252.462
297.169
196.111
429.858
338.046
275.503
-66.2192
-137.505
-108.098
94.1967
96.6454
149.41
-58.1891
-24.0941
-35.7136
13.4608
22.7082
-23.3084
-185.479
-166.042
-165.836
-192.35
-194.974
-189.176
82.9043
88.4276
94.6201
44.8358
52.7684
48.5951
-0.0750898
-7.46545
-21.0394
19.8179
6.18606
7.36724
-4.15635
0.775954
13.561
-212.686
-191.347
-170.912
-210.568
-236.732
-218.827
-183.214
-166.613
-178.205
-65.4721
-87.7123
-102.292
-65.6395
-76.8773
-47.2194
-318.342
-329.356
-317.299
-282.365
-295.211
-307.377
-302.684
-300.971
-291.854
-296.853
-305.381
-303.853
-267.042
-264.018
-255.063
-265.538
-272.363
-269.524
-479.688
-476.799
-492.513
-414.453
-433.659
-441.299
-418.2
-425.023
-406.825
-437.641
-459.586
-464.451
-447.924
-454.1
-433.018
-500.374
-484.941
-482.076
-406.876
-398.711
-411.032
-337.206
-356.175
-368.506
-328.793
-343.07
-324.291
-381.102
-400.604
-409.752
-380.005
-390.761
-371.476
-429.994
-419.433
-411.415
-261.646
-265.997
-259.646
-247.991
-252.412
-256.823
-313.719
-314.034
-302.114
-300.309
-311.316
-312.471
-466.366
-470.034
-487.04
-425.331
-448.555
-440.882
-461.767
-455.647
-431.597
-395.895
-413.147
-402.338
-432.459
-423.201
-404.043
-474.278
-458.079
-462.398
-449.25
-474.108
-475.329
-468.545
-471.832
-447.776
-445.183
-471.06
-467.033
-475.254
-473.903
-447.99
-102.207
-117.049
-110.745
-64.2921
-64.0189
-58.3651
-98.387
-92.6812
-94.1859
-80.5519
-81.7552
-92.6795
-162.814
-167.355
-184.093
-287.333
-281.157
-277.596
-296.88
-300.23
-293.668
-381.516
-386.963
-392.612
-360.29
-372.969
-362.555
-392.899
-383.138
-370.076
-319.789
-329.774
-318.575
-351.787
-340.873
-330.224
-374.395
-368.766
-374.209
34.9127
36.8846
32.6524
58.7683
55.9479
53.4882
-21.5886
-31.0516
-32.2734
-19.5545
-20.6793
-15.3804
-53.0676
-47.2667
-46.9568
10.7586
8.97006
17.4676
-9.56079
-0.104847
5.9803
-5.64608
-3.35344
-12.3798
-2.83254
-1.17437
-6.5992
28.0245
23.5067
22.0075
-76.9382
-64.3101
-65.1173
-73.0933
-72.8087
-79.6012
-29.7004
-37.4358
-36.3247
-86.2469
-93.5054
-93.6526
-103.334
-102.463
-90.2894
147.904
160.286
152.216
175.828
163.329
152.635
118.526
120.784
116.771
120.574
132.898
155.156
99.9374
105.421
101.685
56.8137
44.4224
49.6989
24.8237
35.6584
53.7652
85.1863
74.3511
81.6661
56.948
65.9291
75.4218
100.993
108.715
115.458
87.0959
100.274
92.6576
117.738
103.153
90.8828
41.588
35.9247
46.8146
11.6001
24.2056
35.428
13.2781
18.2143
6.4965
216.181
235.887
292.046
160.346
180.194
175.561
162.473
173.451
159.658
140.862
151.05
144.28
158.402
162.454
143.37
275.005
206.157
204.953
427.921
467.598
584.454
321.56
384.933
373.374
331.839
414.819
301.952
307.949
351.646
317.658
403.821
469.251
358.23
599.366
514.8
453.639
-237.806
-243.608
-257.412
-218.128
-230.061
-223.994
-239.993
-234.917
-221.288
-394.933
-407.621
-417.607
-272.543
-269.701
-287.608
-244.065
-257.729
-260.01
-250.169
-253.995
-238.982
-250.268
-263.698
-263.116
-262.202
-262.96
-247.632
-293.653
-275.904
-274.744
-369.166
-363.714
-354.876
25.9836
37.5812
29.6985
54.7807
45.1406
32.8518
67.838
56.8601
66.7668
111.619
119.398
136.329
101.048
109.889
103.337
121.106
112.673
103.629
-12.6709
25.4356
26.8815
29.5887
27.7837
-19.2816
122.633
76.6344
63.7747
-357.183
-365.665
-356.512
-255.803
-233.222
-249.595
-202.456
-217.035
-239.049
-169.984
-194.51
-182.728
-279.401
-296.642
-313.071
-259.481
-279.022
-262.408
-315.598
-296.004
-276.65
-270.525
-272.757
-288.017
-247.082
-259.524
-256.938
-262.648
-260.978
-246.542
-236.223
-248.132
-243.92
-254.645
-251.24
-237.498
-279.079
-265.016
-268.106
-295.078
-292.764
-285.022
-308.493
-300.797
-302.579
-296.784
-298.848
-305.005
-328.005
-316.742
-317.532
-315.471
-316.298
-327.97
-301.066
-310.357
-309.2
-297.171
-292.451
-294.69
-288.268
-290.387
-295.096
-275.756
-281.577
-279.195
-465.147
-461.183
-469.449
-438.439
-450.35
-455.103
-475.913
-490.217
-492.967
-485.332
-488.077
-475.481
-227.76
-239.801
-244.981
-227.23
-233.448
-220.715
-256.954
-243.675
-236.964
-279.61
-283.83
-274.888
-297.753
-290.207
-286.153
-298.593
-294.658
-304.718
-314.604
-314.075
-302.76
-333.478
-320.61
-320.966
-318.492
-319.673
-331.777
-318.54
-305.202
-302.018
-311.536
-308.518
-322.406
-292.013
-302.847
-305.369
-466.345
-482.194
-478.732
-488.739
-485.842
-471.376
-436.483
-431.105
-422.481
-444.466
-437.156
-442.506
-483.382
-498.534
-500.368
-494.99
-497.245
-483.752
-478.368
-494.706
-492.151
-498.977
-497.383
-482.501
-260.908
-254.089
-250.888
-259.504
-256.07
-263.255
-243.047
-249.263
-252.264
-322.719
-327.245
-320.936
-281.036
-293.287
-299.602
-277.131
-284.508
-273.027
-307.234
-295.841
-287.988
-232.455
-238.523
-227.444
-261.445
-249.868
-243.663