/*--------------------------------*- C++ -*----------------------------------*\
| =========                 |                                                 |
| \\      /  F ield         | OpenFOAM: The Open Source CFD Toolbox           |
|  \\    /   O peration     | Version:  5.x                                   |
|   \\  /    A nd           | Web:      www.OpenFOAM.org                      |
|    \\/     M anipulation  |                                                 |
\*---------------------------------------------------------------------------*/
FoamFile
{
    version     2.0;
    format      ascii;
    class       surfaceScalarField;
    location    "400";
    object      phi;
}
// * * * * * * * * * * * * * * * * * * * * * * * * * * * * * * * * * * * * * //

dimensions      [0 3 -1 0 0 0 0];

internalField   nonuniform List<scalar> 
13181
(
0.000410259
0.412039
0.000403798
0.412521
0.000362027
0.412534
0.000315185
0.412539
0.000235129
0.412595
-9.40329e-05
0.412822
-0.000298099
0.412703
-0.000328885
0.412532
-0.00027677
0.412447
-7.10574e-05
0.412294
0.000311556
0.412119
0.000801051
0.41201
0.0012565
0.412044
0.00153529
0.412223
0.001587
0.412448
0.00145042
0.412636
0.00119502
0.412757
0.000880682
0.412814
0.000375112
0.412998
-5.94172e-05
0.41295
-0.000620413
0.413053
-0.000847012
0.412719
-0.000889791
0.412558
0.411535
0.000595747
0.411332
0.00163964
0.411478
0.00167267
0.412501
0.00166653
0.412545
0.00141365
0.412848
0.000566387
0.413669
-0.00055081
0.413821
-0.000906722
0.412888
-0.000866773
0.412407
-0.000467372
0.205942
0.205952
0.000305635
0.20567
0.205676
0.00133596
0.205481
0.205499
0.00229788
0.20552
0.205562
0.0028806
0.205794
0.205846
0.00297753
0.20615
0.206201
0.00234804
0.413265
0.00137691
0.413728
0.000408995
0.413782
-0.000611841
0.414019
-0.000964206
0.413302
-0.000984013
0.413073
-0.00102361
0.412759
-2.80925e-05
0.411562
0.411337
-0.000114006
0.411266
5.09536e-05
0.411313
0.000974165
0.411578
0.000917341
0.412602
0.000998138
0.412767
0.00108857
0.413578
-0.00036356
0.415273
-0.00132768
0.413852
-0.00073095
0.41273
-0.000919126
0.205812
-0.000601376
0.205449
-0.000209421
0.000430594
-8.81157e-05
0.205134
0.000434397
-0.000817426
0.205154
0.00118347
-0.00150116
0.205553
0.00174217
-0.00187117
0.206144
0.00187687
0.00180149
0.207443
-0.00142456
-0.00194371
0.207389
0.000112683
0.415417
-0.000437742
0.414332
-0.000360719
0.413942
-0.00041147
0.413353
-0.000469636
0.413131
0.000322366
0.411967
0.000367464
0.411517
0.411433
-0.00035994
0.41138
-0.000456826
0.41141
-0.00043709
0.411558
0.000224624
0.411941
6.94591e-05
0.412922
0.000135669
0.413512
-1.05281e-05
0.415419
-0.000886327
0.414728
-0.00136288
0.207725
-0.00146857
0.206949
0.205611
-0.0012199
-0.205754
0.204863
-0.000708635
-0.205179
0.00102524
0.000224029
0.204025
0.000412879
-0.204662
-0.00114366
0.20393
0.00185456
-0.204641
-0.00238967
0.205345
0.00233761
-0.205293
-0.00157958
0.207497
0.000637625
-0.206555
-2.05291e-05
0.207567
-0.000103257
0.00133746
0.207528
-0.000532693
-2.95786e-05
0.207114
0.00107169
0.414598
0.000720998
0.414293
0.000255285
0.413818
0.000783327
0.412603
0.000758994
0.411991
0.000526415
0.41175
0.4116
-0.000425931
0.411505
-0.000592064
0.411576
-0.000787047
0.411753
-0.000816153
0.41197
-0.000456423
0.412563
-0.000529497
0.413585
0.00105929
0.41383
0.00119074
0.206501
0.000684
0.207412
0.208964
-4.78684e-05
0.205986
-0.00125267
-0.205667
0.000933973
0.204851
-0.00167949
-0.204608
0.00143551
0.00102531
0.0001007
-0.203178
0.101014
0.101039
-0.00151734
0.00293217
-0.202954
0.10077
0.100769
-0.00339687
0.00179131
-0.206139
0.103597
0.104147
-0.00228665
0.207469
0.00236719
-0.20755
-0.00201247
0.20788
0.00203822
-0.207906
-0.00196472
0.207564
0.00192843
0.00222068
0.415813
-0.0018457
-0.00158998
0.00135353
0.41516
0.00145853
0.413713
0.00122887
0.412833
0.000869743
0.41235
0.000612388
0.412007
0.41179
-0.000460635
0.411625
-0.000632884
0.411748
-0.00086201
0.411982
-0.0011918
0.412299
-0.00133776
0.412709
-0.00135659
0.413604
-0.000869242
0.414567
-0.00122443
0.206889
-0.00125734
0.207216
0.000473691
-0.208688
0.000998668
0.206298
0.00134672
-0.20642
-0.00122523
-0.102878
-0.000204649
0.103135
-5.21556e-05
-0.100492
0.000566973
0.100613
-0.000688128
-0.0997588
-0.000898849
0.099192
0.00146566
-0.103115
-0.00118006
0.10183
0.00246561
-0.00180255
0.0045958
-0.207751
-0.00197343
0.103274
0.103658
-0.00445105
0.208548
0.0038353
-0.207932
-0.00314121
-0.208015
0.208606
0.0025501
0.00285314
0.417405
-0.00232192
-0.00212366
0.00227748
0.415735
0.00178851
0.414202
0.00126046
0.413361
0.000902805
0.412708
0.000633105
0.412277
0.411975
-0.000480608
0.411749
-0.000659239
0.411927
-0.000868986
0.412192
-0.00115997
0.41259
-0.00159232
0.413141
-0.00195953
0.413971
-0.00129748
0.415177
-0.00127179
-0.207254
0.207647
-0.00169021
-0.207245
0.207861
-0.0028053
0.00218887
-0.206768
0.207826
0.00362145
-0.00220427
-0.00247539
-0.102627
0.00226285
0.10268
-0.00231569
-0.0502156
0.000813932
0.0500563
-0.000654664
-0.000453164
-0.0476509
0.0474113
0.00069272
-0.00203708
-0.102612
0.00401719
-0.0014146
0.0504349
0.0516121
-0.00464556
-0.103897
0.10443
0.00411221
-0.00619646
-0.209594
0.210874
0.00491736
-0.00387734
-0.209288
0.210133
0.00303279
0.0032879
0.418778
-0.00231425
-0.00234651
0.00243881
0.416584
0.00164512
0.414996
0.00112198
0.413884
0.000774355
0.413055
0.000532979
0.412518
0.41208
-0.000439863
0.41184
-0.000602674
0.412089
-0.000782959
0.412372
-0.00107028
0.412878
-0.00145016
0.413521
-0.002006
0.414527
-0.00118996
0.415761
-0.00139986
-0.208048
0.208463
-0.00160462
-0.208651
0.209394
-0.00290319
0.00215973
-0.209274
0.210818
0.00395857
-0.00270186
-0.00280135
-0.104255
0.00390409
0.105133
-0.00478199
-0.0510219
0.00440471
0.0516396
-0.00502242
-0.0064182
-0.052064
0.0526775
0.00580471
-0.00654634
-0.106457
0.107431
0.00557222
-0.00725439
-0.212561
0.214223
0.00559234
-0.00435545
-0.211145
0.212044
0.00345693
0.00309434
0.420831
-0.00243338
-0.00271434
0.00179145
0.417887
0.00118302
0.415604
0.000782547
0.414285
0.000549625
0.413288
0.000423121
0.412645
0.412147
-0.000389227
0.411912
-0.000473497
0.412174
-0.000597442
0.412496
-0.000742372
0.413023
-0.000940561
0.413719
-0.00121198
0.414799
-0.000958579
0.416221
-0.000713513
-0.208509
0.20881
-0.00125923
-0.210266
0.21078
-0.00233924
0.00182535
-0.212265
0.213218
0.00300206
-0.00212383
-0.00183086
-0.107548
0.00306558
0.108133
-0.00365107
-0.0553994
0.00336371
0.0557396
-0.00370395
-0.0055051
-0.0572175
0.0577134
0.00500919
-0.00506189
-0.110176
0.110986
0.00425206
-0.00503763
-0.215788
0.216975
0.00385101
-0.00294437
-0.212846
0.213451
0.00233895
0.00218908
0.421713
-0.00128354
-0.00178724
0.00108137
0.418995
0.000482437
0.416203
0.000313195
0.414454
0.000222783
0.413379
0.000177347
0.41269
0.41209
-0.000296001
0.41194
-0.000362267
0.41224
-0.000396578
0.412531
-0.000446901
0.413073
-0.000428534
0.413701
-0.000380137
0.41475
-0.000252029
0.416085
7.36329e-06
-0.20907
0.209326
-0.000508091
-0.211039
0.211039
-0.000535675
0.000535536
-0.213645
0.213509
0.00046431
-0.000338995
1.1051e-05
-0.109022
0.000412543
0.109004
-0.000395075
-0.056823
0.000249202
0.0568025
-0.00022866
-0.00115663
-0.0596636
0.0597185
0.00110164
-0.00118578
-0.112437
0.112583
0.00104011
-0.00099247
-0.217665
0.21779
0.000867894
-0.00077108
-0.213841
0.213971
0.000640876
0.000588196
0.421589
7.9313e-06
-0.000472124
0.000679386
0.418904
-6.06708e-05
0.416943
-0.000270328
0.414664
-0.000146592
0.413255
-7.05017e-05
0.412614
0.411946
-0.000221365
0.411953
-0.000229781
0.412248
-0.000206441
0.412507
-0.000110468
0.412977
4.18288e-06
0.413586
0.000349156
0.414405
0.000359731
0.415613
0.000462157
-0.209368
0.209322
0.000405799
-0.210802
0.21036
0.00114235
-0.000700405
-0.212873
0.211893
-0.00182235
0.00127093
0.00153108
-0.108128
-0.00194643
0.107629
0.00244507
-0.0554924
-0.00236962
0.0551955
0.00266644
0.00300587
-0.058578
0.0582603
-0.0026882
0.00272104
-0.11195
0.111474
-0.00224495
0.00294952
-0.217379
0.216548
-0.00211846
0.00144351
-0.213798
0.213395
-0.0010408
-0.000998424
0.420643
0.00114265
0.00080154
-0.000339638
0.418245
3.58759e-05
0.416568
-0.000839154
0.415539
-0.000576022
0.412992
-0.000336899
0.412375
0.411724
-0.000135499
0.41194
-7.92981e-05
0.412192
-1.45628e-06
0.41243
0.000150814
0.412825
0.000442676
0.413294
0.000956468
0.413891
0.000720092
0.415052
0.000796529
-0.209039
0.20874
0.0010182
-0.209808
0.209214
0.00204842
-0.00145469
-0.210714
0.209534
-0.00288769
0.00202157
0.00204613
-0.10588
-0.00292319
0.105291
0.00351255
-0.0529225
-0.00311018
0.0526068
0.00342588
0.00484637
-0.0555411
0.0551382
-0.00444355
0.0048636
-0.109473
0.108733
-0.00412335
0.00539377
-0.215317
0.213861
-0.0039376
0.00295827
-0.212793
0.212088
-0.00225404
-0.00205504
0.419097
0.00187777
0.00172348
-0.00110277
0.417293
-0.000466393
0.415932
-0.000161203
0.415234
-0.000949009
0.41378
-0.000615164
0.412041
0.411418
-7.17111e-05
0.411916
5.51151e-06
0.412115
0.000105605
0.412329
0.00030602
0.412624
0.000596676
0.413003
0.00110424
0.413384
0.000908094
0.414356
0.000892668
-0.208408
0.208089
0.00122658
-0.208633
0.208128
0.00208613
-0.00158169
-0.208454
0.207592
-0.00273915
0.00186348
0.00173758
-0.103768
-0.00253296
0.10339
0.00291114
-0.0508151
-0.00231446
0.0506575
0.00247209
0.00445737
-0.0523411
0.0519851
-0.00410133
0.00482803
-0.106577
0.105958
-0.00420823
0.00562037
-0.212279
0.21098
-0.00432131
0.00336321
-0.211367
0.210674
-0.00267082
-0.00245255
0.417518
0.00200561
0.00202599
-0.0014287
0.416269
-0.000716014
0.415219
-0.00058534
0.415103
-0.00109524
0.41429
-0.00085961
0.411805
0.411056
-1.17678e-05
0.411871
4.38157e-05
0.412059
0.000159999
0.412213
0.000318867
0.412466
0.000562674
0.41276
0.00091157
0.413035
0.00133142
0.413936
0.00121448
0.415095
0.000763661
-0.207837
-0.207905
-0.207744
0.20752
0.00143896
-0.206986
0.207511
0.000852695
-0.00137744
-0.103056
0.00027554
0.104301
-0.00152089
-0.0514055
0.00218264
0.0506427
-0.00141986
-0.0189254
0.00064463
0.0189747
-0.000693876
0.00153325
-0.0506137
0.101843
-0.00323629
0.00130486
-0.0508315
-0.104658
0.0033112
0.104474
-0.00312765
0.00420142
-0.209994
0.209255
-0.00346201
0.00283487
-0.210162
0.209994
-0.00266672
-0.00228174
0.416334
0.00162961
0.00183635
-0.00140362
0.415391
-0.000763108
0.414578
-0.00127586
0.415616
-5.06027e-05
0.413064
-0.000943628
0.412698
0.410775
-2.21167e-05
0.41186
1.93113e-05
0.412018
8.7133e-05
0.412145
0.000178761
0.412374
0.000343555
0.412595
0.000461824
0.412917
8.66592e-06
0.414389
-0.000746914
0.417589
-0.00173781
-0.208063
0.20897
-0.00165352
-0.208164
0.207423
-0.000958859
0.00170012
-0.103028
-0.000229137
0.102921
0.000335736
-0.101799
0.000248875
0.102146
-0.000595788
-0.0429274
0.00173723
0.0886854
-0.00246375
-0.0450314
-0.103209
0.00282169
0.102966
-0.00257853
-0.207789
0.00313348
0.208299
-0.00572232
0.0020797
0.00533843
-0.208858
0.208339
-0.00481954
-0.00596903
0.416001
0.00300086
0.00442746
-0.210702
-0.206759
-0.00474042
0.415105
-0.00381292
0.414463
-0.00296883
0.413734
-0.000499605
0.413146
-4.81237e-05
0.412613
0.000307194
0.412343
0.411883
-3.0469e-05
0.411867
-3.46161e-05
0.412022
-2.44859e-05
0.412135
1.36274e-05
0.412336
2.61043e-05
0.412582
-0.000167184
0.41311
-0.00141449
0.415637
-0.00173459
0.417918
-9.65456e-06
-0.208906
0.207684
-0.000512863
-0.206974
0.207042
1.6411e-05
-8.43232e-05
-0.206461
0.206908
-0.000679812
0.000233379
-0.102895
0.000610546
0.103065
-0.000780429
-0.0902086
0.00118523
0.0908324
-0.00180906
-0.102927
0.00183092
0.206363
-0.00401666
-0.103015
0.00176379
-0.20791
0.00443516
0.207622
-0.00414697
-0.208019
0.00393207
0.207744
-0.0036566
-0.00446356
0.414338
0.00286481
0.00326165
-0.00315148
0.413793
-0.00267424
0.413986
-0.00240123
0.413461
-0.00211275
0.412858
-0.00177857
0.412279
-0.00131724
0.411882
0.411474
-7.61961e-05
0.411917
-8.4213e-05
0.41203
-0.000110885
0.412162
-0.000147021
0.412372
-0.000232527
0.412668
-0.000827374
0.413705
-0.00169044
0.4165
-0.000470797
0.416699
-0.000288969
0.41533
-0.207691
-0.207418
-0.000403212
-0.207224
0.207348
-0.000412765
-0.207277
0.207581
-0.000919822
0.000616002
-0.206764
0.00128827
0.206957
-0.00148141
-0.190587
0.00196481
0.191364
-0.00274166
-0.20678
0.00293086
0.206924
-0.00307551
-0.207382
0.00304841
0.207259
-0.00292561
-0.207557
0.00284988
0.207416
-0.00270882
-0.00437014
0.413802
0.00239592
0.0025101
-0.00363538
0.413058
-0.00287282
0.413224
-0.00208366
0.412672
-0.00137918
0.412153
-0.00107256
0.411972
-0.000969809
0.411779
0.411491
-0.000108695
0.411987
-0.000165102
0.412086
-0.000247802
0.412245
-0.000327498
0.412452
-0.000584326
0.412925
-0.00165907
0.41478
-0.0017215
0.416562
-0.000849892
0.415827
-0.00119938
0.415679
-0.00085276
0.415671
-0.207493
-0.207574
-0.000951158
-0.207841
0.208066
-0.00107773
-0.207018
0.00140882
0.206725
-0.00111563
-0.192048
0.00169353
0.192903
-0.002548
-0.207075
0.00214033
0.207218
-0.00228335
-0.00434977
0.414383
-0.207237
-0.207211
0.0021315
0.00228273
-0.00415432
0.414355
-0.207306
-0.207245
-0.00378759
0.413436
-0.00345913
0.41273
-0.00279047
0.412555
-0.00220842
0.41209
-0.00171975
0.411665
-0.00131833
0.411571
-0.000761573
0.411222
0.411765
-0.000146047
0.412075
-0.000247755
0.412188
-0.000335424
0.412332
-0.00044806
0.412564
-0.00065445
0.413131
-0.00147639
0.415602
-0.00118437
0.41627
-0.000895394
0.415538
-0.00131536
0.416099
-0.0018365
0.416192
-0.00224105
0.416921
-0.208338
-0.208178
-0.00294015
0.403988
-0.205289
-0.198001
-0.00367632
0.399233
-0.194766
-0.203732
-0.00373161
0.415109
-0.207427
-0.207627
-0.00369215
0.414343
-0.00357842
0.414241
-0.00331478
0.413172
-0.00305167
0.412467
-0.00256876
0.412072
-0.0021531
0.411674
-0.00185085
0.411362
-0.00137543
0.411095
-0.000976042
0.410823
0.411852
-0.00018508
0.412178
-0.00028282
0.412286
-0.000414149
0.412464
-0.000550133
0.4127
-0.000759503
0.41334
-0.00124133
0.416083
-0.00109683
0.416126
-0.00103376
0.415475
-0.00134583
0.416411
-0.00175637
0.416603
-0.00205656
0.417221
-0.00249099
0.404423
-0.00294937
0.399692
-0.00309361
0.415253
-0.0031753
0.414425
-0.00310845
0.414174
-0.00292845
0.412992
-0.00271188
0.41225
-0.002363
0.411723
-0.00202706
0.411338
-0.00172304
0.411058
-0.00136908
0.410741
-0.00103714
0.410491
0.411885
-0.000223816
0.412293
-0.000358363
0.41242
-0.000504891
0.41261
-0.000656382
0.412852
-0.00081284
0.413497
-0.00101071
0.416281
-0.00104282
0.416158
-0.00110357
0.415536
-0.0013622
0.41667
-0.0017014
0.416942
-0.00190838
0.417428
-0.00220721
0.404722
-0.00253296
0.400018
-0.00264709
0.415367
-0.00276155
0.414539
-0.00271881
0.414132
-0.00259311
0.412866
-0.00243735
0.412094
-0.0021793
0.411465
-0.00190678
0.411066
-0.00163631
0.410788
-0.0013304
0.410435
-0.00104048
0.410201
0.411908
-0.000261155
0.412417
-0.000405836
0.412565
-0.000539761
0.412744
-0.000700612
0.413013
-0.000864027
0.41366
-0.000951351
0.416369
-0.00106776
0.416274
-0.00127883
0.415747
-0.00135424
0.416745
-0.00163388
0.417222
-0.00179758
0.417592
-0.00198453
0.404909
-0.0022058
0.400239
-0.00231879
0.41548
-0.00242007
0.414641
-0.00239569
0.414107
-0.00231206
0.412783
-0.00220458
0.411987
-0.00197621
0.411237
-0.0017985
0.410888
-0.00152967
0.410519
-0.00128772
0.410193
-0.00105779
0.409971
0.411897
-0.000319212
0.41257
-0.000425248
0.412671
-0.00058748
0.412906
-0.000730361
0.413155
-0.000895159
0.413825
-0.00098023
0.416454
-0.00109528
0.416389
-0.00128694
0.415939
-0.00132583
0.416784
-0.00155702
0.417453
-0.00168773
0.417723
-0.00180075
0.405022
-0.00194906
0.400387
-0.00205148
0.415583
-0.00214123
0.414731
-0.00212627
0.414092
-0.00206774
0.412724
-0.00196523
0.411884
-0.0018212
0.411093
-0.00166036
0.410727
-0.00142923
0.410288
-0.00122239
0.409987
-0.001003
0.409752
0.411914
-0.000330233
0.412703
-0.00048485
0.412826
-0.000626777
0.413048
-0.000770886
0.4133
-0.000933236
0.413987
-0.000990602
0.416511
-0.00110301
0.416502
-0.00127481
0.41611
-0.00139929
0.416909
-0.00148473
0.417538
-0.00158439
0.417822
-0.00164631
0.405084
-0.00174268
0.400483
-0.00183386
0.415674
-0.001911
0.414808
-0.00190233
0.414084
-0.00185965
0.412681
-0.00178219
0.411807
-0.00164549
0.410956
-0.00151485
0.410597
-0.00135933
0.410133
-0.00118136
0.409809
-0.00101261
0.409583
0.411888
-0.000362144
0.412837
-0.000495151
0.412959
-0.000659314
0.413212
-0.000802142
0.413442
-0.000937058
0.414122
-0.000987585
0.416562
-0.00109968
0.416614
-0.00125228
0.416263
-0.00140435
0.417061
-0.00141073
0.417545
-0.00148972
0.417901
-0.00150513
0.405099
-0.0015747
0.400553
-0.00164081
0.41574
-0.00171611
0.414883
-0.0017119
0.414079
-0.00168516
0.412655
-0.0016282
0.41175
-0.00153616
0.410864
-0.001429
0.41049
-0.00125357
0.409957
-0.0010993
0.409654
-0.000954068
0.409438
0.411884
-0.000392701
0.412969
-0.000524662
0.413091
-0.000663836
0.413352
-0.000803623
0.413582
-0.000954962
0.414274
-0.000997875
0.416604
-0.00108539
0.416701
-0.00122242
0.4164
-0.00135683
0.417195
-0.00160279
0.41779
-0.00159502
0.417893
-0.00155611
0.40506
-0.00155337
0.40055
-0.00160917
0.415796
-0.00165499
0.414929
-0.00165119
0.414076
-0.00164057
0.412644
-0.00161036
0.41172
-0.00158001
0.410834
-0.00137903
0.410289
-0.0012238
0.409802
-0.00106617
0.409497
-0.000918014
0.40929
0.411874
-0.00042226
0.4131
-0.000551593
0.41322
-0.00066437
0.413464
-0.000822545
0.41374
-0.000944238
0.414395
-0.00100186
0.416662
-0.00106828
0.416768
-0.00119105
0.416523
-0.00142228
0.417426
-0.00162992
0.417998
-0.0016773
0.417941
-0.00165715
0.40504
-0.00167772
0.400571
-0.00174307
0.415861
-0.00178833
0.414974
-0.00178416
0.414071
-0.00176632
0.412626
-0.00170376
0.411657
-0.00164118
0.410771
-0.00156457
0.410212
-0.00144667
0.409684
-0.00134822
0.409398
-0.00121559
0.409157
0.411521
-0.000451028
0.413226
-0.000576587
0.413346
-0.000707096
0.413595
-0.000815104
0.413848
-0.00092951
0.41451
-0.000979314
0.416712
-0.00105074
0.416839
-0.00126956
0.416742
-0.0014668
0.417623
-0.0015773
0.418109
-0.00160709
0.417971
-0.00157367
0.405006
-0.00157811
0.400575
-0.00163023
0.415913
-0.00166986
0.415014
-0.00166776
0.414069
-0.00165257
0.412611
-0.00161597
0.411621
-0.00154045
0.410696
-0.00147373
0.410145
-0.00139011
0.4096
-0.00128055
0.409289
-0.00118219
0.409059
0.411156
-0.000479224
0.413347
-0.000577495
0.413444
-0.00070238
0.41372
-0.0008051
0.413951
-0.000934743
0.414639
-0.000977208
0.416754
-0.0011384
0.417
-0.00134866
0.416952
-0.00143521
0.41771
-0.00152647
0.4182
-0.0015504
0.417995
-0.00150278
0.404959
-0.00149289
0.400565
-0.00154036
0.415961
-0.0015737
0.415047
-0.00157101
0.414067
-0.00155714
0.412597
-0.00152239
0.411586
-0.0014759
0.410649
-0.00139395
0.410063
-0.00129714
0.409504
-0.00124029
0.409232
-0.00112866
0.408947
0.410798
-0.00048423
0.41344
-0.000622424
0.413582
-0.000718545
0.413816
-0.000838515
0.414071
-0.000915864
0.414717
-0.0010873
0.416926
-0.00126011
0.417173
-0.00132997
0.417022
-0.00140704
0.417787
-0.00148669
0.41828
-0.00149769
0.418006
-0.00144328
0.404904
-0.00141997
0.400542
-0.0014616
0.416002
-0.00149449
0.41508
-0.00148861
0.414061
-0.00147764
0.412586
-0.00144319
0.411551
-0.00140167
0.410607
-0.00132459
0.409986
-0.00125678
0.409436
-0.00116073
0.409136
-0.00107775
0.408864
0.410446
-0.000533653
0.413548
-0.000620951
0.413669
-0.000710671
0.413906
-0.000825478
0.414186
-0.00105466
0.414946
-0.00133318
0.417204
-0.00124923
0.417089
-0.00131129
0.417084
-0.00137816
0.417854
-0.00145095
0.418352
-0.00145745
0.418012
-0.00139412
0.404841
-0.00136438
0.400512
-0.00140133
0.416039
-0.00142563
0.415104
-0.00142317
0.414058
-0.00141255
0.412576
-0.00137717
0.411516
-0.00131677
0.410547
-0.00128732
0.409957
-0.00120192
0.40935
-0.00113139
0.409065
-0.00105245
0.408785
0.410072
-0.000536606
0.413625
-0.000640854
0.413774
-0.000746429
0.414011
-0.000811381
0.414251
-0.00148714
0.415622
-0.00130775
0.417025
-0.00124183
0.417023
-0.00129791
0.41714
-0.00135788
0.417914
-0.00142134
0.418416
-0.00142243
0.418013
-0.00135444
0.404773
-0.00131608
0.400474
-0.00135125
0.416074
-0.00137487
0.415128
-0.00136851
0.414052
-0.00135814
0.412565
-0.00132304
0.411481
-0.00128764
0.410512
-0.00121479
0.409884
-0.00117743
0.409313
-0.00108562
0.408973
-0.00100885
0.408708
0.409699
-0.000582658
0.413717
-0.000636462
0.413827
-0.000735087
0.41411
-0.00120434
0.41472
-0.00151107
0.415928
-0.0013286
0.416843
-0.00123321
0.416928
-0.00128545
0.417192
-0.00133897
0.417967
-0.00139782
0.418475
-0.00139211
0.418007
-0.00132367
0.404705
-0.00128327
0.400434
-0.00131259
0.416104
-0.00133425
0.415149
-0.00132801
0.414046
-0.00131839
0.412556
-0.00127991
0.411443
-0.00124709
0.410479
-0.00119611
0.409833
-0.00111676
0.409234
-0.00104637
0.408903
-0.000948196
0.40861
0.409344
-0.000580248
0.413776
-0.000675175
0.413922
-0.000743892
0.414179
-0.00132491
0.415301
-0.00146599
0.41607
-0.00130538
0.416682
-0.00122772
0.41685
-0.00127643
0.417241
-0.00132324
0.418014
-0.00137948
0.418531
-0.00137224
0.418
-0.00130168
0.404634
-0.00125933
0.400391
-0.00128445
0.416129
-0.0013055
0.415171
-0.0012958
0.414036
-0.00128813
0.412548
-0.0012468
0.411401
-0.00121725
0.410449
-0.00116387
0.40978
-0.00110969
0.409179
-0.00101414
0.408808
-0.000938495
0.408534
0.408962
-0.00059414
0.413825
-0.000665788
0.413994
-0.000725395
0.414238
-0.00117373
0.415749
-0.00139547
0.416291
-0.0013305
0.416617
-0.00121962
0.416739
-0.00127521
0.417296
-0.00131241
0.418051
-0.00136862
0.418587
-0.00135636
0.417988
-0.00128851
0.404566
-0.00124591
0.400349
-0.00126788
0.416151
-0.00129188
0.415195
-0.00127279
0.414017
-0.00127358
0.412549
-0.00124535
0.411373
-0.0012001
0.410404
-0.00114048
0.40972
-0.00106935
0.409108
-0.00101235
0.408751
-0.000916424
0.408439
0.408571
-0.000625833
-0.00069821
-0.000726622
-0.000953176
-0.00107465
-0.00133397
-0.00121471
-0.00127354
-0.00129681
-0.00135417
-0.00133846
-0.00128481
-0.00124903
-0.00125777
-0.00128207
-0.00125761
-0.00126486
-0.00120657
-0.00119087
-0.00112427
-0.00108113
-0.000973052
-0.000923987
0.00371474
-0.00410187
-0.0550123
0.0574933
0.00590982
-0.0568713
-0.00321531
-0.0033166
-0.0516049
-0.00709947
0.0522862
0.000659431
-0.0006793
-0.0568032
0.0601774
0.00175533
-0.0600523
-0.000879125
-0.00100127
0.0580416
-0.00298154
-0.00307186
-0.00213459
0.00241673
-0.0557745
0.0588953
-0.00260031
-0.0592431
0.00151745
0.00143061
0.0602402
-0.000548367
-0.000671081
-0.00311631
0.00343579
-0.053242
0.0555239
-0.00477039
-0.0559705
0.00521697
0.0585231
0.00172733
0.00165074
-0.00246261
0.00266426
-0.0510168
0.0520399
-0.00461778
-0.052446
0.00502392
0.00531926
0.055051
0.0023089
-0.00304856
-0.0506658
-0.000733706
0.0208981
0.000489412
-0.0104319
-0.0102219
-0.000880626
-0.00899389
-0.0097846
0.0502529
-0.00235598
-0.0501845
0.00228766
0.0047901
0.0517071
0.00417859
-0.00465708
-0.0505434
-0.0474061
8.51249e-05
0.0468678
0.00593013
-0.0510287
-0.00650641
-0.0500358
-0.00229032
0.050289
0.00356178
-0.00429963
-0.10681
0.0551522
-0.0548068
0.00336936
-0.051499
0.0039256
0.0519781
0.0138414
0.00554253
-0.027327
0.0138973
-0.0029439
-0.00301034
0.0049551
-0.0240966
-0.00537769
0.0245192
0.00535599
-0.0566637
0.110818
0.00576844
-0.109721
-0.00686623
-0.106181
-0.007703
0.107338
0.00112196
-0.00125767
-0.108886
0.0564915
-0.0564693
0.00063728
0.00304856
0.0554673
0.0564666
0.00226063
-0.00245531
-0.0562719
0.0289258
-0.000779143
-0.0288681
0.0014495
-0.000728049
-0.0284465
-0.00248497
0.00239018
0.0285413
0.0147859
0.000480607
-0.0151664
-0.000100075
-0.0148185
0.00232162
-0.00254877
0.0150456
0.00164137
-0.0595496
0.113484
0.0022632
-0.113139
-0.00260824
-0.00603662
0.111793
-0.00146072
0.00188048
-0.108548
0.055354
-0.0556059
-0.00188269
0.000254208
0.0564865
0.0564676
-0.000911902
0.00106188
-0.0566176
0.0294315
0.00061598
-0.0295166
-0.00088922
0.00035831
-0.0295008
-0.000123726
0.000149451
0.029485
-9.95016e-06
0.0138382
2.54576e-05
-0.0138155
-4.81406e-05
-0.0138636
5.60477e-05
0.0138814
-7.38743e-05
-0.00230727
-0.058871
0.112746
-0.00183696
-0.11322
0.00231089
-0.00131536
0.113613
-0.00283275
0.00343195
-0.10648
0.0530045
-0.0533009
-0.00281993
-0.00210354
0.055088
0.0542295
-0.00287501
0.00320683
-0.0545613
0.00225974
0.0272631
-0.0273824
-0.00214041
-0.0282533
0.000980701
-0.00181548
0.0280846
0.00100354
0.0152344
-0.00191917
-0.0156085
0.00229336
-0.0144822
-0.000397574
6.04339e-05
0.0148194
-0.00433253
-0.0559789
0.109693
-0.00446793
-0.110578
0.00535264
0.00332834
0.112139
0.0263362
-0.00350965
-0.0264658
0.00183446
0.00180481
-0.013804
-0.00173955
0.0017783
0.0137652
-0.00424762
-0.0527113
0.106252
-0.00500595
-0.107053
0.00580726
0.0057482
0.108809
0.02416
-0.00247032
-0.0242551
0.00256541
-0.0251603
-0.00316339
0.00330521
0.0250185
2.29053e-05
-0.000428045
-0.101394
-0.000917592
0.0451236
-0.0447375
0.000531477
0.000500245
0.0210424
-0.00150362
-0.0423414
-0.00306191
0.102806
-0.103201
0.00345775
0.0013218
0.0504643
-0.00255371
-0.0284014
0.00250865
-0.00369242
-0.0271848
0.00345785
0.0274194
-0.0535244
0.00449201
0.0540632
-0.00503083
-0.0272596
0.0275317
-0.00200117
-0.00196329
0.0285132
-0.0285937
-0.00125059
-0.0012226
0.00373835
-0.0244986
0.0248329
-0.00407272
0.00380586
-0.00404871
-0.0270168
0.00206362
-0.0149122
-0.00196993
0.00276367
-0.00284481
0.0139226
-0.0547252
0.00677508
-0.00753153
0.0554816
-0.0275824
-0.00273056
0.0279269
0.00514973
0.0148782
0.00206442
-0.014879
-6.97897e-05
-0.029521
0.000287775
-0.000197766
-0.00079157
0.00139361
0.0291588
-0.000835049
0.00186251
0.0566239
-0.00201986
-0.0144002
0.0145198
-0.000911215
0.0150467
-9.20426e-05
-0.0150245
0.0143352
0.0143445
-0.00126933
-0.00138211
-0.000796678
-0.0143826
-1.8413e-05
-0.0139407
9.54953e-05
0.000768439
-0.000302024
0.0143195
-0.0593029
0.00348857
0.0596139
-0.00184378
-0.00195582
-0.0149224
0.0146362
0.00105469
0.0152201
0.000105433
-0.0153439
0.015049
0.00215082
0.000816913
-0.0152587
0.00403824
-0.058945
-0.0021425
-0.00225359
0.000991084
-0.028414
-0.00173365
0.000903245
0.000581092
-0.00110195
0.0291404
0.000812002
-0.00125346
0.0562624
0.00145874
-0.0152235
0.0150367
0.000767851
0.0142664
0.0010706
-0.0143459
0.0149953
-7.22665e-05
0.000591398
-0.0151989
-0.000687311
-0.0140773
0.000282422
-6.87541e-06
0.0138495
-4.43036e-06
-0.060019
-0.00115518
0.0598126
0.000733768
0.000627784
-0.0152048
0.0152824
-8.45306e-05
0.0146558
-0.000937402
-0.0144057
0.015157
0.000119112
-6.1813e-05
-0.0151175
-0.00060836
-0.0601605
0.000430528
0.000319406
-0.0272487
-0.00227252
0.0271738
0.00113919
0.00120822
0.0262651
-0.00231787
0.00241804
-0.0263653
0.0141447
0.00110242
-0.0273378
0.00117929
0.00116962
-0.00180297
-0.0138901
0.00188911
-0.0020941
0.00265009
0.0146784
-0.0572916
-0.00422666
0.0568537
0.00234687
0.00231764
-0.0150336
0.0147081
-0.00176859
0.0276422
0.00178018
-0.0033449
-0.0278805
0.0149517
-0.000693468
-0.00168926
-0.0152635
-0.00398607
-0.0577178
0.00223196
0.00218029
-0.0254062
-0.00203443
0.0253178
0.00212277
0.0248076
-0.00167567
0.00174098
-0.0248729
-0.00231011
0.026198
0.00237728
-0.00208061
0.00218314
-0.0255087
-0.00320411
-0.0253199
0.00336371
-0.00350095
0.0261729
0.00184784
0.00181643
0.00172277
0.0275174
-0.00333744
0.026507
-0.00336211
-0.0266545
0.0537279
-0.00500432
-0.0541543
0.00543077
-0.0243555
-0.000988954
0.0243143
0.00103024
0.0245344
7.2157e-05
-4.78578e-05
-0.0245587
-0.00160073
0.0247343
0.001674
-0.00110611
0.00113403
-0.0243835
0.0242086
-0.00069819
-0.0245472
0.00103685
-0.00235142
0.00245332
0.0240581
0.00459009
-0.00519117
-0.0529233
-0.0269404
0.00356145
-0.0248424
0.00348778
0.025093
0.0128674
0.00382734
-0.0168833
0.000188617
0.00347357
-0.0111584
-0.00369634
0.0113812
-0.00270695
0.00315706
-0.104218
0.0510463
-0.0512322
-0.00227672
-0.00281719
0.0527116
0.0517392
-0.00295005
0.0032199
-0.0520091
0.0254977
-0.0255894
-0.00198888
-0.0263243
-0.00221351
0.0262277
0.0118138
-0.00182677
-0.0119859
0.00199878
-0.0122233
-0.00199129
0.00215218
0.0120624
-0.0023513
-0.0506184
-0.00378569
0.104009
-0.104399
0.00417508
0.00555619
0.105524
-0.011384
0.00275049
0.0117062
-0.00307268
0.0133654
0.00302778
-0.00302522
-0.013368
-0.024545
0.0248863
0.00461382
0.00522187
-0.0272617
0.00682913
-0.0538974
-0.00765691
-0.0264387
-0.00220355
-0.00216523
0.0271558
-0.0029831
0.0538991
0.00331353
-0.0117878
-0.00019953
0.0120369
-4.96454e-05
0.0126879
-0.000665873
0.000211308
-0.0122333
-0.0122334
-0.00113446
0.0121431
0.00122476
0.0123167
-0.00112549
0.00120475
-0.012396
-0.000481531
0.0130698
9.96145e-05
-0.00140188
0.0125125
0.00120585
-0.0123165
-0.0018439
-0.012071
0.00169159
-0.00246183
-0.0114154
0.00216495
0.0117123
-0.00494164
0.00538704
0.0532825
0.0263567
-0.00335065
0.0253746
-0.00305801
-0.0255207
-0.00104816
0.0121324
0.00123246
0.0119644
-0.000856341
0.000872489
-0.0119805
0.0252365
-0.00302524
0.0244255
-0.00239735
-0.0244985
0.05076
-0.00369083
-0.0510537
0.0039845
9.72624e-05
-0.023856
0.000346705
0.023412
0.00208025
-0.0488178
0.0243362
0.0237222
-0.000793756
-0.000527066
0.00344064
-0.00372862
-0.0242106
0.00456108
-0.0237566
-0.00490112
0.00347427
-0.0476125
-0.00154143
-0.00213761
0.0234775
0.0243398
-0.0245692
0.0242092
0.000457181
0.00350878
0.00932223
3.6372e-05
-0.02596
0.00569479
0.0264417
-0.00307316
-0.00310328
-0.0133878
0.0129499
0.00394669
-0.011334
0.0114994
0.00330813
0.00401742
-0.0135779
0.00562547
-0.0255011
-0.0060844
-0.0151094
0.00286014
-0.0038718
0.0161211
0.00248969
-0.0147428
-0.00285626
-0.0137704
-3.37341e-05
0.0137106
9.35509e-05
-2.00066e-05
-0.0137863
3.58982e-05
-0.0144948
-0.00220149
0.00263107
0.0140652
-0.00257032
-0.0155147
0.00359026
-0.013502
-0.00346549
0.0268834
-0.0135391
0.00185965
0.00176345
0.0134972
-0.00134654
-0.0120949
-5.57136e-05
-0.00176032
-0.0135534
0.00181176
0.011307
-0.00145302
-0.0112978
0.00144383
-0.00177942
0.00190877
0.0116845
-0.0122005
0.0121039
-0.00189473
0.011817
-0.00172893
-0.0119148
0.0246016
-0.00288119
-0.0247375
0.00301713
0.00125277
-0.0127796
0.0115359
-9.03501e-06
0.0281147
0.00327002
-0.0279323
-0.00173107
-0.00172137
0.0115245
-0.0123835
0.000919172
-6.02485e-05
-0.0139929
0.0020317
0.013214
0.00253816
0.00898546
9.17389e-07
0.00316923
0.0284154
-0.00176771
-0.0017022
-0.00166627
-0.0144292
0.00210252