/*--------------------------------*- C++ -*----------------------------------*\
| =========                 |                                                 |
| \\      /  F ield         | OpenFOAM: The Open Source CFD Toolbox           |
|  \\    /   O peration     | Version:  5.x                                   |
|   \\  /    A nd           | Web:      www.OpenFOAM.org                      |
|    \\/     M anipulation  |                                                 |
\*---------------------------------------------------------------------------*/
FoamFile
{
    version     2.0;
    format      ascii;
    class       volVectorField;
    location    "400";
    object      U;
}
// * * * * * * * * * * * * * * * * * * * * * * * * * * * * * * * * * * * * * //

dimensions      [0 1 -1 0 0 0 0];

internalField   nonuniform List<vector> 
6584
(
(45.0027 -0.007263 1.72169e-25)
(45.002 -0.0160074 8.3715e-24)
(45.0026 -0.0218601 7.72488e-29)
(45.0027 -0.0299506 -1.51887e-23)
(45.0031 -0.0386056 0)
(45.0032 -0.0482275 0)
(45.0028 -0.0578799 0)
(45.0011 -0.0643276 1.61753e-23)
(44.9983 -0.0649481 1.64671e-23)
(44.9934 -0.0529875 0)
(44.9883 -0.0198122 6.49027e-24)
(44.9847 0.0325201 -8.29953e-24)
(44.9856 0.0913237 -4.56278e-25)
(44.9909 0.137133 1.15045e-24)
(44.9972 0.157805 3.53885e-25)
(45.0038 0.153683 3.84313e-23)
(45.0069 0.135416 3.42819e-23)
(45.0079 0.112191 2.77827e-24)
(45.0074 0.088588 2.38517e-23)
(45.0065 0.0676278 1.71592e-23)
(45.0053 0.0504742 0)
(45.0046 0.0356309 0)
(45.0034 0.0252974 2.56674e-23)
(45.0043 0.0112379 1.57328e-23)
(45.0113 -0.0152389 -8.16005e-24)
(45.0098 -0.0321957 -3.17454e-23)
(45.012 -0.0430962 -4.28572e-23)
(45.0131 -0.0594159 0)
(45.0151 -0.0768697 -6.03632e-24)
(45.0156 -0.0968212 -4.91064e-23)
(45.0141 -0.117856 -3.02822e-23)
(45.0056 -0.133077 5.15629e-23)
(44.9936 -0.137223 -2.403e-24)
(44.961 -0.11542 -1.16852e-23)
(44.9218 -0.0479467 -3.77475e-27)
(44.8961 0.0623285 0)
(44.9021 0.18811 2.20324e-23)
(44.9391 0.284681 1.30606e-23)
(44.9881 0.327366 -8.56985e-23)
(45.021 0.316404 -2.27313e-23)
(45.0344 0.274823 -5.27433e-23)
(45.0388 0.225013 -6.87169e-23)
(45.0361 0.175778 -1.76534e-22)
(45.031 0.133164 -1.45194e-22)
(45.0252 0.0991235 -1.00928e-23)
(45.0213 0.0695429 -4.24028e-24)
(45.0166 0.0503866 0)
(45.0178 0.0233423 1.37431e-23)
(45.0249 -0.0233221 -2.0574e-23)
(45.024 -0.0474934 0)
(45.0289 -0.0625512 -8.56044e-24)
(45.0326 -0.0870526 -5.57276e-23)
(45.038 -0.113737 -8.59119e-23)
(45.0406 -0.145869 0)
(45.038 -0.183245 0)
(45.0197 -0.212589 -1.41557e-23)
(44.9841 -0.244929 -4.73413e-24)
(44.9279 -0.169462 4.20616e-24)
(44.8624 -0.0873704 -7.54192e-24)
(44.8111 0.0568726 -1.08008e-23)
(44.8165 0.23402 0)
(44.883 0.374334 0)
(44.9689 0.439255 1.45261e-24)
(45.054 0.509303 -9.58313e-23)
(45.0907 0.423147 0)
(45.0997 0.338032 -3.08691e-23)
(45.091 0.258304 0)
(45.0767 0.192564 -2.314e-23)
(45.0619 0.142208 -6.21919e-23)
(45.051 0.098774 -3.70762e-23)
(45.0403 0.0727409 0)
(45.0389 0.0349838 1.06821e-23)
(45.0414 -0.0307442 -1.25497e-23)
(45.0428 -0.0605837 0)
(45.0516 -0.0788478 -1.14711e-23)
(45.0601 -0.110959 0)
(45.0715 -0.146858 0)
(45.0804 -0.193461 0)
(45.0808 -0.253201 -3.01633e-23)
(45.0573 -0.312531 1.63243e-22)
(44.9907 -0.389333 -1.02657e-23)
(44.8826 -0.313433 1.26568e-23)
(44.7404 -0.219891 -7.83966e-24)
(44.5956 0.0105551 1.88514e-24)
(44.581 0.349367 2.06413e-24)
(44.7383 0.616702 0)
(44.938 0.698337 -1.42213e-22)
(45.0808 0.63929 0)
(45.1989 0.580076 0)
(45.197 0.449364 2.23586e-22)
(45.1735 0.331156 1.46022e-22)
(45.1411 0.24104 -4.87009e-23)
(45.112 0.175805 -3.38086e-23)
(45.0899 0.12055 0)
(45.0711 0.0897626 1.55515e-23)
(45.0639 0.0446426 1.26401e-23)
(45.0598 -0.0367434 -4.8171e-24)
(45.065 -0.0701371 -2.98267e-25)
(45.0789 -0.0902133 -1.41221e-24)
(45.095 -0.128521 -2.1894e-24)
(45.1161 -0.172098 2.61943e-24)
(45.1396 -0.233795 1.20798e-22)
(45.1522 -0.320454 -2.24868e-22)
(45.1481 -0.417929 1.96254e-22)
(45.0145 -0.462192 1.13546e-23)
(44.8753 -0.52295 5.93846e-23)
(44.5984 -0.472512 -8.32531e-24)
(44.2082 -0.135232 1.13958e-23)
(44.1208 0.520695 -1.11801e-24)
(44.5198 1.01544 2.01147e-22)
(44.9556 1.0777 0)
(45.2035 0.910369 1.39706e-22)
(45.2833 0.686158 -3.11165e-23)
(45.3347 0.522966 -1.80492e-22)
(45.284 0.382959 -1.02079e-22)
(45.2222 0.270082 4.10001e-23)
(45.1732 0.195095 -2.39073e-24)
(45.1352 0.131568 -1.35646e-24)
(45.1061 0.0989795 1.76903e-23)
(45.0902 0.0509063 -6.66747e-24)
(45.0785 -0.0405907 2.36446e-24)
(45.0889 -0.0748516 -6.32783e-24)
(45.1089 -0.0946296 -2.63614e-25)
(45.1353 -0.136247 0)
(45.1698 -0.182522 -2.70443e-23)
(45.2165 -0.25626 -1.6922e-23)
(45.2536 -0.347678 -8.90361e-23)
(45.2171 -0.454977 -1.84751e-23)
(45.1441 -0.616019 7.31385e-23)
(44.9967 -0.834582 3.33555e-22)
(44.4779 -0.865609 7.32259e-23)
(43.7316 -0.546109 1.1713e-26)
(43.3611 0.649571 -2.99251e-24)
(44.2258 1.58552 3.13086e-23)
(45.1372 1.65071 -3.16465e-22)
(45.4723 1.22377 0)
(45.514 0.86155 1.83852e-26)
(45.5145 0.560924 3.521e-23)
(45.4171 0.402437 8.85603e-24)
(45.3156 0.272445 4.62957e-23)
(45.241 0.195121 -1.70595e-23)
(45.1831 0.128771 0)
(45.1421 0.0982057 -9.07599e-24)
(45.1152 0.0524798 -1.26415e-23)
(45.096 -0.0417304 1.61066e-26)
(45.1124 -0.0738507 -3.04954e-24)
(45.1387 -0.0906994 3.74465e-24)
(45.1767 -0.1316 9.53911e-25)
(45.2269 -0.173429 1.22916e-24)
(45.3015 -0.251734 -3.99112e-23)
(45.3763 -0.337641 -5.58273e-23)
(45.3711 -0.485965 -9.53694e-25)
(45.4014 -0.732735 -1.05495e-23)
(45.3557 -1.14131 5.38775e-23)
(44.7631 -1.6012 0)
(43.1353 -1.78227 4.8731e-23)
(41.1 0.879623 1.92307e-24)
(44.0845 3.25153 1.4178e-22)
(45.5465 2.3058 -1.40698e-24)
(45.9717 1.47371 0)
(45.8535 0.938919 9.59351e-23)
(45.7275 0.525897 1.91995e-23)
(45.562 0.372441 1.59788e-23)
(45.4126 0.240245 -4.20129e-24)
(45.3082 0.171633 -3.68354e-23)
(45.2281 0.109991 0)
(45.1749 0.0859545 -8.27542e-24)
(45.1356 0.0483866 -7.69803e-24)
(45.1106 -0.0399506 -2.76483e-24)
(45.1329 -0.0670553 2.46034e-24)
(45.1647 -0.0782978 1.22273e-24)
(45.2136 -0.113786 5.82468e-25)
(45.2787 -0.142984 -1.96238e-24)
(45.3799 -0.212223 1.95995e-23)
(45.4984 -0.270267 6.53674e-27)
(45.5582 -0.432647 -1.09996e-23)
(45.7404 -0.694221 8.40985e-27)
(45.9808 -1.17985 -1.29417e-22)
(45.8748 -2.13749 -7.5506e-24)
(45.0257 -4.51968 2.85081e-24)
(45.9199 5.77936 2.55409e-23)
(46.838 2.80924 -2.4586e-23)
(46.6979 1.45145 5.23994e-23)
(46.2724 0.84205 -1.04137e-23)
(45.9375 0.393287 3.40501e-23)
(45.6955 0.281723 3.47719e-23)
(45.4984 0.1695 2.4335e-23)
(45.365 0.123033 -1.11936e-23)
(45.264 0.0749151 0)
(45.1998 0.0620155 0)
(45.1482 0.0382491 -1.07922e-28)
(45.121 -0.0355171 -4.80285e-25)
(45.1481 -0.0554338 -4.94055e-26)
(45.1832 -0.0590789 -2.48653e-25)
(45.2397 -0.084969 2.08614e-24)
(45.3148 -0.0948632 3.07629e-24)
(45.4327 -0.141134 1.27477e-23)
(45.5835 -0.15173 3.50199e-23)
(45.7193 -0.282819 0)
(46.0391 -0.445264 0)
(46.5805 -0.737838 0)
(47.2723 -1.51168 -4.19706e-24)
(48.8287 -3.3131 6.67488e-25)
(50.5299 4.90427 0)
(48.5191 2.08804 0)
(47.3911 0.961463 0)
(46.6475 0.521312 1.05706e-23)
(46.0893 0.169744 0)
(45.7864 0.134256 -3.7439e-23)
(45.5556 0.0653193 -2.44879e-23)
(45.4009 0.0526468 -2.24532e-24)
(45.2842 0.026125 0)
(45.2126 0.0279377 3.97453e-25)
(45.1505 0.0224934 3.13383e-25)
(45.1264 -0.0291787 8.22853e-26)
(45.1565 -0.0409729 -1.27897e-25)
(45.1921 -0.0364817 1.34551e-25)
(45.2508 -0.0506786 6.73054e-25)
(45.3278 -0.0393033 -1.57411e-24)
(45.4459 -0.0553986 -9.92813e-26)
(45.6034 -0.0154835 -4.3407e-24)
(45.7886 -0.07639 -1.50376e-25)
(46.1482 -0.069333 0)
(46.7689 -0.0206508 -1.17264e-23)
(47.8042 -0.106032 1.82286e-29)
(49.962 -0.200698 -1.61044e-24)
(52.5781 1.00073 -4.16433e-24)
(49.4072 0.375982 -1.48592e-23)
(47.697 0.124724 -1.13396e-22)
(46.8288 0.0412334 0)
(46.1356 -0.0977247 -7.39061e-23)
(45.8096 -0.0459068 0)
(45.5707 -0.0569538 -4.64617e-25)
(45.4077 -0.0307106 0)
(45.2842 -0.0307635 3.08613e-26)
(45.21 -0.0129234 -8.80336e-26)
(45.1408 0.00241638 -1.58238e-24)
(45.1273 -0.0220102 0)
(45.1579 -0.0262107 -6.07917e-25)
(45.1911 -0.0147727 -5.17721e-25)
(45.2464 -0.0180459 -9.16906e-25)
(45.317 0.010808 1.44604e-24)
(45.4196 0.0221375 6.86442e-24)
(45.5566 0.0979845 1.92876e-23)
(45.7438 0.114522 6.81119e-24)
(46.0312 0.268737 0)
(46.481 0.589953 5.53535e-23)
(47.2939 1.12381 1.58628e-23)
(48.6994 2.4449 -9.37062e-25)
(51.5342 -2.83945 -1.84881e-24)
(49.0692 -1.3591 2.50389e-23)
(47.4986 -0.715571 4.79948e-24)
(46.7521 -0.446177 6.53532e-23)
(46.0646 -0.34564 3.25044e-22)
(45.7601 -0.223145 1.80988e-22)
(45.5399 -0.176325 -1.22056e-22)
(45.3832 -0.115178 -8.63129e-23)
(45.2627 -0.0884105 5.5167e-24)
(45.1913 -0.0560591 2.40866e-24)
(45.1192 -0.0200745 -5.56689e-24)
(45.1245 -0.0151302 1.10637e-25)
(45.1536 -0.0135143 5.95731e-25)
(45.1823 0.00233877 8.92849e-25)
(45.2303 0.00686298 -5.15966e-25)
(45.2888 0.0454623 -2.21391e-32)
(45.3671 0.0737647 1.01916e-23)
(45.4677 0.162309 2.99575e-23)
(45.6169 0.232225 5.8503e-24)
(45.774 0.449118 0)
(45.9448 0.852026 -1.75568e-23)
(46.2551 1.59582 -4.21425e-24)
(46.4251 3.16463 -1.92913e-24)
(48.8919 -4.59317 -7.50331e-25)
(47.9108 -2.36502 0)
(46.9517 -1.27136 -1.00985e-22)
(46.4718 -0.803057 8.21464e-23)
(45.9038 -0.526356 4.6343e-22)
(45.6536 -0.365785 3.05839e-22)
(45.4704 -0.274667 0)
(45.3321 -0.189578 -7.63417e-23)
(45.2222 -0.140002 -4.26475e-23)
(45.158 -0.0969246 3.6114e-24)
(45.0873 -0.0428824 -4.47404e-24)
(45.1196 -0.00942097 0)
(45.1457 -0.00444339 1.45841e-25)
(45.1692 0.0128299 -1.68451e-25)
(45.2083 0.0210338 -4.55052e-25)
(45.2532 0.0610554 0)
(45.307 0.0937744 -1.28749e-24)
(45.3705 0.174623 5.39676e-24)
(45.4651 0.261184 -1.59904e-25)
(45.5062 0.454707 1.89972e-24)
(45.4529 0.767488 8.05696e-24)
(45.3354 1.3387 1.53125e-24)
(44.6057 2.35092 0)
(46.1775 -4.37444 -1.22423e-24)
(46.6096 -2.48561 9.05878e-24)
(46.3204 -1.45208 4.67296e-23)
(46.1067 -0.971557 5.77836e-24)
(45.702 -0.623359 2.02478e-22)
(45.5178 -0.457358 2.15441e-22)
(45.3768 -0.34212 0)
(45.2627 -0.246474 -1.10594e-24)
(45.1681 -0.18074 1.73788e-23)
(45.1135 -0.13209 9.62342e-24)
(45.0476 -0.0641524 3.40819e-25)
(45.1142 -0.00538511 0)
(45.1367 0.000458459 0)
(45.1554 0.0165337 0)
(45.1862 0.0246658 0)
(45.2198 0.0596376 8.13917e-26)
(45.2551 0.0870502 4.15012e-25)
(45.292 0.145811 -1.22545e-23)
(45.3117 0.22386 9.73193e-23)
(45.3194 0.347432 0)
(45.1682 0.504784 0)
(44.9088 0.731068 1.55892e-23)
(43.9953 0.801288 8.88588e-23)
(32.6705 -1.13447 -1.58087e-24)
(44.6952 -2.59098 -1.74554e-22)
(45.6979 -2.02418 -3.29517e-23)
(45.813 -1.34961 -2.29626e-25)
(45.7647 -0.977885 -1.28758e-24)
(45.5034 -0.648205 -5.6735e-23)
(45.3793 -0.498375 8.56129e-24)
(45.2749 -0.377982 1.44821e-25)
(45.1849 -0.283366 -7.85153e-23)
(45.1067 -0.208878 0)
(45.062 -0.15958 3.56032e-24)
(45.003 -0.0825879 -9.07684e-24)
(45.1096 -0.00314108 0)
(45.1285 0.00151315 -1.052e-24)
(45.1436 0.0146658 -5.78106e-26)
(45.1681 0.0202129 0)
(45.1942 0.0469454 0)
(45.219 0.0644754 -3.1624e-23)
(45.2431 0.102204 1.10463e-23)
(45.2544 0.138908 1.44097e-22)
(45.2286 0.209628 1.40798e-22)
(45.1073 0.242928 1.1902e-22)
(44.9031 0.247027 0)
(44.4762 -0.0663691 -6.72204e-24)
(38.4105 -0.960763 1.41946e-23)
(44.6746 -1.49896 -1.54488e-23)
(45.2713 -1.35267 1.58633e-23)
(45.4998 -1.12345 -1.68869e-23)
(45.4154 -0.798442 3.05473e-23)
(45.3365 -0.622957 -5.72038e-24)
(45.2545 -0.497951 -2.25032e-26)
(45.1766 -0.387468 -1.701e-25)
(45.1077 -0.302054 0)
(45.0437 -0.224948 -3.41594e-23)
(45.0082 -0.178925 -4.06368e-23)
(44.9566 -0.0975668 -1.19259e-23)
(45.1068 -0.00253488 1.0273e-26)
(45.1225 -0.000465208 -7.13484e-25)
(45.1354 0.00897236 2.17816e-24)
(45.1559 0.0107165 1.88101e-28)
(45.1782 0.0284471 -6.55659e-24)
(45.1989 0.0356722 -2.12093e-23)
(45.2211 0.053277 -9.91819e-23)
(45.232 0.0659257 -1.75328e-22)
(45.2113 0.0882341 -2.94257e-23)
(45.1483 0.0541836 -5.28263e-24)
(45.0749 -0.0613615 0)
(44.8872 -0.263523 -4.6857e-24)
(39.4282 -0.807515 -3.3893e-23)
(44.9172 -0.92301 -5.79736e-24)
(45.1799 -1.00227 -4.99645e-24)
(45.3333 -0.904391 -8.78536e-24)
(45.2754 -0.697617 -1.41494e-22)
(45.2123 -0.577184 0)
(45.1516 -0.474887 -2.1614e-23)
(45.0894 -0.379484 -6.75116e-24)
(45.0353 -0.306094 -1.27431e-24)
(44.9828 -0.23086 6.13243e-24)
(44.9547 -0.190455 0)
(44.9108 -0.108811 0)
(45.1061 -0.00327142 2.25285e-26)
(45.1194 -0.00452128 1.28573e-25)
(45.1313 0.00111629 5.68243e-25)
(45.1497 -0.00114874 0)
(45.1714 0.00811537 -1.88051e-24)
(45.192 0.0069723 0)
(45.2188 0.00721694 -1.0948e-23)
(45.2389 0.00520789 -1.25222e-23)
(45.2625 -0.0330006 6.21915e-25)
(45.2192 -0.0583784 -3.69412e-24)
(45.239 -0.178683 1.68416e-23)
(45.1028 -0.430449 -1.25081e-23)
(41.6099 -0.709719 -3.51741e-23)
(45.0204 -0.744139 2.90451e-24)
(45.1713 -0.77169 1.34152e-23)
(45.248 -0.728852 4.67457e-24)
(45.1723 -0.603285 -6.97308e-23)
(45.1211 -0.517034 7.5839e-23)
(45.0686 -0.439544 0)
(45.0157 -0.360137 2.83317e-23)
(44.9712 -0.299991 -2.62886e-24)
(44.9269 -0.229276 7.17975e-24)
(44.9041 -0.19567 0)
(44.867 -0.116674 0)
(45.1078 -0.00501697 -1.14922e-25)
(45.1193 -0.00977005 1.6713e-25)
(45.1313 -0.00756828 -1.10748e-24)
(45.1489 -0.0133654 -1.2276e-24)
(45.1721 -0.0112464 0)
(45.1951 -0.0180045 0)
(45.2294 -0.0291237 8.05567e-23)
(45.2621 -0.0404899 -1.13126e-23)
(45.3093 -0.086501 8.66596e-24)
(45.3119 -0.13288 -3.19001e-23)
(45.3506 -0.226962 0)
(45.0942 -0.377067 -8.7697e-24)
(41.9642 -0.660652 -9.76706e-23)
(45.1329 -0.558073 1.84753e-23)
(45.1809 -0.566234 4.55455e-23)
(45.1869 -0.540011 1.04463e-22)
(45.1113 -0.516482 6.0603e-23)
(45.0583 -0.45228 6.4139e-23)
(45.0043 -0.39984 -9.72811e-24)
(44.9557 -0.334343 -6.3003e-24)
(44.916 -0.287362 -1.4169e-23)
(44.8773 -0.222451 -5.11029e-23)
(44.8578 -0.195861 4.07379e-25)
(44.8266 -0.12152 -2.5987e-24)
(45.1115 -0.00746538 -8.09555e-25)
(45.1219 -0.015508 1.83189e-25)
(45.1346 -0.0161635 -1.09797e-24)
(45.1523 -0.024676 -2.19576e-24)
(45.1781 -0.0281678 0)
(45.2042 -0.037794 0)
(45.2465 -0.0563565 8.04249e-23)
(45.2878 -0.0673614 1.21754e-24)
(45.359 -0.123079 -1.08328e-23)
(45.3665 -0.123458 -3.93751e-23)
(45.4586 -0.300253 0)
(44.0027 -0.114565 -4.86395e-23)
(43.4913 -0.556458 4.18501e-24)
(45.2683 -0.355642 9.66853e-24)
(45.1804 -0.504073 7.71346e-24)
(45.1788 -0.446327 -2.56133e-23)
(45.0779 -0.448714 -1.89582e-23)
(45.0157 -0.395383 1.09356e-23)
(44.9557 -0.361909 -3.1496e-24)
(44.9079 -0.306417 -4.9245e-23)
(44.8695 -0.271376 -1.5822e-23)
(44.8344 -0.212413 -6.65968e-23)
(44.8166 -0.192393 0)
(44.79 -0.123884 -9.47065e-24)
(45.1172 -0.0103735 -7.72803e-25)
(45.1267 -0.021252 -7.62236e-25)
(45.1406 -0.0241673 0)
(45.1587 -0.034506 -1.52948e-24)
(45.1875 -0.0423909 0)
(45.2165 -0.0525762 -4.74774e-23)
(45.266 -0.0771934 -5.341e-24)
(45.3123 -0.0825066 8.09092e-24)
(45.3987 -0.149508 -9.77998e-24)
(45.4123 -0.12165 -1.13719e-23)
(45.4836 -0.306733 -7.81927e-24)
(44.0748 -0.128529 -8.78349e-23)
(43.5584 -0.461107 3.45394e-23)
(45.2743 -0.281294 -9.32897e-24)
(45.1912 -0.443192 -5.20722e-24)
(45.173 -0.368686 -1.63872e-24)
(45.054 -0.394698 -1.02771e-23)
(44.9851 -0.345249 -1.24628e-23)
(44.9183 -0.327357 -2.78227e-23)
(44.8698 -0.278679 -6.84758e-24)
(44.8307 -0.254136 -4.18175e-24)
(44.7978 -0.20064 -2.19082e-23)
(44.7804 -0.186477 -9.41419e-24)
(44.7576 -0.124264 -4.22398e-24)
(45.1243 -0.0135681 0)
(45.1334 -0.0267096 -1.61993e-24)
(45.1485 -0.0313669 -9.22138e-25)
(45.1672 -0.0426747 -1.0111e-24)
(45.1991 -0.0540935 6.00649e-24)
(45.2302 -0.0630538 -5.11704e-23)
(45.2861 -0.0930333 0)
(45.3362 -0.0906448 -1.16755e-23)
(45.4313 -0.166082 0)
(45.4548 -0.119282 0)
(45.5123 -0.297381 -1.39323e-25)
(44.1257 -0.127466 -9.56369e-27)
(43.6114 -0.398194 1.41316e-23)
(45.2915 -0.231524 -6.2217e-24)
(45.2065 -0.391133 -2.96832e-24)
(45.1694 -0.307365 -2.26924e-24)
(45.0376 -0.350656 2.17815e-24)
(44.9627 -0.301113 -5.4928e-24)
(44.8894 -0.296573 -7.55559e-24)
(44.8395 -0.252223 1.2571e-23)
(44.7984 -0.236853 -4.21044e-24)
(44.7668 -0.188123 0)
(44.749 -0.179034 1.92396e-28)
(44.7292 -0.123089 0)
(45.1325 -0.0169362 0)
(45.1413 -0.0317263 -1.96285e-24)
(45.1578 -0.0377163 -1.14334e-24)
(45.1771 -0.0492156 2.40408e-24)
(45.2118 -0.0635573 0)
(45.2446 -0.0700367 1.82513e-24)
(45.3056 -0.104636 -3.51837e-23)
(45.3589 -0.0941262 -2.27472e-23)
(45.459 -0.17494 -1.30273e-24)
(45.4909 -0.11496 6.19029e-26)
(45.5364 -0.284111 1.47212e-23)
(44.1539 -0.122395 -1.06775e-23)
(43.6436 -0.350286 1.84527e-23)
(45.309 -0.194582 -3.89812e-24)
(45.2207 -0.348975 5.2589e-24)
(45.1677 -0.259143 -6.46839e-25)
(45.0271 -0.314474 -4.492e-24)
(44.9463 -0.262943 3.65583e-24)
(44.8669 -0.269667 9.60897e-24)
(44.8153 -0.227675 -1.8519e-28)
(44.7716 -0.22027 -2.02501e-24)
(44.7407 -0.175508 -1.37442e-23)
(44.722 -0.170735 7.11225e-24)
(44.7044 -0.12071 6.52993e-24)
(45.1415 -0.020413 -1.12285e-24)
(45.1502 -0.0362478 -2.19704e-24)
(45.168 -0.0432716 -3.19537e-32)
(45.1876 -0.0542972 5.19259e-24)
(45.2249 -0.0711155 1.29095e-23)
(45.259 -0.0743495 1.14855e-24)
(45.3238 -0.112865 -3.35619e-23)
(45.3799 -0.0946784 -2.04905e-23)
(45.4822 -0.178859 1.13733e-23)
(45.5204 -0.110002 0)
(45.5545 -0.270007 2.94657e-24)
(44.1712 -0.115867 -3.70982e-24)
(43.6647 -0.312505 5.51766e-24)
(45.3231 -0.165757 -3.04009e-24)
(45.2326 -0.314087 -1.91448e-29)
(45.167 -0.220583 -6.99987e-24)
(45.0204 -0.284464 -3.72594e-24)
(44.934 -0.230241 -8.39851e-25)
(44.8493 -0.246374 5.22334e-24)
(44.7959 -0.205325 -7.57967e-24)
(44.7494 -0.204796 -1.17902e-23)
(44.7188 -0.163209 -5.82135e-24)
(44.6988 -0.162072 -6.1431e-24)
(44.683 -0.117412 5.69907e-24)
(45.151 -0.023965 -1.34701e-32)
(45.1596 -0.0402889 -1.16892e-24)
(45.1785 -0.0481372 1.30837e-24)
(45.1985 -0.0581553 2.67664e-24)
(45.238 -0.0771134 1.01089e-27)
(45.273 -0.0767174 0)
(45.3405 -0.118525 -7.38949e-25)
(45.3989 -0.0934997 -1.84255e-23)
(45.5019 -0.179572 9.58213e-24)
(45.5448 -0.10484 0)
(45.5686 -0.255938 -9.45908e-29)
(44.1819 -0.108694 2.8159e-24)
(43.6791 -0.282346 -6.15621e-24)
(45.335 -0.142948 0)
(45.2427 -0.284976 7.21699e-25)
(45.1669 -0.189445 2.22552e-24)
(45.0159 -0.259355 0)
(44.9245 -0.202315 1.7356e-24)
(44.8354 -0.226282 1.71069e-24)
(44.7802 -0.185221 -1.94647e-23)
(44.7309 -0.190605 -4.96007e-24)
(44.7004 -0.151467 4.94699e-24)
(44.679 -0.153368 -6.35444e-24)
(44.6644 -0.113419 0)
(45.1608 -0.0275824 1.21694e-24)
(45.1692 -0.0439013 -1.20097e-24)
(45.1891 -0.0524369 0)
(45.2093 -0.0610375 7.6299e-25)
(45.2506 -0.0818691 2.46293e-24)
(45.2863 -0.0777261 3.10851e-25)
(45.3557 -0.122259 0)
(45.4159 -0.0913418 -2.33542e-25)
(45.5187 -0.178226 8.012e-24)
(45.5651 -0.0997673 0)
(45.5797 -0.242614 1.99661e-24)
(44.1877 -0.101439 1.18363e-24)
(43.6884 -0.257788 -4.09046e-24)
(45.3453 -0.124618 5.12963e-25)
(45.2513 -0.260614 -1.3576e-24)
(45.1671 -0.164143 1.10764e-25)
(45.013 -0.238214 1.31211e-24)
(44.9171 -0.17852 -5.35644e-25)
(44.8244 -0.208971 8.33543e-26)
(44.7674 -0.16729 -7.05032e-24)
(44.7154 -0.177746 2.63376e-24)
(44.6849 -0.140413 2.87344e-24)
(44.6619 -0.144845 -1.02807e-24)
(44.6484 -0.108906 -5.34054e-25)
(45.1705 -0.0312657 -1.1614e-25)
(45.1788 -0.0471553 -1.51653e-24)
(45.1996 -0.0562876 -2.46091e-25)
(45.2198 -0.063173 0)
(45.2625 -0.0856592 2.36536e-23)
(45.2988 -0.0778327 0)
(45.3694 -0.124584 -1.33611e-23)
(45.4312 -0.0887041 0)
(45.5331 -0.175629 6.67615e-24)
(45.5822 -0.095009 3.67355e-24)
(45.5877 -0.230307 0)
(44.1896 -0.0946126 9.39571e-25)
(43.6941 -0.237594 0)
(45.3539 -0.109776 4.13167e-25)
(45.2586 -0.240079 -3.67623e-25)
(45.1674 -0.143476 0)
(45.0111 -0.220321 0)
(44.9111 -0.158299 -4.43701e-25)
(44.8154 -0.194065 6.33347e-25)
(44.7568 -0.151416 0)
(44.7023 -0.16618 0)
(44.6716 -0.130106 2.45787e-24)
(44.6473 -0.136639 4.95273e-25)
(44.6344 -0.104014 -1.91994e-24)
(45.18 -0.0350182 1.179e-25)
(45.1882 -0.0501233 9.54547e-26)
(45.2097 -0.0597945 0)
(45.23 -0.0647645 -2.16255e-25)
(45.2738 -0.0887141 1.15057e-23)
(45.3105 -0.0773808 -6.27824e-26)
(45.3817 -0.125908 -1.18218e-23)
(45.4449 -0.085927 -3.13141e-25)
(45.5456 -0.17236 0)
(45.5966 -0.0905865 3.9944e-24)
(45.5932 -0.219149 0)
(44.1884 -0.0886109 0)
(43.6976 -0.220807 0)
(45.3614 -0.097573 2.9607e-24)
(45.2647 -0.222627 4.4879e-24)
(45.1677 -0.126551 0)
(45.0097 -0.20512 -1.51828e-25)
(44.9061 -0.14118 0)
(44.808 -0.181238 0)
(44.7478 -0.137454 0)
(44.6912 -0.155839 0)
(44.6602 -0.120589 -2.33156e-24)
(44.6345 -0.128838 -1.87817e-24)
(44.6221 -0.0988724 3.31307e-29)
(45.1891 -0.0388399 0)
(45.1973 -0.0528687 5.68312e-25)
(45.2193 -0.0630407 -1.01468e-24)
(45.2396 -0.0659719 1.20123e-24)
(45.2842 -0.0912196 1.06631e-23)
(45.3213 -0.076622 2.12786e-23)
(45.3928 -0.126551 0)
(45.457 -0.0832429 0)
(45.5565 -0.16884 6.53351e-25)
(45.6087 -0.0866097 -5.41608e-25)
(45.5971 -0.209254 -1.17988e-31)
(44.1853 -0.0833701 2.37305e-24)
(43.6989 -0.206605 7.09987e-24)
(45.3681 -0.0874396 2.43993e-24)
(45.2699 -0.207942 1.17769e-25)
(45.168 -0.112624 0)
(45.0087 -0.192212 -3.31789e-24)
(44.9019 -0.126684 -4.24169e-24)
(44.8018 -0.17021 0)
(44.74 -0.125211 -4.13573e-24)
(44.6815 -0.146646 -3.54532e-39)
(44.6501 -0.111835 5.69843e-24)
(44.6232 -0.1215 3.52725e-24)
(44.611 -0.0935677 2.81711e-24)
(45.1977 -0.0427222 -1.21106e-24)
(45.2058 -0.0554383 4.58132e-25)
(45.2284 -0.066084 -5.67813e-25)
(45.2487 -0.0669198 2.2658e-24)
(45.2938 -0.0933182 9.55453e-24)
(45.3312 -0.075739 3.93117e-23)
(45.4027 -0.126753 0)
(45.4679 -0.0807684 0)
(45.566 -0.16532 5.70589e-25)
(45.6191 -0.083139 0)
(45.5997 -0.200559 0)
(44.1806 -0.0788893 0)
(43.6985 -0.194605 0)
(45.3738 -0.0790862 -1.99364e-24)
(45.2743 -0.195592 -3.06907e-24)
(45.1682 -0.101171 -2.763e-24)
(45.0079 -0.181283 -5.38685e-24)
(44.8981 -0.114461 -3.6044e-24)
(44.7964 -0.160768 0)
(44.7332 -0.114542 -1.00817e-24)
(44.6729 -0.138533 0)
(44.6411 -0.103836 0)
(44.613 -0.114668 1.63827e-24)
(44.601 -0.0881848 1.28556e-24)
(45.2057 -0.0466438 -9.5457e-25)
(45.2138 -0.0578602 -6.22515e-25)
(45.2368 -0.0689577 -1.80196e-25)
(45.2571 -0.0676964 1.09292e-25)
(45.3026 -0.0951138 -2.59016e-32)
(45.3404 -0.0748641 1.81998e-23)
(45.4117 -0.126692 0)
(45.4777 -0.0785684 -6.86105e-25)
(45.5744 -0.16196 8.10982e-25)
(45.6281 -0.0801893 5.24728e-25)
(45.6013 -0.192986 3.70127e-24)
(44.1749 -0.0751543 1.6333e-24)
(43.6967 -0.184516 2.52666e-24)
(45.3789 -0.0722833 0)
(45.2781 -0.185245 0)
(45.1684 -0.0918087 3.06359e-26)
(45.0071 -0.17209 2.26083e-24)
(44.8948 -0.104233 1.31173e-29)
(44.7916 -0.152749 -1.94946e-24)
(44.727 -0.105328 0)
(44.6652 -0.131439 0)
(44.6328 -0.0965945 5.98744e-25)
(44.6037 -0.10838 0)
(44.5915 -0.0828085 0)
(45.213 -0.0505663 0)
(45.2212 -0.0601338 -9.41079e-25)
(45.2444 -0.0716677 -6.5568e-25)
(45.265 -0.0683509 -1.03756e-24)
(45.3107 -0.0966784 0)
(45.3489 -0.0740773 0)
(45.4198 -0.126488 0)
(45.4866 -0.0766972 -1.0717e-24)
(45.5818 -0.158888 0)
(45.636 -0.0777677 -1.23318e-25)
(45.6021 -0.186468 1.58946e-24)
(44.1683 -0.0721481 6.38568e-25)
(43.6938 -0.176112 2.10649e-24)
(45.3834 -0.0668576 2.52468e-24)
(45.2815 -0.176661 2.1009e-24)
(45.1684 -0.0842542 0)
(45.0065 -0.164451 -1.87352e-24)
(44.8916 -0.0957801 -2.04953e-24)
(44.7873 -0.146036 0)
(44.7213 -0.0974734 0)
(44.6581 -0.125335 0)
(44.625 -0.0901254 5.6916e-25)
(44.5949 -0.102683 0)
(44.5824 -0.0775313 0)
(45.2195 -0.0544223 5.91726e-26)
(45.228 -0.0622335 -7.01843e-25)
(45.2514 -0.0741866 1.55739e-25)
(45.2723 -0.0689059 0)
(45.3181 -0.0980431 7.10348e-25)
(45.3568 -0.0733761 -2.92651e-25)
(45.4272 -0.126215 0)
(45.4948 -0.0751621 -4.90961e-25)
(45.5885 -0.156161 6.58663e-25)
(45.643 -0.0758557 4.10818e-25)
(45.6022 -0.180941 -8.32412e-26)
(44.1611 -0.0698369 4.69287e-25)
(43.6901 -0.169229 3.45433e-24)
(45.3875 -0.0626842 3.14105e-26)
(45.2844 -0.169667 -2.24455e-26)
(45.1683 -0.0783001 1.40908e-24)
(45.0058 -0.158232 2.85076e-26)
(44.8885 -0.0889341 -1.31732e-25)
(44.7833 -0.140536 0)
(44.7157 -0.0909107 -1.36741e-24)
(44.6514 -0.120201 -1.21774e-24)
(44.6174 -0.0844597 0)
(44.5864 -0.0976405 1.49449e-24)
(44.5734 -0.0724616 5.48557e-25)
(45.225 -0.0581011 0)
(45.2341 -0.0640993 -4.52844e-25)
(45.2576 -0.0764641 -2.09386e-25)
(45.2792 -0.0693787 -3.16549e-26)
(45.3248 -0.099221 0)
(45.3643 -0.0727866 7.33795e-24)
(45.4337 -0.125943 -1.53251e-24)
(45.5023 -0.0739587 -4.2817e-25)
(45.5944 -0.153827 -5.62458e-25)
(45.6494 -0.0744251 -2.93563e-25)
(45.6018 -0.176359 1.03433e-24)
(44.1535 -0.0681803 6.20913e-25)
(43.6859 -0.163768 1.37111e-24)
(45.3911 -0.0596671 2.52917e-26)
(45.2871 -0.164147 -1.34403e-24)
(45.168 -0.0737904 -1.04725e-24)
(45.0052 -0.153341 5.58803e-26)
(44.8854 -0.0835734 -1.32088e-25)
(44.7796 -0.136202 0)
(44.7103 -0.0856099 -9.47696e-25)
(44.6451 -0.116056 -9.7065e-25)
(44.6099 -0.079664 0)
(44.5782 -0.0933464 4.47908e-25)
(44.5642 -0.0677459 -6.58172e-25)
(45.2296 -0.0614507 -3.01269e-25)
(45.2398 -0.0656533 3.72032e-25)
(45.2631 -0.0784265 -8.31196e-25)
(45.286 -0.0697283 -2.26991e-26)
(45.3308 -0.1002 5.04414e-25)
(45.3717 -0.0723093 7.1661e-24)
(45.4397 -0.125708 -7.19034e-25)
(45.5098 -0.0730591 -2.25863e-25)
(45.5997 -0.151894 -4.63523e-25)
(45.6554 -0.0733726 -5.01967e-25)
(45.6009 -0.172614 -9.01018e-25)
(44.1457 -0.0671033 -1.7083e-25)
(43.6812 -0.159742 -1.01061e-24)
(45.3943 -0.0577686 0)
(45.2897 -0.160023 -9.94679e-25)
(45.1674 -0.0705873 -7.20412e-25)
(45.0047 -0.149697 2.5818e-26)
(44.882 -0.079587 0)
(44.7761 -0.132978 7.26267e-26)
(44.7045 -0.0815373 1.09532e-25)
(44.6389 -0.1129 -7.22423e-25)
(44.6019 -0.0758046 -8.95408e-25)
(44.5697 -0.0898898 3.04255e-25)
(44.5542 -0.0635594 0)
(45.2329 -0.064101 -1.82006e-25)
(45.2446 -0.0667176 3.321e-25)
(45.2674 -0.0798761 -2.80702e-25)
(45.2919 -0.0699017 0)
(45.3355 -0.100909 0)
(45.3784 -0.0719552 -1.64474e-24)
(45.4443 -0.125543 5.2919e-25)
(45.5164 -0.0724734 -2.11295e-25)
(45.6039 -0.150509 -6.53599e-25)
(45.6608 -0.0727261 -8.67135e-26)
(45.5998 -0.16993 6.35845e-25)
(44.1385 -0.0665309 0)
(43.6768 -0.157152 0)
(45.397 -0.0567981 0)
(45.2921 -0.157332 0)
(45.1665 -0.0686221 -3.20452e-26)
(45.0045 -0.147349 0)
(44.8787 -0.0770063 0)
(44.7734 -0.13092 6.14862e-26)
(44.6991 -0.0788141 0)
(44.6337 -0.110841 0)
(44.5946 -0.0731131 0)
(44.5623 -0.0875047 2.72135e-25)
(44.5448 -0.0603075 0)
(45.2358 -0.0660594 0)
(45.2521 -0.0673995 -3.94464e-26)
(45.2721 -0.0809003 -1.17221e-25)
(45.3019 -0.0699726 -5.94331e-27)
(45.3407 -0.101436 1.26826e-25)
(45.3898 -0.0717179 -2.91864e-24)
(45.4491 -0.12544 -1.7753e-26)
(45.5278 -0.072043 1.30753e-28)
(45.608 -0.149385 4.91703e-32)
(45.6693 -0.0716539 -1.26204e-29)
(45.5972 -0.166986 7.08052e-25)
(44.1295 -0.0660361 0)
(43.6711 -0.156983 3.46259e-26)
(45.3991 -0.0574053 -2.37739e-25)
(45.2961 -0.155805 -3.5687e-25)
(45.1635 -0.067518 -2.62679e-25)
(45.0056 -0.145915 0)
(44.8719 -0.0754068 0)
(44.7706 -0.129673 0)
(44.6894 -0.0770796 0)
(44.6269 -0.109561 0)
(44.5819 -0.0713216 0)
(44.5514 -0.085945 1.90567e-25)
(44.5287 -0.0579343 0)
(48.5042 -3.6528 9.25251e-25)
(50.3048 5.7794 3.25844e-24)
(45.5079 6.45704 1.44679e-23)
(49.9567 -0.607619 -1.57981e-24)
(52.9619 1.656 -6.10435e-25)
(50.8256 5.35904 -2.70934e-24)
(48.9516 2.2137 -8.68321e-25)
(52.132 -2.62334 -6.84652e-24)
(53.0599 1.06459 -2.02159e-24)
(46.7059 3.17121 -2.73317e-24)
(49.2961 -4.82966 1.05463e-23)
(51.8255 -3.03097 0)
(44.7788 2.51025 2.82223e-28)
(46.2995 -4.83056 -7.50673e-24)
(48.9061 -4.95321 6.58446e-24)
(43.9908 0.983307 0)
(36.3 -0.483177 -1.22339e-24)
(32.1774 -1.22768 3.26036e-24)
(44.5044 -3.06989 3.62598e-23)
(45.9704 -4.68659 -1.14192e-23)
(44.5118 -4.29173 7.3661e-24)
(41.1083 -0.00831818 1.90532e-24)
(44.8558 6.10095 2.05008e-23)
(43.2437 2.88171 4.50026e-23)
(46.9751 -1.78008 -5.24203e-24)
(48.2815 -3.25106 2.64301e-25)
(45.3702 -4.03054 -9.97491e-24)
(48.2322 10.7159 0)
(42.5383 9.93152 -1.1643e-23)
(50.0608 5.26869 0)
(48.3953 2.93248 5.22209e-25)
(46.779 3.32976 -6.15161e-23)
(47.7774 -0.477877 5.79095e-24)
(49.6402 -0.54396 -1.44583e-24)
(48.579 -2.94966 3.03516e-25)
(49.5454 -2.20091 -2.76815e-25)
(50.9824 -2.68232 2.54681e-25)
(50.0828 -4.55646 -2.81883e-25)
(53.7836 5.13113 2.69806e-24)
(52.1836 7.8273 1.15001e-24)
(52.4921 1.54318 2.44962e-25)
(49.7852 1.08422 -1.7786e-23)
(48.8651 2.57437 6.7406e-24)
(47.4984 0.875341 1.17748e-23)
(48.7843 1.96104 7.66888e-25)
(49.651 -0.171006 -2.21323e-27)
(49.7327 0.970566 9.74661e-29)
(51.0963 1.6266 -1.52278e-24)
(51.4811 -0.323529 -2.08066e-26)
(54.445 -2.0695 1.08293e-25)
(54.7735 1.51765 -2.26771e-24)
(51.7934 -2.46423 -8.19293e-24)
(49.669 -1.09589 2.43882e-24)
(49.8992 0.515359 -1.83138e-23)
(46.526 1.55546 -1.03874e-23)
(46.7327 2.88597 1.39619e-24)
(48.5567 2.18 0)
(47.868 2.93759 0)
(48.1754 4.1818 -5.28252e-25)
(49.5798 3.49042 -7.25292e-26)
(50.7536 -5.90237 -2.24607e-25)
(52.7087 -4.39969 2.28958e-24)
(49.251 -4.48081 4.53533e-28)
(48.4218 -2.5184 3.31575e-23)
(49.4319 -1.54962 2.86162e-23)
(46.8083 -6.86284 -8.77867e-25)
(48.67 -6.66758 -1.05879e-25)
(46.4854 -4.50718 4.80467e-24)
(46.8673 -2.86513 0)
(48.0293 -2.70269 0)
(43.271 -5.04961 8.35199e-25)
(44.6935 -6.28976 0)
(44.3274 0.0393689 0)
(38.911 -0.255348 1.70443e-23)
(36.584 -0.552437 9.40826e-28)
(36.8606 -1.13635 5.03488e-24)
(44.3341 -1.65253 0)
(44.4248 -2.82023 0)
(49.9121 -4.8313 2.09411e-25)
(47.9769 -6.6789 1.40158e-24)
(47.2445 -4.45916 8.59641e-24)
(48.0939 -7.10217 3.94716e-25)
(50.0715 -5.03036 9.53413e-25)
(43.1605 -7.56109 1.65663e-23)
(47.6628 -7.40169 1.78502e-24)
(52.0401 8.00901 -1.36554e-25)
(48.607 10.535 -1.69289e-25)
(48.4189 6.73127 -3.00654e-24)
(48.7567 9.88613 -3.00114e-25)
(51.8755 7.77207 8.04659e-26)
(51.4623 -0.595784 2.32508e-25)
(51.0697 -2.4187 0)
(49.7049 -1.80831 3.80376e-25)
(51.1547 -2.58947 9.12441e-27)
(51.5542 -0.496313 7.80449e-28)
(50.2604 -4.73597 -4.62033e-25)
(51.1132 -2.72464 9.91365e-27)
(54.7223 1.79556 -3.27149e-24)
(53.8688 4.93817 6.02883e-24)
(52.3488 3.36587 -5.06297e-25)
(53.8153 4.65036 -8.09647e-25)
(54.7437 2.07639 1.54168e-24)
(52.029 7.60217 1.04084e-24)
(53.7269 4.84874 2.94802e-24)
(52.0453 3.90086 -4.9439e-25)
(49.7605 3.34709 0)
(50.9592 1.88276 -1.28608e-24)
(49.5801 1.32742 2.86644e-25)
(51.1006 2.09307 -1.07026e-25)
(49.752 3.53268 1.16194e-26)
(51.5664 -0.34663 -7.3837e-28)