# Force coefficients
# liftDir    : (0.000000e+00 1.000000e+00 0.000000e+00)
# dragDir    : (1.000000e+00 0.000000e+00 0.000000e+00)
# pitchAxis  : (0.000000e+00 1.000000e+00 0.000000e+00)
# magUInf    : 4.500000e+01
# lRef       : 1.000000e+00
# Aref       : 7.500000e-02
# CofR       : (0.000000e+00 0.000000e+00 0.000000e+00)
# Time       	Cm           	Cd           	Cl           	Cl(f)        	Cl(r)        
100          	6.447154e-03	1.228029e-02	7.758965e-02	4.524198e-02	3.234767e-02
200          	5.367993e-03	1.022475e-02	8.533593e-02	4.803596e-02	3.729997e-02
300          	4.787401e-03	9.118860e-03	8.862102e-02	4.909791e-02	3.952311e-02
400          	4.662142e-03	8.880270e-03	9.476677e-02	5.204553e-02	4.272124e-02
500          	4.639073e-03	8.836330e-03	9.955284e-02	5.441550e-02	4.513735e-02
600          	4.644033e-03	8.845778e-03	1.036076e-01	5.644781e-02	4.715975e-02
