/*--------------------------------*- C++ -*----------------------------------*\
| =========                 |                                                 |
| \\      /  F ield         | OpenFOAM: The Open Source CFD Toolbox           |
|  \\    /   O peration     | Version:  5.x                                   |
|   \\  /    A nd           | Web:      www.OpenFOAM.org                      |
|    \\/     M anipulation  |                                                 |
\*---------------------------------------------------------------------------*/
FoamFile
{
    version     2.0;
    format      ascii;
    class       volScalarField;
    location    "600";
    object      massFlux;
}
// * * * * * * * * * * * * * * * * * * * * * * * * * * * * * * * * * * * * * //

dimensions      [0 0 0 0 0 0 0];

internalField   nonuniform List<scalar> 
6584
(
0.0241652
0.0241651
0.0241651
0.0241652
0.0241652
0.0241652
0.0241652
0.0241652
0.0241652
0.0241652
0.0241652
0.0241652
0.0241652
0.0241652
0.0241652
0.0241652
0.0241652
0.0241652
0.0241652
0.0241652
0.0241651
0.0241651
0.0241651
0.0241651
0.0241387
0.0241388
0.0241388
0.0241388
0.0241388
0.0241389
0.0241389
0.024139
0.024139
0.024139
0.024139
0.024139
0.024139
0.024139
0.024139
0.024139
0.024139
0.0241389
0.0241389
0.0241389
0.0241388
0.0241388
0.0241388
0.0241387
0.0241124
0.0241124
0.0241124
0.0241124
0.0241124
0.0241125
0.0241126
0.0241127
0.0241128
0.0241259
0.0241259
0.0241259
0.0241259
0.0241259
0.0241259
0.0241128
0.0241127
0.0241126
0.0241126
0.0241125
0.0241125
0.0241125
0.0241124
0.0241124
0.024086
0.0240861
0.0240861
0.0240861
0.0240861
0.0240862
0.0240863
0.0240864
0.0240865
0.0240996
0.0240996
0.0240995
0.0240995
0.0240996
0.0240996
0.0240997
0.0240864
0.0240863
0.0240863
0.0240862
0.0240862
0.0240861
0.0240861
0.024086
0.0240597
0.0240597
0.0240598
0.0240598
0.0240598
0.0240599
0.0240599
0.0240599
0.0240732
0.0240733
0.0240731
0.024073
0.024073
0.0240731
0.0240733
0.0240733
0.0240733
0.0240602
0.02406
0.0240599
0.0240599
0.0240598
0.0240598
0.0240597
0.0240334
0.0240334
0.0240334
0.0240335
0.0240335
0.0240336
0.0240336
0.0240467
0.0240466
0.0240466
0.0240531
0.0240528
0.0240528
0.0240531
0.0240469
0.0240471
0.0240471
0.0240341
0.0240339
0.0240337
0.0240336
0.0240335
0.0240334
0.0240334
0.024007
0.0240071
0.0240071
0.0240072
0.0240072
0.0240073
0.0240075
0.0240205
0.0240203
0.0240201
0.024026
0.0240287
0.0240284
0.024026
0.0240272
0.0240211
0.0240211
0.0240082
0.0240078
0.0240075
0.0240074
0.0240073
0.0240072
0.0240071
0.0239807
0.0239808
0.0239808
0.0239809
0.023981
0.0239811
0.0239814
0.0239943
0.0239942
0.0239942
0.0239995
0.0240006
0.024002
0.0240012
0.0239954
0.0239953
0.0239823
0.0239817
0.0239814
0.0239812
0.023981
0.0239809
0.0239808
0.0239544
0.0239545
0.0239546
0.0239547
0.0239548
0.023955
0.0239553
0.0239683
0.0239683
0.0239686
0.0239738
0.023975
0.023977
0.0239762
0.0239703
0.0239698
0.0239566
0.0239558
0.0239553
0.023955
0.0239548
0.0239546
0.0239545
0.0239282
0.0239282
0.0239283
0.0239284
0.0239286
0.0239289
0.0239293
0.0239423
0.0239425
0.0239432
0.0239488
0.0239509
0.0239541
0.023952
0.0239453
0.0239444
0.0239308
0.0239298
0.0239293
0.0239289
0.0239286
0.0239284
0.0239282
0.0239019
0.0239019
0.023902
0.0239022
0.0239024
0.0239028
0.0239033
0.0239164
0.0239168
0.0239178
0.023924
0.023927
0.0239314
0.023928
0.0239204
0.023919
0.0239051
0.0239039
0.0239032
0.0239027
0.0239024
0.0239021
0.0239019
0.0238756
0.0238757
0.0238758
0.023876
0.0238763
0.0238766
0.0238773
0.0238904
0.023891
0.0238922
0.0238988
0.0239024
0.0239078
0.0239035
0.0238953
0.0238936
0.0238793
0.0238779
0.0238771
0.0238765
0.0238761
0.0238758
0.0238756
0.0238493
0.0238494
0.0238495
0.0238498
0.0238501
0.0238505
0.0238512
0.0238644
0.0238651
0.0238664
0.0238731
0.0238766
0.0238827
0.0238783
0.0238699
0.023868
0.0238534
0.0238519
0.023851
0.0238503
0.0238498
0.0238495
0.0238493
0.023823
0.0238231
0.0238233
0.0238236
0.0238239
0.0238243
0.023825
0.0238255
0.0238389
0.02384
0.0238464
0.023849
0.0178527
0.0238526
0.0238524
0.0238441
0.0238421
0.0238274
0.0238258
0.0238248
0.023824
0.0238235
0.0238231
0.0238229
0.0237967
0.0237968
0.023797
0.0237973
0.0237977
0.0237981
0.0237987
0.023799
0.0238124
0.0238134
0.0238199
0.023819
0.022354
0.023826
0.0238189
0.0238179
0.0238022
0.023801
0.0237994
0.0237985
0.0237978
0.0237972
0.0237968
0.0237964
0.0237704
0.0237706
0.0237708
0.023771
0.0237714
0.0237718
0.0237723
0.0237726
0.023786
0.0237872
0.0237871
0.0237923
0.0224632
0.0237929
0.0237926
0.0237917
0.023776
0.0237747
0.0237731
0.0237721
0.0237713
0.0237707
0.0237703
0.02377
0.0237441
0.0237443
0.0237445
0.0237448
0.0237451
0.0237455
0.023746
0.0237464
0.0237471
0.023761
0.0237608
0.0237355
0.0231372
0.0237664
0.0237662
0.0237653
0.0237496
0.0237484
0.0237467
0.0237456
0.0237448
0.0237442
0.0237438
0.0237434
0.0237178
0.023718
0.0237182
0.0237185
0.0237189
0.0237192
0.0237197
0.0237202
0.0237209
0.0237215
0.0237346
0.0236953
0.0231286
0.02374
0.0237267
0.0237248
0.0237232
0.023722
0.0237203
0.0237191
0.0237183
0.0237177
0.0237173
0.0237169
0.0236915
0.0236917
0.0236919
0.0236922
0.0236926
0.0236929
0.0236935
0.0236941
0.0236948
0.0236953
0.0236912
0.0229678
0.0234077
0.0237007
0.0237004
0.0236985
0.0236968
0.0236955
0.0236938
0.0236926
0.0236918
0.0236911
0.0236907
0.0236903
0.0236652
0.0236654
0.0236656
0.023666
0.0236663
0.0236666
0.0236673
0.0236679
0.0236686
0.0236691
0.0236617
0.0229449
0.0233838
0.0236743
0.023674
0.0236721
0.0236704
0.0236691
0.0236673
0.0236661
0.0236653
0.0236646
0.0236642
0.0236637
0.0236389
0.0236391
0.0236393
0.0236397
0.0236401
0.0236404
0.0236411
0.0236418
0.0236425
0.023643
0.0236325
0.0229218
0.0233596
0.023648
0.0236477
0.0236458
0.023644
0.0236426
0.0236408
0.0236396
0.0236387
0.023638
0.0236376
0.0236371
0.0236126
0.0236128
0.0236131
0.0236134
0.0236138
0.0236142
0.023615
0.0236156
0.0236164
0.0236168
0.0236035
0.0228985
0.0233352
0.0236217
0.0236213
0.0236194
0.0236175
0.0236161
0.0236143
0.0236131
0.0236121
0.0236114
0.023611
0.0236104
0.0235863
0.0235865
0.0235868
0.0235872
0.0235876
0.023588
0.0235888
0.0235895
0.0235903
0.0235907
0.0235746
0.022875
0.0233106
0.0235954
0.023595
0.0235931
0.0235911
0.0235897
0.0235878
0.0235865
0.0235856
0.0235848
0.0235844
0.0235838
0.02356
0.0235602
0.0235605
0.0235609
0.0235614
0.0235618
0.0235626
0.0235634
0.0235643
0.0235646
0.0235459
0.0228514
0.0232859
0.0235692
0.0235687
0.0235667
0.0235647
0.0235632
0.0235613
0.0235599
0.023559
0.0235582
0.0235577
0.0235572
0.0235337
0.023534
0.0235342
0.0235347
0.0235351
0.0235356
0.0235365
0.0235373
0.0235382
0.0235385
0.0235174
0.0228276
0.023261
0.0235429
0.0235425
0.0235404
0.0235383
0.0235367
0.0235347
0.0235334
0.0235324
0.0235316
0.0235311
0.0235305
0.0235075
0.0235077
0.023508
0.0235084
0.0235089
0.0235094
0.0235104
0.0235112
0.0235122
0.0235124
0.0234887
0.0228039
0.0232362
0.0235167
0.0235162
0.0235141
0.0235119
0.0235102
0.0235082
0.0235068
0.0235058
0.023505
0.0235045
0.0235039
0.0234812
0.0234814
0.0234817
0.0234822
0.0234827
0.0234833
0.0234842
0.0234851
0.0234862
0.0234863
0.02346
0.0227804
0.0232115
0.0234905
0.02349
0.0234878
0.0234855
0.0234838
0.0234817
0.0234803
0.0234792
0.0234784
0.0234779
0.0234773
0.0234549
0.0234552
0.0234555
0.0234559
0.0234565
0.0234571
0.0234581
0.023459
0.0234601
0.0234602
0.0234313
0.0227567
0.0231867
0.0234643
0.0234638
0.0234615
0.0234591
0.0234574
0.0234552
0.0234538
0.0234527
0.0234518
0.0234513
0.0234507
0.0234287
0.0234289
0.0234293
0.0234297
0.0234303
0.0234309
0.023432
0.023433
0.0234342
0.0234341
0.0234028
0.022733
0.0231619
0.0234381
0.0234376
0.0234353
0.0234328
0.023431
0.0234288
0.0234273
0.0234261
0.0234252
0.0234247
0.0234241
0.0234024
0.0234027
0.023403
0.0234035
0.0234041
0.0234048
0.0234059
0.0234069
0.0234082
0.023408
0.0233743
0.0227092
0.023137
0.0234119
0.0234114
0.023409
0.0234064
0.0234045
0.0234023
0.0234007
0.0233995
0.0233987
0.0233981
0.0233975
0.0233762
0.0233764
0.0233768
0.0233773
0.023378
0.0233786
0.0233798
0.0233809
0.0233822
0.0233819
0.0233459
0.0226854
0.0231121
0.0233857
0.0233852
0.0233827
0.02338
0.0233781
0.0233758
0.0233742
0.023373
0.0233721
0.0233715
0.0233709
0.0233499
0.0233502
0.0233506
0.0233511
0.0233518
0.0233525
0.0233538
0.0233549
0.0233562
0.0233558
0.0233175
0.0226615
0.0230871
0.0233596
0.023359
0.0233564
0.0233537
0.0233516
0.0233493
0.0233477
0.0233464
0.0233455
0.0233448
0.0233443
0.0233237
0.023324
0.0233244
0.0233249
0.0233256
0.0233264
0.0233277
0.0233289
0.0233302
0.0233298
0.0232892
0.0226376
0.0230622
0.0233334
0.0233328
0.0233302
0.0233273
0.0233252
0.0233228
0.0233211
0.0233198
0.0233189
0.0233182
0.0233177
0.0232975
0.0232977
0.0232981
0.0232987
0.0232994
0.0233003
0.0233017
0.0233029
0.0233043
0.0233037
0.0232608
0.0226136
0.0230372
0.0233072
0.0233066
0.0233039
0.0233009
0.0232988
0.0232963
0.0232946
0.0232932
0.0232923
0.0232916
0.023291
0.0232712
0.0232715
0.0232719
0.0232724
0.0232733
0.0232742
0.0232756
0.0232769
0.0232783
0.0232776
0.0232325
0.0225897
0.0230122
0.023281
0.0232804
0.0232776
0.0232746
0.0232723
0.0232698
0.023268
0.0232666
0.0232656
0.023265
0.0232644
0.023245
0.0232453
0.0232457
0.0232463
0.0232471
0.0232481
0.0232496
0.0232509
0.0232524
0.0232515
0.023204
0.0225658
0.0229873
0.0232549
0.0232542
0.0232514
0.0232482
0.0232459
0.0232433
0.0232415
0.0232401
0.023239
0.0232383
0.0232378
0.023978
0.0239797
0.0240014
0.0239539
0.0239569
0.0239768
0.02393
0.0239344
0.0239541
0.0239055
0.023911
0.0239315
0.0238799
0.0238862
0.023908
0.0238525
0.0172758
0.0175369
0.0238598
0.0238829
0.0240041
0.0240283
0.0240047
0.024029
0.0239801
0.0239785
0.0240013
0.0239884
0.0240005
0.0239799
0.023982
0.0240007
0.023955
0.0239541
0.0239754
0.0239659
0.0239558
0.0239728
0.023939
0.0239714
0.0239569
0.0239579
0.0239759
0.0239302
0.0239301
0.0239511
0.023942
0.02391
0.0239227
0.0236407
0.0238039
0.0239343
0.0239341
0.023952
0.0239051
0.0239054
0.023927
0.0239179
0.023898
0.0239026
0.0238365
0.0237083
0.0239108
0.02391
0.0239282
0.0238817
0.0238885
0.023886
0.0238851
0.0239039
0.023868
0.0238766
0.0238257
0.0191867
0.017307
0.0211611
0.0238326
0.0238562
0.0239749
0.0239869
0.0239874
0.0239864
0.0239714
0.0240003
0.023988
0.0239728
0.0239876
0.0239886
0.0239873
0.0239754
0.0239257
0.0239522
0.0239629
0.0239269
0.0238428
0.0239678
0.0239316
0.0238153
0.0239373
0.0239653
0.0239504
0.0239128
0.0239742
0.0239517
0.0239682
0.0239033
0.0239089
0.023939
0.0238214
0.0238476
0.0238394
0.0238202
0.0237035
0.0236323
0.0239429
0.0238903
0.0238917
0.0239116
0.0238916
0.0239457
0.0238249
0.0238442
0.0238494
0.0238215
0.0238876
0.0238437
0.0239199
0.0239019
0.0239031
0.0238917
0.0239013
0.0239229
0.0238557
0.0238553
0.0238462
0.0238551
0.0238775
0.0238816
0.0239021
0.0238943
0.0238988
0.0238483
0.0238252
0.0238548
0.0238494
0.0238548
0.0238664
0.0239907
0.0239885
0.0240009
0.0239913
0.0239991
0.0238796
0.0238798
0.0239023
0.0238928
0.0238839
0.0238911
0.0234936
0.0232876
0.0238596
0.0238594
0.0238787
0.0239994
0.0239917
0.0240011
0.0239889
0.0239917
0.023892
0.0238973
0.0239148
0.0172667
0.0184678
0.0219635
0.0224307
0.018537
0.0199045
0.0232475
0.0228657
0.0238957
0.0238931
0.0238833
0.0224866
0.022771
0.0238818
0.0238708
0.0238732
0.0240151
0.0240136
0.0240022
0.0240024
0.0240139
0.0240152
0.0239903
0.0239934
0.0239909
0.0239997
0.0239918
0.0239951
0.0239517
0.0239579
0.0237391
0.0237466
0.0237934
0.0237782
0.0238809
0.0228693
0.0238915
0.0236474
0.0235165
0.0235393
0.0236591
0.0238732
0.023886
0.0239813
0.0236735
0.0239517
0.0236094
0.0239793
0.0239598
0.0239911
0.0239931
0.0239893
0.0239144
0.0239804
0.0239814
0.0238783
0.0238731
0.0239565
0.0239539
0.0238667
0.0238733
0.0239201
0.0239604
0.0239647
0.0239547
0.0239589
0.0239192
0.0239647
0.023972
0.0239765
0.0239662
0.0239705
0.023962
0.0238345
0.0238359
0.0238222
0.0238208
0.0235211
0.0235375
0.0238797
0.0239383
0.0239424
0.0239329
0.023937
0.0238789
0.0239038
0.0239492
0.0239533
0.0239437
0.0239478
0.0239026
0.0173766
0.0238344
0.0186897
0.0173739
0.0201579
0.0187758
0.0238371
0.0238062
0.017513
0.02381
0.0238759
0.0238729
0.0238963
0.0239274
0.0239315
0.0239218
0.023926
0.0238977
0.0212159
0.0218623
0.0238511
0.0212996
0.0202559
0.0221475
0.0214156
0.0238524
0.0200415
0.0211062
0.0238799
0.0232986
0.0235159
0.0229134
0.0232544
0.0238805
0.0227712
0.0227345
0.0228357
0.0183213
0.0228036
0.0226941
0.0190666
0.0236463
0.0236594
0.0239975
0.0238534
0.0238526
0.0238765
0.0238667
0.0238631
0.0238725
0.0207158
0.0238308
0.023848
0.0239974
0.0238735
0.0238827
0.0238896
0.0183227
0.0184315
0.0165418
0.0227009
0.0226821
0.0186479
0.0190078
0.0236054
0.0236435
0.0136182
0.0240065
0.0240071
0.0240005
0.0240004
0.0240072
0.0240067
0.0239641
0.0239694
0.0239648
0.0239419
0.0239402
0.0239655
0.023914
0.0239453
0.0239409
0.0239512
0.0239468
0.0239158
0.0236893
0.0237819
0.0238184
0.0237199
0.0221466
0.0218291
0.023872
0.0236716
0.0237511
0.0237918
0.0237825
0.0189109
0.0239949
0.0239925
0.024
0.023976
0.0239575
0.0239446
0.0239825
0.0239841
0.0239889
0.023978
0.0239826
0.0239809
0.0239361
0.0239572
0.0239527
0.0239633
0.0239587
0.0239398
0.0239049
0.0230249
0.0235481
0.0227235
0.0227871
0.0238546
0.0236023
0.0236612
0.0239422
0.0238362
0.0238965
0.0239336
0.0239603
0.0239619
0.0239502
0.0239526
0.0239156
0.0239394
0.0239351
0.0239062
0.0238281
0.0226459
0.0223756
0.0238304
0.022633
0.0227067
0.0223247
0.0223538
0.0238184
0.0236307
0.0235754
0.0238845
0.0239366
0.0239385
0.0239278
0.0239314
0.023887
0.0239085
0.0239472
0.0239494
0.0239391
0.023941
0.0238968
0.0238837
0.0235256
0.0236055
0.0234206
0.0233739
0.0238584
0.0239064
0.0239161
0.0239204
0.0239101
0.0239146
0.0239056
0.0238563
0.0226472
0.0222243
0.0230775
0.0229592
0.0238562
0.0200729
0.0202642
0.023853
0.0232064
0.0231137
0.0198481
0.0200179
0.0225361
0.0222304
0.0239945
0.0239974
0.0239956
0.0218143
0.0234181
0.021963
0.0221398
0.0220637
0.0233916
0.0239961
0.0239946
0.0239981
0.0239932
0.0239949
0.0174283
0.0178195
0.0184958
0.0183768
0.0221886
0.0190977
0.0189568
0.0194671
0.0191394
0.0222482
0.0189065
0.0191713
0.0231066
0.0230423
0.0226285
0.0199804
0.0196453
0.0190416
0.0192235
0.0239869
0.0239898
0.0239928
0.0239857
0.0239889
0.0239855
0.023943
0.0239641
0.0236974
0.0237742
0.023814
0.0237279
0.0229612
0.0236396
0.0235826
0.0236988
0.0236574
0.0229429
0.0234508
0.0233962
0.0235648
0.0234817
0.0236017
0.0226224
0.0228155
0.0222741
0.0225275
0.0235825
0.0216583
0.0217523
0.0238134
0.0239738
0.0239629
0.0239846
0.0239771
0.0238488
0.0238976
0.0238721
0.023955
0.0239078
0.0239834
0.0239895
0.023986
0.0239809
0.0239739
0.0239734
0.0239603
0.0239771
0.0239653
0.0239797
0.0239845
0.0239681
0.0239779
0.0239841
0.0239806
0.0239748
0.0228741
0.0229507
0.0238969
0.0221028
0.0217786
0.0230743
0.0221653
0.0213271
0.0210379
0.0216817
0.0214605
0.0238591
0.0228107
0.0228569
0.0235326
0.0234126
0.0238585
0.0236334
0.0232887
0.0231852
0.0233922
0.0233165
0.0239453
0.0236751
0.0237154
0.0238433
0.0238927
0.0239567
0.0239594
0.0239268
0.0239166
0.0239534
0.0239559
0.0227307
0.0226936
0.0238301
0.0208433
0.0208775
0.0194814
0.020676
0.0208002
0.0212081
0.0208564
0.0207988
0.0225266
0.0226093
0.0238279
0.0205777
0.0202777
0.020975
0.0206673
0.0196956
0.0194012
0.0201579
0.0198468
0.0238191
0.0223963
0.0224932
0.02358
0.0235613
0.0239342
0.023936
0.0238832
0.0238834
0.023932
0.0239336
0.0239444
0.0239465
0.0239074
0.0238981
0.0239417
0.0239437
0.0175338
0.0179654
0.022833
0.0229978
0.0226119
0.0227736
0.0175111
0.0196226
0.0232127
0.022949
0.0230424
0.0231725
0.0193351
0.0218413
0.0219512
0.0214369
0.0217997
0.0179222
0.0223894
0.0225661
0.022009
0.0222959
0.0179231
0.0234561
0.023506
0.0238821
0.0232428
0.0233452
0.0233705
0.0232374
0.0233441
0.0238619
0.0233428
0.0234134
0.0214871
0.018194
0.0181953
0.0188418
0.0182568
0.0215801
0.0185044
0.0204483
0.0181975
0.0206255
0.0230921
0.0237452
0.0237115
0.023785
0.0237565
0.0231215
0.0226178
0.0226744
0.0203527
0.0205639
0.0193656
0.019775
0.0227512
0.0226073
0.0240054
0.0240071
0.0240267
0.0238699
0.0238679
0.0238575
0.0240027
0.0240031
0.023999
0.0239984
0.024003
0.0240028
0.024015
0.0240144
0.024003
0.0239756
0.0239709
0.0239665
0.02394
0.0239011
0.0238953
0.0236533
0.0237964
0.0239277
0.0239232
0.0239006
0.0235362
0.0235091
0.0237117
0.023623
0.0236633
0.0238904
0.0239803
0.0239819
0.0239771
0.0239304
0.0239466
0.0239743
0.0239856
0.023982
0.023985
0.0239653
0.0238473
0.0239231
0.0238222
0.0238893
0.0238819
0.0239332
0.0239343
0.0239351
0.0239137
0.0239637
0.0239654
0.0239548
0.0239054
0.0239336
0.0239292
0.0228725
0.0227641
0.0238419
0.0236943
0.0235717
0.0235619
0.0236238
0.023889
0.0239217
0.0239223
0.0239106
0.0239327
0.0239335
0.0239229
0.0239235
0.0238931
0.0237991
0.0230363
0.0229262
0.0238917
0.0239255
0.0239266
0.0238991
0.023904
0.0239085
0.0179967
0.018008
0.0233046
0.023234
0.0238521
0.0179942
0.017992
0.0237579
0.0237724
0.0238618
0.0239922
0.023992
0.0171892
0.0173508
0.0174367
0.0183697
0.0186114
0.0171696
0.0172578
0.0183636
0.0181653
0.0197204
0.022582
0.0225262
0.0229253
0.0202489
0.0200378
0.022667
0.0240081
0.0240075
0.0240009
0.0239885
0.0239893
0.0239903
0.0239914
0.023982
0.0239835
0.0239938
0.0239968
0.0239951
0.0239301
0.023927
0.0239472
0.023961
0.0239513
0.0239458
0.0237192
0.0237541
0.0235978
0.023617
0.0238031
0.0237593
0.0235144
0.0235583
0.0230327
0.0230435
0.0232674
0.0232361
0.0228707
0.0230657
0.0230901
0.0238908
0.0236794
0.0237231
0.0238603
0.0237418
0.0238979
0.0238787
0.0239725
0.0239649
0.0239349
0.0233185
0.0232139
0.0238299
0.0236879
0.0234867
0.0239922
0.0239904
0.0239864
0.0239868
0.02398
0.0239841
0.0239365
0.0239754
0.0239793
0.0237291
0.0238022
0.0239635
0.0230813
0.0229554
0.0238602
0.0238797
0.0239706
0.0239722
0.0239691
0.023956
0.0239671
0.0239688
0.0238404
0.0227509
0.0227323
0.0235204
0.0235453
0.0239282
0.0239289
0.0239049
0.0239009
0.0239268
0.0239275
0.0174841
0.0185817
0.0204627
0.0205758
0.019243
0.0193411
0.0172479
0.0231152
0.0230572
0.0238027
0.0179456
0.0177819
0.0187714
0.0187902
0.0176592
0.0191358
0.0191856
0.017658
0.0176954
0.0239232
0.0239243
0.0238922
0.0238995
0.0239209
0.023922
0.0208004
0.0231206
0.0231744
0.0230069
0.0230637
0.0206226
0.0233996
0.023764
0.0237926
0.023783
0.0237741
0.0234331
0.0229872
0.0233503
0.0233078
0.0226685
0.0226021
0.0227811
0.0184692
0.0186044
0.0186827
0.0180298
0.0228913
0.0206732
0.0203577
0.0209422
0.0207489
0.022651
0.0217252
0.0217477
0.0228677
0.0230304
0.0236886
0.0239965
0.0239975
0.0239954
0.0182804
0.0183008
0.0203276
0.0203004
0.0162331
0.018853
0.0184134
0.0184205
0.0182658
0.0183514
0.0189558
0.0137406
0.0227137
0.0227496
0.0240039
0.0240033
0.023999
0.0239122
0.0239067
0.0239409
0.0239302
0.0239468
0.023959
0.0239406
0.0239442
0.0236733
0.0237891
0.0234063
0.0234366
0.0234352
0.0234039
0.0237151
0.0234893
0.0234772
0.0220747
0.0215881
0.0215851
0.0216531
0.0216398
0.0219846
0.0239541
0.0239665
0.0239677
0.0239633
0.0239653
0.0239505
0.0238291
0.0239228
0.0238749
0.0238584
0.0239147
0.023936
0.0239368
0.0235706
0.0235767
0.0236744
0.0235957
0.0239206
0.0239211
0.0238866
0.0239312
0.0239319
0.0239096
0.0238951
0.0239241
0.0239248
0.0234242
0.0235242
0.0234819
0.0235591
0.0235461
0.0234152
0.0180299
0.018081
0.0180358
0.0180064
0.0199076
0.0188473
0.0187937
0.0217453
0.0217374
0.0224428
0.0218568
0.021984
0.0216247
0.0217257
0.0223346
0.0239939
0.0239931
0.0239934
0.0239939
0.0239966
0.0239969
0.0239981
0.0239949
0.0239957
0.0239957
0.0219289
0.0227193
0.0226693
0.0228574
0.0227859
0.0219913
0.0222551
0.0224853
0.0223849
0.022629
0.0225773
0.0221759
0.0239955
0.0239961
0.023995
0.0239897
0.0239867
0.0239935
0.0239924
0.0171998
0.0181851
0.0174907
0.0174592
0.0184684
0.0184269
0.0199175
0.0200077
0.0190199
0.0171687
0.017112
0.0187222
0.0176304
0.0176177
0.0175761
0.0194658
0.0178014
0.017418
0.022644
0.0227363
0.0231628
0.0224135
0.0224388
0.0223434
0.0223635
0.0229796
0.0225058
0.0225473
0.0190762
0.0180754
0.0181714
0.0179884
0.0179977
0.0191296
0.0239882
0.0239892
0.0239881
0.0239826
0.0239847
0.0239871
0.0239079
0.0239446
0.0239228
0.0239175
0.0239308
0.0239353
0.0239206
0.023926
0.0237058
0.023762
0.023471
0.0234813
0.023448
0.02346
0.0238094
0.0236271
0.0236339
0.0234744
0.0234883
0.0237411
0.0234817
0.0231165
0.0230524
0.0229046
0.0232097
0.0231757
0.0234282
0.023119
0.0231102
0.0232162
0.0231607
0.0234122
0.0235434
0.0232668
0.0232997
0.0231453
0.0232088
0.0235149
0.0230975
0.0223581
0.0229708
0.0229206
0.0216042
0.0216541
0.0238003
0.0239145
0.0239064
0.023778
0.0238788
0.0239451
0.023927
0.0234856
0.0234005
0.0237339
0.0237542
0.0238815
0.0236493
0.0235711
0.0239593
0.023969
0.023984
0.0239767
0.0239459
0.0239082
0.0239448
0.0239709
0.0239753
0.023977
0.0239694
0.023972
0.0239624
0.023951
0.0239621
0.0239812
0.0239778
0.0239752
0.0239829
0.0239792
0.0239827
0.0239706
0.0239728
0.0239675
0.0239732
0.0220226
0.0218918
0.0228141
0.0215992
0.0217193
0.0213445
0.0222242
0.0212134
0.0211174
0.0216001
0.021534
0.0234715
0.0229173
0.0230469
0.0226696
0.022787
0.0234367
0.0238329
0.0236382
0.0237013
0.0231269
0.0234922
0.0237711
0.0228366
0.0226053
0.0232615
0.0220045
0.0220986
0.0218541
0.0219272
0.0232316
0.0233721
0.0224861
0.0225695
0.0222095
0.0223389
0.0233449
0.0238536
0.0238875
0.0209007
0.0196552
0.0198283
0.0192967
0.0194667
0.0208975
0.0198073
0.0199055
0.0198855
0.0202724
0.0208629
0.0183787
0.0185416
0.0187158
0.0184095
0.0209985
0.020836
0.0190029
0.0191426
0.0187291
0.0188783
0.0208165
0.0205073
0.0204204
0.0209077
0.0207768
0.0195646
0.0194495
0.0200591
0.0199803
0.0235429
0.023553
0.0239061
0.0239297
0.0239304
0.0239254
0.0239261
0.0238993
0.0175582
0.020061
0.0202999
0.0183788
0.0172482
0.0195158
0.0197754
0.018292
0.0181144
0.0218749
0.019861
0.0198676
0.0216214
0.0196043
0.0191852
0.0198576
0.0197886
0.0217351
0.018686
0.0184812
0.0188503
0.0190452
0.0178091
0.0179582
0.018429
0.0234785
0.0236788
0.0236631
0.0237017
0.0236906
0.0234923
0.0232774
0.0233249
0.0233222
0.0232372
0.0232352
0.0232694
0.0233381
0.0235899
0.0235718
0.0236409
0.0236145
0.0233672
0.018182
0.0189618
0.019055
0.0188112
0.018888
0.018188
0.0186272
0.0196019
0.019787
0.0191943
0.0193881
0.0184103
0.0184647
0.0175837
0.0177033
0.0175861
0.0175647
0.0181844
0.0185418
0.0187086
0.0179533
0.0182479
0.0181252
0.0234143
0.0233868
0.0230542
0.0226104
0.0227405
0.018203
0.0184029
0.019528
0.018362
0.0181129
0.0187225
0.0185984
0.019672
0.0180829
0.018069
0.0217232
0.0217192
0.0240598
0.0240597
0.0240731
0.0240596
0.0240595
0.0240729
0.0240595
0.0240596
0.024073
0.0240598
0.02406
0.0240732
0.0240333
0.024033
0.0240464
0.0240328
0.0240325
0.024053
0.0240322
0.0240319
0.0240527
0.024032
0.0240325
0.0240528
0.0240328
0.0240333
0.0240533
0.0240337
0.0240339
0.0240469
0.0240071
0.0240065
0.0240264
0.024006
0.0240047
0.0240256
0.0240181
0.0240178
0.0240286
0.0240171
0.0240176
0.0240284
0.0240191
0.0240195
0.0240261
0.0240076
0.0240083
0.024021
0.0239814
0.0239806
0.024
0.023993
0.0239928
0.0239993
0.0239972
0.023997
0.0240004
0.0239923
0.0239937
0.0240033
0.0239824
0.0239831
0.0239956
0.0239559
0.0239554
0.0239743
0.0239675
0.0239675
0.0239738
0.0239719
0.0239719
0.0239749
0.0239683
0.0239693
0.0239783
0.0239581
0.0239584
0.0239708
0.0239305
0.0239304
0.0239491
0.0239426
0.0239429
0.023949
0.023948
0.023948
0.023951
0.0239456
0.023946
0.0239547
0.023934
0.0239338
0.0239461
0.0239051
0.0239052
0.0239241
0.0239177
0.0239181
0.0239243
0.023924
0.0239242
0.0239272
0.0239227
0.0239224
0.0239313
0.0239097
0.0239091
0.0239215
0.0238794
0.0238796
0.0238988
0.0238992
0.0238994
0.0239025
0.0238986
0.0238977
0.023907
0.0238846
0.0238839
0.0238966
0.0238534
0.0238534
0.0238731
0.0238729
0.0238728
0.0238792
0.0238589
0.0238583
0.0238712
0.0238266
0.0238262
0.0238395
0.0238265
0.0238258
0.0238458
0.023839
0.0238335
0.0238436
0.0187276
0.0235101
0.0235373
0.0238327
0.0238331
0.0238529
0.0238322
0.0238324
0.0238454
0.0238003
0.0237999
0.0238131
0.0238002
0.0237993
0.0238192
0.023799
0.0208245
0.0207452
0.0224397
0.0238057
0.0238259
0.0238059
0.0238066
0.0238262
0.0238057
0.023806
0.0238191
0.0237739
0.0237734
0.0237866
0.023757
0.0222518
0.0208472
0.0231403
0.0237779
0.0237989
0.0237797
0.0237802
0.0237934
0.023978
0.0239811
0.0239811
0.0239826
0.0239837
0.0239789
0.0240011
0.0239979
0.0239981
0.0239539
0.0239569
0.0239569
0.0239597
0.0239597
0.0239555
0.0239773
0.0239728
0.0239739
0.0239302
0.0239332
0.023933
0.0239372
0.0239376
0.0239335
0.0239541
0.0239499
0.0239513
0.0239057
0.0239088
0.0239086
0.023914
0.0239148
0.0239104
0.0239321
0.0239279
0.0239287
0.0238893
0.0238891
0.0238859
0.0239075
0.0239045
0.0239049
0.023847
0.0238598
0.0238633
0.0162182
0.0198872
0.0199149
0.0216198
0.0216266
0.0138841
0.0238827
0.0238795
0.0238797
0.0240028
0.0240141
0.0240145
0.0239994
0.0239994
0.0239983
0.0240284
0.0240174
0.024017
0.0239994
0.0239996
0.0240081
0.0240079
0.0240044
0.0240289
0.0240181
0.0240185
0.02398
0.0239864
0.0239865
0.023988
0.0239862
0.0239799
0.023999
0.0239925
0.0239913
0.0239901
0.0239896
0.0239867
0.0240001
0.0239982
0.0239986
0.0239813
0.0239905
0.0239891
0.0239881
0.0239882
0.0239821
0.0240005
0.0239943
0.0239944
0.0239552
0.0239613
0.0239613
0.0239631
0.0239614
0.0239553
0.0239737
0.0239675
0.0239661
0.0239658
0.0239689
0.0239689
0.0239587
0.0239639
0.023962
0.0239743
0.0239727
0.0239708
0.0239672
0.0239624
0.0239693
0.0239576
0.0239664
0.0239654
0.0239639
0.0239643
0.0239584
0.0239761
0.0239702
0.0239699
0.0239305
0.0239367
0.0239364
0.0239391
0.023937
0.0239308
0.0239492
0.0239431
0.0239421
0.0239421
0.0239451
0.023945
0.0239112
0.0239348
0.0239334
0.0239441
0.0239423
0.0239201
0.0239343
0.0239431
0.0239428
0.0239401
0.0239408
0.0239349
0.0239525
0.0239467
0.023946
0.0239056
0.0239119
0.0239114
0.0239148
0.0239123
0.023906
0.0239247
0.0239185
0.0239179
0.0239181
0.0239211
0.0239209
0.0238999
0.0239217
0.0239172
0.0239215
0.0239202
0.0239019
0.0238293
0.0236652
0.0236865
0.0239102
0.0239193
0.0239198
0.0239161
0.0239169
0.0239108
0.0239289
0.023923
0.0239222
0.0238816
0.0237752
0.0237982
0.0238484
0.0238521
0.0238893
0.0238855
0.0238918
0.0238955
0.0238914
0.0238922
0.0238859
0.0239047
0.0238985
0.0238977
0.0238693
0.0238577
0.0238572
0.0238566
0.0238573
0.0238755
0.0238223
0.0238302
0.0238323
0.0189779
0.0237789
0.0237646
0.0226905
0.0226982
0.0174769
0.0238189
0.0238278
0.0208381
0.0238393
0.02384
0.0238309
0.023854
0.0238433
0.023846
0.0239768
0.0239776
0.023976
0.0239884
0.0239835
0.023982
0.0239843
0.0239842
0.0239873
0.0239848
0.0239822
0.0239864
0.0239985
0.0239982
0.024
0.0239876
0.0239893
0.0239897
0.0239739
0.0239709
0.0239695
0.0239874
0.0239864
0.0239867
0.0239884
0.0239853
0.0239855
0.0239857
0.0239862
0.0239878
0.0239768
0.0239783
0.0239775
0.0239289
0.0239478
0.0239459
0.02396
0.023958
0.0239481
0.0239599
0.0239599
0.0239629
0.0239209
0.0238603
0.0238769
0.0236918
0.0236978
0.0238465
0.0238879
0.0238958
0.0239356
0.0239654
0.0239611
0.0239625
0.0239482
0.0239559
0.0239573
0.0239703
0.0239738
0.0239753
0.0239585
0.0239596
0.0239528
0.023971
0.0239713
0.0239669
0.0239039
0.0239241
0.0239228
0.023932
0.0239307
0.023908
0.023936
0.0239362
0.0239391
0.0238238
0.0236616
0.0236548
0.0237273
0.0237215
0.0238455
0.0238362
0.0236809
0.0236862
0.0236501
0.0236471
0.0238188
0.0239431
0.023939
0.0239401
0.0239184
0.0239185
0.0238912
0.0239485
0.0239486
0.0239445
0.0238283
0.0234218
0.023357
0.0236666
0.0236537
0.023842
0.0238512
0.023739
0.0237333
0.0233364
0.0232641
0.0238179
0.0238865
0.0238389
0.023844
0.0237094
0.0237283
0.0238499
0.0239207
0.0239163
0.023917
0.0239029
0.0239161
0.0239173
0.0239083
0.0239096
0.023904
0.0238916
0.0239179
0.0239181
0.0239185
0.0239197
0.0238998
0.0239258
0.0239264
0.0239222
0.023856
0.023761
0.0237547
0.0237871
0.0237838
0.0238557
0.023848
0.0236905
0.0236788
0.0237477
0.0237399
0.0238544
0.0238784
0.0238543
0.0238556
0.0238047
0.0238215
0.0238814
0.0239012
0.0239056
0.0239069
0.0238978
0.0239023
0.0238979
0.0239019
0.0239015
0.0238984
0.0238445
0.0233725
0.0233247
0.0232537
0.0233424
0.0238418
0.0238543
0.0237925
0.02379
0.0238601
0.0237739
0.0237739
0.0239905
0.0239937
0.0239939
0.0239937
0.023995
0.02399
0.0240001
0.0239967
0.0239955
0.0239987
0.0239975
0.023998
0.0238895
0.0238868
0.0238804
0.0238997
0.0238933
0.0238927
0.023893
0.0238962
0.023896
0.0238872
0.0238954
0.0238922
0.0239016
0.0238985
0.0238882
0.0234689
0.023196
0.0232379
0.0229161
0.0229821
0.0233268
0.0238598
0.0238663
0.0238696
0.0239983
0.023998
0.0239992
0.0239904
0.023992
0.0239928
0.0239956
0.0239972
0.0240024
0.0239905
0.0239955
0.0239939
0.0239949
0.0239947
0.0239915
0.0238944
0.0239095
0.0239046
0.0239156
0.0239111
0.0238952
0.0239117
0.0239119
0.023915
0.022049
0.0210677
0.0209764
0.0215422
0.0214501
0.0223691
0.0232073
0.022796
0.0228515
0.0238953
0.0238922
0.0238925
0.0238891
0.0238915
0.0238961
0.0238851
0.0238898
0.0238877
0.0225399
0.02172
0.0216339
0.022088
0.0220315
0.0227373
0.0238772
0.0238788
0.023882
0.0238724
0.0238756
0.0238756
0.0238764
0.0238763
0.023873
0.0240153
0.0240092
0.0240088
0.0240098
0.0240095
0.0240155
0.0240012
0.0240075
0.0240079
0.0240043
0.024004
0.0240021
0.0240156
0.0240096
0.02401
0.0240089
0.0240093
0.0240153
0.0239936
0.0239906
0.0239917
0.0239962
0.0239977
0.0239997
0.0239924
0.0239935
0.0239928
0.0239968
0.0239964
0.0239946
0.0237341
0.0237657
0.0238813
0.0238913
0.0238669
0.0238691
0.0236341
0.0234548
0.0234774
0.0232764
0.02331
0.0235371
0.0235996
0.0237976
0.0237908
0.0238086
0.0238035
0.0236159
0.0238744
0.0238578
0.0238581
0.0239741
0.0239804
0.0239831
0.0239769
0.0239523
0.0239707
0.0239667
0.0239803
0.0239767
0.023992
0.0239909
0.0239897
0.0239914
0.023991
0.0239927
0.0239791
0.0239779
0.0239794
0.0239823
0.0239813
0.0239802
0.0237509
0.023761
0.0238838
0.0238683
0.023734
0.0237421
0.0239359
0.0239414
0.023959
0.0239511
0.023925
0.0239304
0.0239414
0.0239426
0.0239213
0.0239618
0.0239608
0.0239593
0.0239638
0.0239623
0.0239632
0.0239561
0.0239549
0.0239535
0.0239578
0.0239564
0.0239575
0.0239184
0.0239395
0.0239404
0.0239681
0.0239693
0.0239665
0.0239735
0.0239729
0.0239714
0.0239759
0.0239744