/*--------------------------------*- C++ -*----------------------------------*\
| =========                 |                                                 |
| \\      /  F ield         | OpenFOAM: The Open Source CFD Toolbox           |
|  \\    /   O peration     | Version:  5.x                                   |
|   \\  /    A nd           | Web:      www.OpenFOAM.org                      |
|    \\/     M anipulation  |                                                 |
\*---------------------------------------------------------------------------*/
FoamFile
{
    version     2.0;
    format      ascii;
    class       volScalarField;
    location    "600";
    object      p;
}
// * * * * * * * * * * * * * * * * * * * * * * * * * * * * * * * * * * * * * //

dimensions      [0 2 -2 0 0 0 0];

internalField   nonuniform List<scalar> 
6584
(
20.9994
19.1749
17.3499
15.5253
13.7007
11.8761
10.0515
8.22744
6.40357
4.57959
2.75499
0.929187
-0.898186
-2.72697
-4.55657
-6.38629
-8.21563
-10.0445
-11.8729
-13.701
-15.5288
-17.3558
-19.1821
-21.0072
21.001
19.1792
17.3556
15.5312
13.7069
11.8813
10.0544
8.22881
6.40475
4.58104
2.75671
0.931088
-0.896353
-2.72545
-4.55545
-6.38598
-8.21668
-10.0471
-11.8774
-13.7067
-15.5348
-17.3619
-19.1869
-21.0085
21.0014
19.1825
17.3622
15.5394
13.7154
11.8899
10.0609
8.23183
6.4065
5.03856
3.21557
1.39102
-0.436012
-2.26561
-4.09674
-6.38979
-8.22501
-10.0574
-11.8877
-13.7162
-15.5431
-17.3682
-19.1897
-21.0095
21.0014
19.1832
17.3646
15.5446
13.7222
11.8979
10.0692
8.23871
6.41071
5.04094
3.21968
1.39685
-0.430033
-2.26225
-4.102
-5.94091
-8.24111
-10.0716
-11.8994
-13.7257
-15.5502
-17.3717
-19.1911
-21.0102
21.001
19.183
17.3648
15.5464
13.7265
11.9039
10.0785
8.25366
6.876
5.04587
3.22545
1.40521
-0.421049
-2.26619
-4.12141
-5.96503
-7.79805
-10.0846
-11.9096
-13.7333
-15.5544
-17.3737
-19.1923
-21.011
21.0006
19.1827
17.3645
15.5464
13.728
11.9081
10.087
8.721
6.89765
5.07377
3.47113
1.64818
-0.173997
-2.05021
-4.14575
-5.98427
-7.81236
-10.0955
-11.9182
-13.7385
-15.5572
-17.3754
-19.1934
-21.0116
21.0002
19.1823
17.3641
15.546
13.7277
11.9089
10.0894
8.7234
6.90432
5.08881
3.50543
1.80313
-0.013513
-2.07361
-3.93998
-6.00413
-7.82712
-10.1053
-11.9245
-13.742
-15.5594
-17.3769
-19.1945
-21.0122
20.9998
19.1818
17.3636
15.5453
13.7268
11.9079
10.089
8.72382
6.90175
5.08096
3.49372
1.81048
-2.02913
-3.97795
-6.02457
-7.84039
-10.1119
-11.9288
-13.7448
-15.5613
-17.3781
-19.1953
-21.0126
20.9995
19.1814
17.3631
15.5446
13.7258
11.9064
10.0865
8.72131
6.8955
5.06538
3.46027
1.72105
-2.14753
-4.01902
-6.04068
-7.84773
-10.1139
-11.9304
-13.7466
-15.5627
-17.3789
-19.1958
-21.0128
20.9993
19.1811
17.3627
15.5441
13.7251
11.9054
10.0848
8.71819
6.88904
5.05429
3.44012
1.68484
-2.19978
-4.04103
-6.04743
-7.84978
-10.112
-11.9281
-13.7457
-15.5629
-17.3791
-19.1959
-21.0126
20.9991
19.1808
17.3624
15.5436
13.7247
11.9049
10.0843
8.71673
6.88714
5.05361
3.44239
1.70215
-2.17514
-4.0311
-6.03991
-7.84379
-10.1058
-11.9222
-13.741
-15.5609
-17.3787
-19.1955
-21.0122
20.9991
19.1807
17.3623
15.5436
13.7247
11.9054
10.0848
8.71707
6.88953
5.06111
3.45966
1.74439
-2.10408
-3.99663
-6.02042
-7.83044
-10.0954
-11.9133
-13.7333
-15.5554
-17.3764
-19.1947
-21.0115
20.9992
19.1807
17.3624
15.5438
13.7252
11.9064
10.0864
8.71905
6.89418
5.07124
3.47942
1.7865
-2.02719
-3.95304
-5.99478
-7.81227
-10.0815
-11.9018
-13.7235
-15.5474
-17.3721
-19.1933
-21.0104
20.9993
19.1809
17.3626
15.5442
13.7259
11.9075
10.0878
8.26585
6.8981
5.07624
3.48448
1.77962
0.0677828
-2.07016
-3.91258
-5.96615
-7.79161
-10.0648
-11.8881
-13.712
-15.5391
-17.3663
-19.1901
-21.0092
20.9994
19.181
17.3628
15.5445
13.7263
11.9079
10.0871
8.26124
6.89363
5.05973
3.46203
1.65003
-0.169766
-2.03351
-4.10777
-5.94222
-8.22695
-10.0531
-11.8789
-13.7036
-15.5314
-17.3584
-19.1834
-21.0063
20.9995
19.1811
17.3628
15.5444
13.7261
11.9073
10.0843
8.25284
6.87746
5.05109
3.23058
1.6373
-0.192021
-2.2582
-4.09853
-5.93337
-8.2199
-10.047
-11.873
-13.701
-15.5269
-17.3526
-19.1778
-21.0033
20.9995
19.181
17.3626
15.5441
13.7255
11.9055
10.0798
8.24744
6.41686
5.04894
3.22571
1.40066
-0.424778
-2.26024
-4.09629
-5.92817
-8.21329
-10.0402
-11.8673
-13.6954
-15.5225
-17.3488
-19.1762
-21.0017
20.9994
19.1808
17.3623
15.5435
13.7243
11.9023
10.0743
8.24269
6.41505
4.59109
3.22236
1.39794
-0.432213
-2.26242
-4.55115
-6.38104
-8.20923
-10.0364
-11.8637
-13.6912
-15.518
-17.3449
-19.1722
-20.9995
20.9993
19.1805
17.3617
15.5428
13.7231
11.8988
10.0689
8.23928
6.41306
4.58874
2.76088
0.937074
-0.890143
-2.72243
-4.5498
-6.37918
-8.20677
-10.034
-11.861
-13.6882
-15.515
-17.3421
-19.169
-20.9974
20.9992
19.1802
17.3611
15.5419
13.7218
11.896
10.0653
8.23743
6.41159
4.58707
2.75979
0.934975
-0.892258
-2.72228
-4.54903
-6.37781
-8.2049
-10.0321
-11.8588
-13.6858
-15.5128
-17.3398
-19.1665
-20.9958
20.999
19.1798
17.3604
15.5409
13.7204
11.894
10.063
8.23608
6.41051
4.58576
2.7588
0.93319
-0.893824
-2.72227
-4.54865
-6.37683
-8.20354
-10.0306
-11.8571
-13.684
-15.511
-17.3378
-19.1644
-20.9944
20.9987
19.1793
17.3596
15.5398
13.719
11.8924
10.0615
8.235
6.40937
4.58472
2.75791
0.932108
-0.894632
-2.72235
-4.54846
-6.37617
-8.20255
-10.0295
-11.8558
-13.6825
-15.5095
-17.3362
-19.1626
-20.9932
20.9984
19.1788
17.3588
15.5388
13.7177
11.8911
10.0603
8.23375
6.40837
4.58389
2.75731
0.931396
-0.89517
-2.72239
-4.54835
-6.37567
-8.20182
-10.0287
-11.8548
-13.6814
-15.5082
-17.3348
-19.1611
-20.9922
20.9981
19.1782
17.358
15.5377
13.7164
11.8898
10.0591
8.2326
6.40749
4.58303
2.75683
0.930888
-0.895557
-2.72243
-4.54827
-6.37528
-8.20128
-10.028
-11.854
-13.6805
-15.5071
-17.3336
-19.1599
-20.9913
20.9978
19.1777
17.3572
15.5367
13.7152
11.8886
10.0581
8.23154
6.4065
4.58219
2.75644
0.930495
-0.895829
-2.72245
-4.54821
-6.37499
-8.20084
-10.0274
-11.8532
-13.6798
-15.5063
-17.3327
-19.1588
-20.9905
20.9974
19.1772
17.3565
15.5357
13.714
11.8874
10.0571
8.23055
6.40551
4.5814
2.75559
0.929794
-0.896393
-2.72272
-4.54839
-6.37495
-8.20073
-10.0272
-11.853
-13.6795
-15.5057
-17.3319
-19.1579
-20.9899
20.9971
19.1767
17.3557
15.5348
13.7128
11.8863
10.0562
8.22967
6.40457
4.57995
2.75413
0.928418
-0.897604
-2.72377
-4.54939
-6.37579
-8.20149
-10.0279
-11.8537
-13.6799
-15.5059
-17.332
-19.1579
-20.9897
20.9968
19.1761
17.355
15.5339
13.7118
11.8853
10.0553
8.22883
6.40327
4.57815
2.7524
0.926668
-0.89932
-2.72539
-4.55096
-6.37722
-8.20285
-10.0291
-11.8549
-13.681
-15.5069
-17.3329
-19.1587
-20.99
20.9965
19.1756
17.3544
15.5331
13.7108
11.8843
10.0545
8.2276
6.40158
4.57643
2.75068
0.924961
-0.900997
-2.72699
-4.55251
-6.37865
-8.20422
-10.0304
-11.8561
-13.6821
-15.5079
-17.3339
-19.1597
-20.9903
20.9962
19.1752
17.3537
15.5323
13.7099
11.8834
10.0533
8.22589
6.39991
4.57472
2.749
0.92329
-0.902638
-2.72855
-4.55405
-6.38008
-8.2056
-10.0317
-11.8573
-13.6833
-15.509
-17.3349
-19.1606
-20.9906
20.9959
19.1747
17.3531
15.5315
13.7088
11.8819
10.0514
8.22418
6.39824
4.57302
2.74735
0.921647
-0.904252
-2.73009
-4.55556
-6.38152
-8.207
-10.033
-11.8586
-13.6845
-15.5101
-17.336
-19.1616
-20.991
20.9957
19.1743
17.3525
15.5308
13.7073
11.8795
10.0493
8.22247
6.3966
4.57136
2.74571
0.920023
-0.905844
-2.73162
-4.55708
-6.38292
-8.20839
-10.0343
-11.8598
-13.6857
-15.5112
-17.3371
-19.1627
-20.9914
20.9954
19.1739
17.352
15.5297
13.7048
11.8766
10.0473
8.22077
6.39496
4.56968
2.74409
0.918421
-0.907419
-2.73315
-4.55855
-6.38436
-8.20977
-10.0356
-11.8611
-13.6869
-15.5124
-17.3382
-19.1637
-20.9918
20.9952
19.1736
17.3515
15.5281
13.7018
11.8737
10.0453
8.21906
6.39333
4.56804
2.74246
0.916836
-0.908982
-2.73464
-4.56004
-6.38577
-8.21116
-10.0369
-11.8623
-13.6881
-15.5136
-17.3393
-19.1648
-20.9921
20.995
19.1732
17.351
15.5266
13.699
11.871
10.0432
8.21735
6.39166
4.56636
2.74082
0.915265
-0.910533
-2.73611
-4.56152
-6.38714
-8.21255
-10.0382
-11.8636
-13.6893
-15.5148
-17.3404
-19.1659
-20.9925
20.9949
19.1729
17.3507
15.5255
13.697
11.8686
10.0412
8.21566
6.39008
4.56472
2.73919
0.913733
-0.912062
-2.73757
-4.56298
-6.38856
-8.21395
-10.0396
-11.865
-13.6906
-15.516
-17.3416
-19.1671
-20.9929
1.72992
-1.91896
-1.79737
1.68606
-1.98626
-1.93253
1.69792
-1.96677
-1.98866
1.73861
-1.89349
-1.95937
1.78234
-1.81003
-1.88301
1.79273
0.19426
0.0715077
-1.73755
-1.80011
1.81971
0.21687
-1.77996
-1.71085
3.46832
1.9642
2.03307
-1.04005
-0.894424
-2.13554
-3.56352
-3.52348
3.44295
1.92267
1.95617
1.70017
0.920985
0.950164
-1.21401
-1.16993
-2.19731
-3.59847
-3.57514
3.43994
1.93127
1.92146
1.68606
0.911694
0.906359
-1.2501
-1.25435
-2.18202
-3.59535
-3.60143
3.45462
1.96729
1.93501
1.71659
0.965936
0.941319
-1.138
-1.19288
-2.11378
-3.55995
-3.58877
-1.01123
-1.08694
-2.03646
-3.51116
-3.54826
-0.909326
-0.952794
1.65415
0.166204
0.18443
-0.0607218
-1.56608
-1.72902
0.955716
1.0078
1.762
0.889348
0.834906
0.996248
0.899156
-1.16646
-1.08107
-1.87166
-1.1612
-1.21945
0.906703
0.917991
1.6953
0.828579
0.81446
0.829479
0.829567
-1.24994
-1.21936
-1.97103
-1.27251
-1.29219
-1.22232
-1.26869
-1.96347
0.937675
0.914749
1.68817
0.82203
0.850114
0.815023
0.81956
-1.19837
-1.2461
-1.98368
-1.28776
-1.25306
-1.29526
-1.2913
-1.98708
0.853915
0.88265
0.852658
0.850124
-1.09028
-1.13673
-1.92348
-1.19218
-1.17416
-1.24855
-1.19423
-1.93316
0.9247
0.947353
0.88663
0.919946
-0.959232
-1.00485
-1.16782
-1.12303
-1.85115
0.968249
0.943125
0.949225
0.966246
-0.853842
-0.904617
1.7741
1.01796
1.1036
-0.546197
-0.393008
3.47485
2.00678
1.97251
1.76196
1.03166
1.0005
-0.501066
-0.526454
-1.96796
-3.46445
-3.49873
0.619498
0.49648
-1.01665
-1.14681
-1.85336
0.996597
0.969682
1.72188
0.434803
0.454648
0.525587
0.531591
0.452297
0.469671
-0.530314
-0.554853
-1.84081
-1.1167
-1.07243
0.532885
0.540442
-1.06629
-1.0242
-1.77117
0.222937
0.955036
1.00824
-0.875611
-0.747789
0.0952021
-0.573825
-0.982203
-0.624793
-0.463235
-0.605845
-0.960955
-1.19181
-1.19338
-1.26332
-1.26326
-1.16711
-1.16497
-1.02992
-0.638189
-1.06257
-0.475172
-0.498374
-0.584775
-0.560127
-0.933371
0.430267
0.861982
0.468225
0.487125
0.470427
0.854217
0.490131
0.548855
0.938187
0.482121
0.429128
-1.13126
-1.12674
0.8163
0.816649
0.840666
0.839599
-1.22366
-1.22043
-1.26536
-1.61425
-1.60392
-1.62512
-1.6172
-1.26853
-1.24343
-1.57954
-1.55984
-1.59983
-1.585
-1.244
0.836056
0.838076
0.81438
0.815268
-1.20815
-1.21284
-1.25736
-1.61289
-1.62319
-1.5949
-1.60868
-1.25307
-1.30389
-1.63002
-1.62696
-1.62581
-1.62981
-1.3039
0.438675
0.865574
0.490801
0.469294
0.509922
0.489233
0.869669
0.834236
0.473096
0.837954
-1.11328
-1.1157
-1.22104
-1.57357
-1.58946
-1.5513
-1.56816
-1.22005
0.508516
0.524588
0.900019
0.526872
0.509744
0.560019
0.529388
0.904739
0.471155
0.504822
-0.978732
-0.610677
-0.58829
-0.630972
-0.610382
-0.985414
-0.54841
0.527327
0.540871
0.197982
0.541875
0.523954
-0.0147196
-0.41885
-0.472269
-0.0550271
3.48854
2.1331
2.01065
1.79716
1.13057
1.11775
-0.0247625
-0.740035
-0.788331
0.432512
1.05858
1.03598
1.76758
0.298065
0.290149
0.176689
0.526157
0.510422
0.299803
0.313425
-0.364246
-0.402846
0.0327367
0.311042
0.623344
0.631904
-0.370967
-0.275301
0.175885
0.9301
1.29234
1.28151
-1.19712
-1.03319
-1.17819
0.907275
1.26919
1.27148
1.26873
1.26765
0.9066
-1.25832
-1.25926
-1.15076
-1.17239
-0.236383
-0.239931
-0.92709
-0.557043
-0.563811
0.886197
0.876562
0.205621
0.952876
0.560996
0.670131
-1.14935
-0.992242
-1.0261
-1.20122
-1.5162
-1.48179
-1.55224
-1.52537
-1.21197
0.908791
1.27229
1.26818
1.27998
1.27269
0.9099
0.820753
0.625842
0.651759
0.624893
0.62349
0.815698
0.654067
0.652414
0.833961
-1.24101
-1.21252
-1.26896
-1.42671
-1.39855
-1.44782
-1.4419
-1.28362
1.27398
1.27905
0.92486
0.828675
0.65187
0.627849
0.814059
0.624783
0.625288
0.623433
0.621565
0.816995
-1.19571
-1.23388
-1.27631
-1.43827
-1.44395
-1.38004
-1.41459
-1.25241
-1.30053
-1.45237
-1.44814
-1.44678
-1.45017
-1.29908
-1.09954
-0.927239
-0.924886
-0.989711
-0.971741
-1.12933
-1.20038
-1.52812
-1.54554
-1.50487
-1.52215
-1.1943
0.936605
0.577622
0.563588
0.614865
0.609919
0.939609
0.327617
0.330985
0.95638
0.623345
0.617256
0.326065
0.327214
-0.227207
-0.229558
-0.491606
-0.162295
-0.46743
-0.280545
-0.513489
-0.342967
-0.317405
-0.354286
-0.518274
0.560187
0.385534
0.486746
0.363091
0.540658
0.427836
0.439657
0.316943
0.303043
0.528107
0.356366
0.3648
0.354462
0.352788
0.52811
0.448726
0.454206
-0.538207
-0.539377
0.536156
0.368311
0.361498
0.310551
0.305405
-0.66926
-0.82287
-0.782584
-0.865685
-0.834666
-0.689878
-1.19223
-1.18294
-1.26046
-1.26191
-1.15662
-1.16643
-0.670812
-0.823951
-0.833935
-0.811576
-0.822345
-0.666715
-0.844188
-0.867106
-0.838769
-0.840586
-0.485066
-0.303949
-0.296689
-0.324553
-0.305526
-0.487812
-0.244858
-0.275357
0.458556
0.654543
0.645289
0.677252
0.659031
0.459174
0.62247
0.621837
0.640706
0.624362
0.515476
0.70266
0.682694
0.45701
0.452025
-0.975436
-0.985105
-1.14563
-0.932363
-0.897005
-0.875397
-0.921407
-0.903935
-1.10834
-0.954473
-0.968052
0.61969
0.62093
0.819586
0.559812
0.559443
0.596534
0.561792
0.563738
0.565917
0.560839
0.564565
0.815262
0.623457
0.620743
0.591241
0.583399
0.620852
0.600754
0.591973
0.597643
0.584797
0.589868
0.83445
0.651441
0.649461
-1.23805
-1.21257
-1.43266
-1.42687
-1.26436
-1.28051
-1.44105
-1.43374
0.659816
0.655392
0.83138
0.601078
0.602341
0.557421
0.595734
0.595641
0.607338
0.601373
0.597314
0.623784
0.624838
0.814747
0.565681
0.563866
0.566555
0.565469
0.560734
0.558558
0.563625
0.562142
0.815804
0.62236
0.623439
-1.19548
-1.22793
-1.4276
-1.4349
-1.27128
-1.24826
-1.4173
-1.4241
-1.45408
-1.45202
-1.3023
-1.30102
-1.45225
-1.45289
0.438395
0.474897
0.657173
0.663817
0.646266
0.653809
0.461798
0.502951
0.677117
0.653277
0.66594
0.673973
0.49527
0.625511
0.624446
0.616436
0.625032
0.482029
0.639272
0.644943
0.625127
0.636198
0.476687
-0.952089
-0.933849
-1.10353
-0.883366
-0.909869
-0.871155
-0.873945
-0.913614
-1.1248
-0.962382
-0.945861
0.514999
0.34449
0.353777
0.363085
0.3413
0.517242
0.319267
0.47891
0.353436
0.485821
-0.631101
-0.800157
-0.808223
-0.786004
-0.796666
-0.623186
-0.570306
-0.580677
0.334457
0.34865
0.309788
0.324836
-0.198921
-0.224829
-2.01464
-3.51046
-3.47911
-1.76236
-1.07342
-1.03828
0.36178
0.494829
0.483866
-0.0253544
0.0196505
0.292412
-1.74388
-1.00267
-0.999875
1.31012
1.29523
0.934075
-1.20813
-1.16474
-1.17146
-1.25432
-1.25606
1.29263
1.30068
0.951391
-1.14949
-1.14182
-1.18637
-0.922067
-0.904878
-1.0762
0.974711
1.33292
1.31448
0.681897
0.686685
0.8405
-0.925581
-0.94813
-1.10277
0.850774
0.663824
0.67994
-1.24652
-1.17865
-1.18474
-1.22292
-1.34725
-1.34481
-1.2892
-1.39395
-1.38772
-1.25427
0.927846
1.28216
1.28921
0.668398
0.659525
0.844353
-1.20236
-1.16186
-1.15565
-1.24213
-1.2842
-1.3409
-1.3438
-1.29725
-1.35134
-1.34948
-1.34665
-1.34916
-1.29471
0.827995
0.682105
0.673525
-1.23223
-1.37027
-1.37661
-1.1483
-1.48115
-1.49889
0.215663
0.214852
0.634496
0.625917
0.958412
0.217541
0.216409
-0.557521
-0.537006
-0.887362
-0.533855
-0.484022
0.431001
0.402996
0.406509
0.455478
0.449559
0.39431
0.39879
0.41391
0.411344
0.467432
-0.50723
-0.498247
-0.550634
0.365971
0.367211
0.536884
-0.83245
-0.42102
-0.443182
-0.592919
-0.637013
-0.68986
-0.674967
-0.767953
-0.751564
-0.769581
-0.729768
-0.547656
-1.13591
-1.13795
-1.1896
-1.19194
-1.13922
-1.14143
-1.26477
-1.26335
-1.11431
-1.11213
-1.16608
-1.16225
-1.10814
-1.10812
-0.713866
-0.722828
-0.693561
-0.700324
-0.647772
-0.732644
-0.741402
-1.07271
-0.901149
-0.894669
0.432067
0.4658
0.523208
0.523573
0.551042
0.544709
0.482932
0.503041
0.505021
0.520658
0.50408
0.465044
0.702514
0.708453
0.52287
0.470233
0.405118
0.408373
0.431395
-0.797146
-0.785941
0.649294
0.65721
0.848645
0.506063
0.506886
-1.22785
-1.21734
-1.37195
-1.3661
-1.23458
-1.24994
-1.38162
-1.37661
0.842298
0.659393
0.659909
-1.20258
-1.21741
-1.35685
-1.35668
-1.30377
-1.30414
-1.35664
-1.35674
0.442
0.491194
0.545978
0.547218
0.525186
0.52392
0.464918
0.685936
0.683587
0.830867
0.508629
0.505108
0.515508
0.522249
0.476899
0.529027
0.527337
0.501235
0.498636
-1.35825
-1.36363
-1.22717
-1.20998
-1.3471
-1.35323
0.515668
0.66566
0.671069
0.656017
0.660044
0.511583
-0.599407
-0.74531
-0.782921
-0.732731
-0.739323
-0.59695
-0.629165
-0.689943
-0.689936
-0.55191
-0.512155
-0.594288
0.191179
0.226999
0.239601
0.219631
0.550117
0.378646
0.368959
0.383987
0.380394
0.521262
-0.0590632
-0.0901495
-0.291505
-0.285689
-0.460629
0.403507
0.432302
0.369839
0.293315
0.290016
0.330898
0.33395
0.170511
0.313141
0.268471
0.264319
0.262275
0.266296
0.314977
0.105525
-0.148834
-0.187163
-0.332648
-0.071921
-0.115927
-1.153
-1.15858
-1.20248
-1.0366
-1.06595
-1.06964
-1.07618
-1.06945
-1.25712
-1.25737
-1.03575
-1.04335
-1.02198
-1.02782
-1.17925
-1.13339
-1.12524
-0.244098
-0.19008
-0.179294
-0.201171
-0.198035
-0.247854
-1.0025
-1.04806
-1.0407
-1.06563
-1.05725
-1.01447
-1.24338
-1.2217
-1.18668
-1.18566
-1.28631
-1.34244
-1.33992
-1.17089
-1.16713
-1.20238
-1.23932
-1.33429
-1.33778
-1.2808
-1.35416
-1.35274
-1.29881
-1.2973
-1.35131
-1.35291
-0.986456
-1.02778
-1.02111
-1.01913
-1.02512
-0.979237
0.213684
0.212481
0.220961
0.218263
0.326517
0.270376
0.271537
-0.123621
-0.126292
-0.226227
-0.163439
-0.17122
-0.170271
-0.163882
-0.226025
-0.439203
-0.456215
-0.514391
-0.382241
-0.199886
-0.279129
-0.238568
-0.345318
-0.320932
-0.251955
-0.331756
-0.388293
-0.396997
-0.380939
-0.382617
-0.322663
-0.367786
-0.404055
-0.407442
-0.405926
-0.411045
-0.363984
0.399272
0.466637
0.43684
0.382848
0.377536
0.39969
0.392211
0.427573
0.453316
0.408161
0.403151
0.312719
0.307985
0.417285
0.417197
0.363154
0.386465
0.389809
0.447663
0.365265
0.363338
0.360445
0.462061
0.395893
0.386322
-0.475938
-0.482589
-0.538133
-0.434823
-0.43981
-0.415313
-0.425252
-0.54402
-0.488319
-0.479888
0.307438
0.253054
0.257737
0.245265
0.248569
0.305152
-0.719789
-0.704038
-0.647818
-0.707461
-0.742939
-0.734562
-1.10831
-1.18891
-1.14091
-1.147
-1.09121
-1.08395
-1.10454
-1.09858
-1.26298
-1.26359
-1.06804
-1.07481
-1.05177
-1.06021
-1.16201
-1.10625
-1.09909
-1.11778
-1.11141
-1.16258
-1.07873
-0.705277
-0.707361
-0.65786
-0.707685
-0.71181
-0.851252
-0.799544
-0.789652
-0.819343
-0.810175
-0.859685
-0.841374
-0.786295
-0.782331
-0.782319
-0.779984
-0.840733
-0.74586
-0.319327
-0.37748
-0.38099
-0.253671
-0.26489
0.42658
0.521943
0.52162
0.461496
0.466922
0.535285
0.526668
0.497046
0.500045
0.561091
0.559736
0.622054
0.497369
0.495397
0.401709
0.400782
0.461204
0.369323
0.436256
0.396235
0.402223
-0.981538
-1.03333
-1.02828
-1.03744
-1.03605
-0.98062
-0.951786
-0.942891
-0.889337
-0.837897
-0.852191
-0.826547
-0.830557
-0.883137
-0.911367
-0.864003
-0.871328
-0.904629
0.559044
0.558358
0.591434
0.540437
0.541747
0.529902
0.567138
0.564361
0.565209
0.562158
0.563458
0.585008
0.521512
0.525523
0.522536
0.520926
0.582963
0.617963
0.56069
0.561702
0.533786
0.555558
0.611869
0.505902
0.495809
0.594115
0.537292
0.534438
0.542504
0.539967
0.596105
0.586716
0.527995
0.524773
0.531526
0.529032
0.588074
-1.23234
-1.21346
0.60291
0.551207
0.553097
0.547496
0.549001
0.603023
0.561239
0.551739
0.543538
0.577881
0.595676
0.534192
0.537198
0.535483
0.532698
0.599407
0.60024
0.544254
0.54596
0.54031
0.542668
0.598974
0.565928
0.565693
0.567069
0.565486
0.560264
0.559391
0.563491
0.563758
-1.19766
-1.22253
-1.30353
-1.35635
-1.35537
-1.35449
-1.35576
-1.30291
0.443627
0.54019
0.544333
0.488872
0.461334
0.525715
0.532129
0.515037
0.511911
0.62519
0.566792
0.568931
0.621305
0.566403
0.550845
0.570073
0.569826
0.623555
0.521759
0.518165
0.527022
0.529261
0.480319
0.49883
0.5134
-0.948696
-1.00292
-1.0052
-0.992071
-0.997947
-0.9418
-0.893505
-0.902171
-0.865106
-0.83207
-0.827916
-0.86704
-0.953535
-1.00596
-1.01192
-1.00424
-1.00331
-0.94721
0.348469
0.400245
0.39886
0.401691
0.401574
0.351774
0.350123
0.410685
0.415645
0.399394
0.403728
0.341161
0.315021
0.353616
0.353839
0.359848
0.356423
0.350819
0.393469
0.399487
0.359116
0.375356
0.339185
-0.687102
-0.690264
-0.635701
-0.560161
-0.589939
0.212864
0.216373
0.316862
0.255578
0.245238
0.271769
0.268911
0.322158
0.224556
0.223847
-0.10407
-0.116259
3.23181
2.09601
2.31521
1.64289
0.278119
0.493431
-0.179467
-1.57218
-1.33936
-2.04364
-3.20673
-3.1955
5.08655
3.9551
4.16291
3.501
2.13611
2.10178
1.68129
0.207465
0.283963
-0.0219998
-1.58823
-1.57972
-2.06249
-3.47198
-3.44762
-3.93333
-5.07844
-5.06676
5.0862
3.95158
3.95726
3.4998
2.04091
2.14779
1.82888
1.16401
1.1287
0.0165074
-0.745532
-0.751584
-1.9746
-2.55996
-2.54667
-3.96796
-5.10358
-5.08997
5.07362
3.92667
3.94684
3.48598
3.03079
3.04106
1.7995
1.57568
1.58912
-2.07656
-2.75152
-2.72252
-4.00973
-5.12893
-5.11624
5.05866
3.90524
3.92011
3.45315
2.98975
2.99829
1.71305
1.47661
1.48535
-2.17579
-2.82115
-2.79822
-4.03861
-5.14768
-5.13985
5.05261
3.90152
3.90272
3.43867
2.97397
2.97511
1.68435
1.44687
1.44712
-2.19965
-2.84086
-2.83878
-4.0366
-5.149
-5.15093
5.05669
3.91273
3.90331
3.44577
2.98491
2.98033
1.70664
1.47407
1.4689
-2.15094
-2.80711
-2.82314
-4.0068
-5.13122
-5.14218
5.06618
3.92926
3.9168
1.75027
1.52274
1.51599
-2.07456
-2.74666
-2.77039
-3.96409
-5.102
-5.1174
5.07545
3.94162
3.93311
-2.00004
-2.57507
-2.5905
-3.92213
-5.06964
-5.08585
5.07027
4.15363
4.16394
3.4634
2.10532
2.12052
1.77158
1.09955
1.10698
0.0353738
-0.305723
-0.349452
-2.03451
-3.42518
-3.45398
-4.11941
-5.03606
-5.05339
5.05328
4.14261
4.14582
3.23255
2.09527
2.10267
1.63997
0.269357
0.288445
-0.188125
-1.56922
-1.56733
-2.02904
-3.18052
-3.41944
-4.10119
-5.0212
-5.02583
3.22793
2.31749
2.3201
1.40158
0.492159
0.264301
-0.421122
-1.34353
-1.57015
-2.25875
-3.17922
-3.17818
1.49523
1.50633
1.73983
-1.90351
-1.63372
-1.65797
-1.56251
-1.58357
-1.81568
1.44827
1.45041
1.68828
-1.98246
-1.72045
-1.72714
-1.665
-1.68417
-1.94432
1.46398
1.45943
1.69417
-1.97335
-1.71123
-1.69992
-1.72827
-1.73021
-1.98962
1.50955
1.50349
1.73291
-1.90328
-1.6316
-1.67189
-1.69534
-1.68085
-1.95125
-1.82017
-1.59455
-1.58394
-1.66177
-1.65017
-1.87229
1.11115
1.13489
1.79955
0.165996
0.301203
0.295247
-0.0600036
-0.0918301
0.103815
-1.57337
-1.56257
-1.79014
1.11393
1.17416
1.82985
0.421481
0.455605
0.481749
0.90038
0.941307
0.263814
0.25888
0.352873
-1.76562
-1.52594
-1.54213
-0.994578
-0.995143
-1.7351
3.00832
3.01943
3.47713
1.99299
2.56268
2.54862
2.59045
2.5772
2.00331
-1.02277
-0.886678
-0.916553
-0.769192
-0.794176
-0.915429
-2.79072
-2.76114
-2.09239
-3.55064
-3.10082
-3.11725
-3.06687
-3.08354
-3.53708
2.97809
2.98298
3.44737
1.93201
2.5175
2.51191
2.53604
2.52556
1.93654
1.46276
1.4691
1.70617
0.923784
1.0445
1.04153
1.07044
1.06497
0.945086
-1.12096
-1.12132
-1.17235
-2.83841
-2.82517
-2.18283
-3.59287
-3.15431
-3.16122
-3.13205
-3.14458
-3.58513
2.97681
2.97459
3.43868
1.92338
2.5092
2.51243
2.50874
2.50791
1.92164
1.44932
1.44762
1.68484
0.909655
1.0311
1.03284
1.02787
1.02762
0.906194
-2.8291
-2.83762
-2.19694
-3.59978
-3.16312
-3.15772
-3.165
-3.16563
-3.60195
2.99633
2.99036
3.44996
1.95238
2.53023
2.53776
2.51722
2.52326
1.94759
1.48529
1.47958
1.71153
0.955007
1.3042
1.31306
1.05847
1.06161
0.94435
-1.14076
-1.07996
-1.07797
-2.77858
-2.79961
-2.14202
-3.57083
-3.12817
-3.11524
-3.1498
-3.13987
-3.58058
-1.0176
-0.879003
-0.869367
-1.03168
-1.02806
-1.08354
-2.60696
-2.62211
-2.06505
-3.52362
-3.07319
-3.05892
-3.10148
-3.08729
-3.53609
-0.915083
-0.800291
-0.794361
-0.839591
-0.832917
-0.946274
1.20158
1.09643
1.65672
0.195198
0.872385
0.863748
0.50735
0.503357
0.153008
-0.746821
-0.739035
-0.0346066
-1.57119
-0.976687
-1.0972
-1.02567
-0.984718
-1.7019
0.961537
1.08195
1.076
1.36081
1.33877
0.982057
1.75044
1.51851
1.53198
0.878998
0.722429
0.738111
0.982566
0.873308
0.890415
0.779108
0.791522
0.910648
-1.16135
-1.11109
-1.11758
-1.02923
-1.03789
-1.08984
-1.65103
-1.67048
-1.88865
-1.17616
-1.28182
-1.26795
-1.34329
-1.33526
-1.23103
0.907232
1.02896
1.02825
1.03884
1.03615
0.914547
1.69126
1.45347
1.45759
0.825708
0.765051
0.768243
0.751834
0.751924
0.815279
0.770176
0.771527
0.83162
-1.70752
-1.7179
-1.97737
-1.2749
-1.32244
-1.31934
-1.23106
-1.35931
-1.35198
-1.31718
-1.31278
-1.26387
-1.9546
-1.68938
-1.70376
0.934127
1.05189
1.05512
1.03512
1.03761
0.918492
1.69083
1.45538
1.45198
0.823775
0.762185
0.758673
0.790542
0.788003
0.848216
0.81423
0.751802
0.75194
0.755947
0.754341
0.818742
-1.7235
-1.71497
-1.97906
-1.30342
-1.3061
-1.25604
-1.98908
-1.72959
-1.72596
0.857936
0.713131
0.706415
0.766715
0.763172
0.878721
0.854712
0.795389
0.793218
0.704631
0.698938
0.846399
-1.09312
-1.03706
-1.03467
-1.07968
-1.0815
-1.13561
-1.65426
-1.63751
-1.91352
-1.18464
-1.32228
-1.32809
-1.28459
-1.29081
-1.18054
-1.24342
-1.29502
-1.29904
-1.33383
-1.34026
-1.20514
-1.94248
-1.6756
-1.65984
0.929133
0.818667
0.813788
0.836861
0.834557
0.944886
0.890925
0.775607
0.770879
0.808445
0.802643
0.914886
-0.965733
-0.852941
-0.846252
-0.866101
-0.856976
-0.998432
-1.16118
-1.27194
-1.27832
-1.45758
-1.4751
-1.14208
-1.86166
-1.63873
-1.62757
0.975324
0.649682
0.638135
0.617291
0.645416
0.972134
0.951825
0.841136
0.838964
-0.882105
-0.526211
-0.49598
1.54639
1.56118
1.7868
1.05346
1.39226
1.36826
1.37026
1.35381
1.06646
-0.316977
-0.34819
-0.417577
1.99322
2.56133
2.56848
2.54565
2.55359
1.98822
1.53597
1.52942
1.75615
1.0178
1.30298
1.31048
1.28771
1.29534
1.01333
-0.50434
-0.444426
-0.441511
-0.466898
-0.465775
-0.523867
-2.54665
-2.56065
-1.99171
0.600072
0.549967
0.573332
0.426986
0.438504
0.509355
-1.07444
-1.41834
-1.383
-1.47008
-1.43148
-1.0943
-1.83451
-1.60627
-1.62903
0.98505
1.32982
1.28144
1.31666
1.32617
0.981233
1.7273
1.49723
1.4912
0.527136
0.471721
0.470814
0.474019
0.471875
0.529843
-0.535042
-0.478094
-0.471344
-1.61649
-1.60549
-1.83045
-1.09757
-1.43411
-1.45176
-1.35721
-1.42846
-1.09123
0.534316
0.478134
0.47629
0.483518
0.482204
0.538916
-1.04744
-1.33487
-1.34661
-1.3132
-1.32369
-1.04147
-1.78048
-1.55218
-1.5423
0.571752
0.610019
0.285449
1.02471
0.712428
0.677315
0.708923
0.721337
1.02487
-0.859441
-0.727271
-0.746697
-0.427418
-0.416069
-0.822784
0.153116
-0.275544
-0.298914
-0.838948
-0.875783
-1.00305
-0.526591
-0.668363
-0.639514
-0.658689
-0.641967
-0.587647
-0.938624
-0.820737
-0.844924
-0.890865
-0.881292
-1.02394
-1.06625
-1.01072
-1.00765
-0.479012
-0.420276
-0.416678
-0.439531
-0.436407
-0.495201
-0.575538
-0.719195
-0.725903
-0.705334
-0.71229
-0.571594
-0.939819
-0.826216
-0.819494
0.707226
0.71818
0.869987
0.846792
0.689266
0.70299
0.49641
0.562369
0.556158
0.614422
0.603695
0.53827
0.923851
0.806289
0.820769
-1.07967
-1.08454
-1.13709
-1.12017
-1.06849
-1.07429
0.751914
0.752327
0.81749
0.815718
0.751916
0.75196
0.778341
0.78032
0.843506
0.837233
0.775725
0.777017
-1.32429
-1.32157
-1.26275
-1.61099
-1.50652
-1.50972
-1.49997
-1.50264
-1.60756
-1.62274
-1.51814
-1.52033
-1.51269
-1.51557
-1.62018
-1.27233
-1.33059
-1.32728
-1.29626
-1.2931
-1.24143
-1.57346
-1.46999
-1.47593
-1.45632
-1.46346
-1.56699
-1.59514
-1.49125
-1.49592
-1.48125
-1.48632
-1.59028
-1.24477
-1.29907
-1.29673
0.777391
0.776087
0.83494
0.839166
0.779889
0.778747
0.751634
0.751757
0.814909
0.814935
0.751874
0.751802
-1.31865
-1.32253
-1.26179
-1.61667
-1.50844
-1.50419
-1.51592
-1.51241
-1.62023
-1.59972
-1.49281
-1.49053
-1.49995
-1.49625
-1.6044
-1.24909
-1.31113
-1.31475
-1.62947
-1.52423
-1.52448
-1.52211
-1.52346
-1.62854
-1.6277
-1.52129
-1.51895
-1.52405
-1.52305
-1.62915
0.750421
0.715634
0.862002
0.508993
0.564538
0.566398
0.54791
0.548834
0.488063
0.87416
0.758505
0.753886
0.842249
0.696288
0.687421
-1.05904
-1.0563
-1.11084
-1.11781
-1.06231
-1.06069
-1.2751
-1.27597
-1.22159
-1.57883
-1.47174
-1.46609
-1.48453
-1.47795
-1.58418
-1.55699
-1.44913
-1.44322
-1.46063
-1.45501
-1.56268
-1.21804
-1.27175
-1.27323
0.511206
0.456245
0.454603
0.469244
0.466433
0.522744
0.785721
0.780689
0.895443
0.524157
0.583198
0.585839
0.567469
0.568588
0.509304
0.544915
0.689919
0.696947
0.676315
0.682596
0.539445
0.909734
0.79662
0.790928
0.472472
0.412082
0.413332
0.451151
0.445511
0.500033
-0.866172
-0.859627
-0.972162
-0.607882
-0.665232
-0.668063
-0.645747
-0.649437
-0.592128
-0.669809
-0.672193
-0.611189
-0.992022
-0.879078
-0.872824
0.531489
0.390718
0.385094
0.404895
0.394019
0.536227
0.543969
0.486762
0.485122
-0.427873
-0.283334
-0.26495
-0.413228
-0.409865
-0.468282
2.13639
2.58491
2.58534
2.57488
2.58047
2.0207
1.12613
1.34814
1.35212
1.33985
1.344
1.12162
-0.262102
-0.257798
-0.0181741
-0.750294
-0.498566
-0.498066
-0.487197
-0.514031
-0.769622
1.05044
1.33014
1.33529
1.31769
1.32429
1.04738
1.77291
1.54818
1.54228
0.225457
0.235124
0.199748
0.519532
0.409837
0.386401
0.403017
0.406129
0.514129
-0.375798
-0.242587
-0.220826
-0.25393
-0.256472
-0.385871
0.116361
-0.0167422
-0.046448
0.42355
0.487069
0.334507
0.633443
0.539374
0.523791
0.514111
0.534503
0.633265
-0.351985
-0.270328
-0.2909
-0.126464
-0.071689
-0.281264
0.266032
0.0144502
0.0268337
1.05123
1.04762
0.926714
1.2877
1.16811
1.1719
1.1619
1.16502
1.28553
-1.17464
-1.12112
-1.12297
1.02875
1.0297
0.908239
1.26903
1.14976
1.14899
1.15258
1.15116
1.27107
1.2674
1.14784
1.14825
1.1482
1.14805
1.26842
0.906286
1.02774
1.02803
-1.09176
-1.08517
-1.14531
-0.812825
-0.80638
-0.920917
-0.576276
-0.691914
-0.698554
-0.679287
-0.685516
-0.570188
0.884588
0.663576
0.61461
0.653529
0.658386
0.880755
0.214308
0.434337
0.429107
0.837244
0.85516
0.967898
0.603233
0.743975
0.721689
0.786729
0.766629
0.619927
-1.09677
-1.10364
-1.15592
-1.30577
-1.29426
-1.18935
-1.5045
-1.39903
-1.41038
-1.37449
-1.3873
-1.49425
-1.54409
-1.43987
-1.44834
-1.42082
-1.4308
-1.5354
-1.22167
-1.32604
-1.31629
1.03089
1.02977
0.907911
1.26994
1.15026
1.15164
1.14856
1.14947
1.27002
1.27652
1.1568
1.15941
1.15292
1.15487
1.27555
0.911686
1.03396
1.03217
0.757269
0.761053
0.823841
0.634426
0.697815
0.692117
0.709144
0.704705
0.645992
0.62441
0.688284
0.688454
0.68799
0.688059
0.623863
0.814791
0.751835
0.752005
0.654106
0.712329
0.711456
0.712573
0.712512
0.65338
0.832076
0.77227
0.773144
-1.3211
-1.32272
-1.27367
-1.4246
-1.37616
-1.37567
-1.44524
-1.392
-1.39392
-1.38832
-1.39037
-1.44467
1.2749
1.1566
1.15462
1.16132
1.15903
1.27772
0.921871
1.04024
1.04289