/*--------------------------------*- C++ -*----------------------------------*\
| =========                 |                                                 |
| \\      /  F ield         | OpenFOAM: The Open Source CFD Toolbox           |
|  \\    /   O peration     | Version:  5.x                                   |
|   \\  /    A nd           | Web:      www.OpenFOAM.org                      |
|    \\/     M anipulation  |                                                 |
\*---------------------------------------------------------------------------*/
FoamFile
{
    version     2.0;
    format      ascii;
    class       volScalarField;
    location    "600";
    object      p_rgh;
}
// * * * * * * * * * * * * * * * * * * * * * * * * * * * * * * * * * * * * * //

dimensions      [0 2 -2 0 0 0 0];

internalField   nonuniform List<scalar> 
6584
(
0.00576215
0.00615009
0.00661404
0.0073052
0.0081835
0.00930628
0.0106502
0.0122174
0.013814
0.0152978
0.0161533
0.0158375
0.0139771
0.0107085
0.0066323
0.00245112
-0.00129257
-0.0044553
-0.00696591
-0.00890161
-0.0103386
-0.0114028
-0.0120938
-0.0126422
0.00562579
0.00605091
0.00648807
0.00717457
0.00803527
0.00916307
0.0105317
0.0121939
0.0139337
0.015642
0.01673
0.0165651
0.0146405
0.0111078
0.0067331
0.00223744
-0.00164057
-0.00484777
-0.00732989
-0.00921552
-0.0105916
-0.011619
-0.0122552
-0.01284
0.00533298
0.0057671
0.00615404
0.0068078
0.00762318
0.00874965
0.0101823
0.0121141
0.0141941
0.016097
0.018428
0.0192699
0.0177033
0.0136574
0.00830485
0.001498
-0.00270303
-0.00598291
-0.00836461
-0.0100857
-0.0112922
-0.0121917
-0.0127092
-0.0132641
0.00494801
0.00535259
0.00566513
0.00624409
0.00696748
0.00803441
0.00951136
0.0117255
0.0146573
0.0174699
0.0214516
0.0239376
0.0225142
0.0166124
0.00902193
0.00224265
-0.00450455
-0.00785328
-0.0099937
-0.0114037
-0.0123322
-0.01301
-0.0133554
-0.0138042
0.00450033
0.00483667
0.00504569
0.0054895
0.00604535
0.00692167
0.00829254
0.0105759
0.0133887
0.0185702
0.025149
0.0311513
0.0303586
0.0204436
0.00853173
-0.000342975
-0.00591356
-0.0107253
-0.0123407
-0.013151
-0.0136609
-0.0140065
-0.0141275
-0.0143996
0.00401591
0.00424528
0.00431936
0.00455356
0.00483607
0.00526868
0.00623281
0.00770786
0.0114774
0.0173945
0.0271463
0.0433173
0.0484935
0.0287298
0.00514684
-0.00602142
-0.0111177
-0.0145039
-0.0152671
-0.0152404
-0.0151985
-0.0151079
-0.0149603
-0.0149919
0.00353298
0.00362366
0.00354172
0.00350543
0.00343312
0.00324839
0.00351275
0.00437531
0.00622196
0.0110227
0.0240258
0.0550275
0.0947213
0.0295675
-0.00347576
-0.0168357
-0.0186191
-0.0193234
-0.018636
-0.0175255
-0.0168089
-0.0162034
-0.0157628
-0.0155069
0.00309521
0.00303158
0.00279379
0.00246256
0.00199019
0.00109022
0.000282476
2.15769e-05
-0.00148768
-0.00240657
0.00191375
0.023231
-0.0157813
-0.0333648
-0.0333819
-0.0283395
-0.0245865
-0.022046
-0.0197311
-0.018289
-0.0171496
-0.0164261
-0.0158654
0.00274335
0.0025331
0.00216832
0.00157655
0.000743816
-0.000790173
-0.00269681
-0.0044556
-0.00975147
-0.0189398
-0.0326441
-0.069502
-0.130273
-0.074164
-0.0510423
-0.0378466
-0.0291346
-0.0247995
-0.021453
-0.0193833
-0.0177876
-0.0168392
-0.0159968
0.00250728
0.00218364
0.00175023
0.000998702
-4.27715e-05
-0.0018961
-0.00446965
-0.0073434
-0.0147247
-0.0283909
-0.0514811
-0.105449
-0.182421
-0.0984342
-0.0610865
-0.043493
-0.031592
-0.026158
-0.0222846
-0.0198519
-0.0179778
-0.0169089
-0.0158507
0.00239833
0.00201362
0.00158589
0.000814183
-0.000220436
-0.00196652
-0.00450747
-0.00761568
-0.014342
-0.0262518
-0.0460529
-0.085416
-0.161335
-0.0939307
-0.0590802
-0.0430988
-0.031147
-0.0257225
-0.022001
-0.0195626
-0.0176454
-0.0165862
-0.0154089
0.00240575
0.00201806
0.00166427
0.00100404
0.000172667
-0.00111376
-0.0030046
-0.005477
-0.00950903
-0.0155967
-0.0248673
-0.0387586
-0.0975457
-0.0681104
-0.0473396
-0.0372766
-0.0280271
-0.0236343
-0.0206499
-0.0185458
-0.0168091
-0.015882
-0.0146921
0.00250021
0.00215918
0.00192296
0.00145867
0.000943715
0.000272073
-0.000680959
-0.0020472
-0.00296367
-0.00286639
-0.00137838
0.00839424
-0.0324965
-0.0366583
-0.0319138
-0.0286243
-0.0232893
-0.0204825
-0.0185225
-0.016973
-0.0155778
-0.014862
-0.0137539
0.0026428
0.00238065
0.00227412
0.00202966
0.00184273
0.00174834
0.0016432
0.00248676
0.00255164
0.00683723
0.0134392
0.0341705
0.0946875
0.0103102
-0.0122749
-0.018303
-0.0199419
-0.0181796
-0.0169698
-0.0160152
-0.0150881
-0.0140944
-0.0136272
-0.0126659
0.00279506
0.00262456
0.00263315
0.00258314
0.00266151
0.00296977
0.0034613
0.00472505
0.00604898
0.0109116
0.0179796
0.0317218
0.0416362
0.017378
-0.00116432
-0.00921544
-0.0123608
-0.0135488
-0.0136374
-0.0134821
-0.0131195
-0.0125066
-0.0122836
-0.0115035
0.00292602
0.00284433
0.00293885
0.00303419
0.00328777
0.0038206
0.00459458
0.00614588
0.00763663
0.0114459
0.0169888
0.0219432
0.021463
0.0126851
0.00296818
-0.00414538
-0.00844206
-0.0100174
-0.0108204
-0.0111681
-0.0112374
-0.0109457
-0.0109259
-0.0103363
0.00301531
0.00301015
0.00315768
0.00334686
0.00368758
0.00431447
0.00512012
0.00669232
0.00843671
0.0102973
0.0131494
0.0147834
0.0168499
0.0103816
0.0036596
-0.00155927
-0.00538697
-0.00736168
-0.0085216
-0.00917342
-0.00953472
-0.00948208
-0.00961802
-0.0092065
0.00305265
0.00310785
0.00327859
0.00351803
0.00387428
0.0044985
0.0051923
0.00647718
0.0078154
0.00974539
0.0103022
0.0125856
0.00998661
0.00752496
0.00256096
-0.000941739
-0.00333631
-0.00547305
-0.00670602
-0.00752118
-0.00805063
-0.00816525
-0.00840514
-0.00814816
0.00303586
0.00313535
0.00330632
0.00356496
0.00389017
0.00446177
0.00498784
0.00601102
0.00664013
0.00831813
0.00660649
0.00911368
0.00900606
0.00338614
0.00249935
-0.000667887
-0.00237389
-0.00423487
-0.00534158
-0.00619885
-0.00679361
-0.00701526
-0.00731268
-0.00718337
0.00296831
0.00309847
0.00325465
0.00351475
0.00378589
0.00429627
0.0046482
0.00552056
0.00567609
0.00720021
0.00606663
0.00730307
0.006755
0.00294663
0.00230609
-0.000470662
-0.00170099
-0.00335402
-0.00430532
-0.00514699
-0.00574229
-0.00602787
-0.00634772
-0.00631998
0.00285645
0.0030069
0.00313975
0.0033929
0.00360057
0.0040563
0.00425095
0.00501462
0.00490171
0.00611624
0.00516729
0.00540536
0.00484937
0.00235401
0.00192615
-0.000371736
-0.0012324
-0.00271151
-0.00350475
-0.00430721
-0.00486647
-0.00518817
-0.00550589
-0.00555692
0.00270799
0.00287134
0.00297687
0.00322001
0.00336287
0.00377176
0.00383454
0.00449673
0.00422046
0.00514789
0.0042765
0.00416396
0.00370804
0.00181465
0.00153585
-0.000348365
-0.00093848
-0.00224739
-0.00288586
-0.00363652
-0.00413862
-0.00447811
-0.00477748
-0.00488828
0.00253092
0.00270226
0.00277969
0.0030128
0.00309515
0.00346514
0.00342571
0.00400055
0.00363641
0.00436116
0.00359207
0.00329806
0.00290927
0.00140383
0.00121167
-0.000349925
-0.000750647
-0.00190389
-0.00240392
-0.00309845
-0.00353345
-0.00387887
-0.00415003
-0.00430523
0.00233289
0.00250919
0.00255991
0.00278448
0.00281392
0.00315265
0.00303874
0.00354173
0.00313878
0.00371351
0.00303682
0.00262746
0.0022939
0.00107424
0.00094177
-0.000360197
-0.000625699
-0.00164095
-0.00202322
-0.00266228
-0.00302828
-0.0033723
-0.00361012
-0.00379755
0.00212076
0.00230032
0.00232695
0.00254493
0.00253026
0.00284413
0.00267867
0.00312234
0.00270994
0.00317058
0.00257678
0.00210091
0.0018181
0.000806866
0.000717366
-0.000373086
-0.000540366
-0.00143386
-0.00171771
-0.00230411
-0.00260361
-0.00294164
-0.0031443
-0.00335443
0.00190056
0.0020824
0.00208814
0.00230138
0.00225136
0.00254555
0.00234671
0.00274169
0.00233815
0.00271258
0.00218975
0.00168121
0.00144722
0.000592902
0.000534262
-0.000384055
-0.000479512
-0.00126609
-0.00146855
-0.00200546
-0.00224322
-0.00257231
-0.00274018
-0.00296553
0.00167738
0.00186092
0.00184907
0.00205901
0.00198171
0.00226021
0.00204205
0.0023974
0.00201415
0.0023265
0.00186339
0.00134784
0.0011576
0.000420964
0.00038596
-0.000391416
-0.000433377
-0.00112566
-0.00126106
-0.00175219
-0.00193389
-0.00225217
-0.00238673
-0.00262104
0.00145547
0.00164018
0.00161383
0.00182137
0.00172379
0.00198956
0.00176275
0.00208627
0.00172901
0.00199777
0.00158856
0.00107916
0.000921444
0.000277511
0.000267128
-0.000392205
-0.000393041
-0.00100238
-0.00108279
-0.00153164
-0.00166362
-0.00196954
-0.00207329
-0.00231159
0.00123837
0.00142346
0.00138537
0.00159067
0.00147877
0.00173373
0.00150619
0.00180466
0.00147551
0.00171316
0.0013524
0.000854643
0.000727793
0.000162313
0.000173439
-0.00038675
-0.000355008
-0.000890958
-0.000925728
-0.00133519
-0.00142329
-0.00171551
-0.00179101
-0.00202914
0.00102903
0.00121329
0.00116578
0.00136829
0.00124679
0.00149192
0.00126915
0.00154753
0.00124807
0.00146391
0.00114717
0.000665169
0.000567782
7.03552e-05
0.000100792
-0.000374583
-0.000316436
-0.000786813
-0.000783569
-0.00115567
-0.00120519
-0.00148213
-0.00153186
-0.00176597
0.00082992
0.00101137
0.000956322
0.00115455
0.00102736
0.00126318
0.00104818
0.0013091
0.00104035
0.00124149
0.000965746
0.000503536
0.000434458
-2.07887e-06
4.6246e-05
-0.000354907
-0.000275162
-0.000686014
-0.000651066
-0.000987215
-0.001003
-0.00126262
-0.00128904
-0.00151508
0.000643436
0.000818987
0.00075816
0.000949206
0.000820075
0.00104534
0.000841067
0.00108563
0.000847615
0.00103865
0.000801992
0.000364364
0.000322426
-5.73796e-05
7.38453e-06
-0.000327136
-0.000229973
-0.00058564
-0.000524811
-0.000825185
-0.000811937
-0.00105152
-0.00105705
-0.00127048
0.000471298
0.000635931
0.000571435
0.000750799
0.000623182
0.000833384
0.000644069
0.000870517
0.000664011
0.000846847
0.000649114
0.000243688
0.000227952
-9.54607e-05
-1.68751e-05
-0.000289378
-0.000180098
-0.000482333
-0.000401967
-0.000664661
-0.000627629
-0.00084268
-0.000830052
-0.00102483
0.000317519
0.000464606
0.000399281
0.000560772
0.000439161
0.000628205
0.000458623
0.000662177
0.000488657
0.000661778
0.000501929
0.00014064
0.00014853
-0.000116149
-2.85801e-05
-0.000241512
-0.000127281
-0.000375736
-0.00028385
-0.000505415
-0.00045132
-0.000636228
-0.000609253
-0.000778296
0.00017716
0.000290446
0.000231946
0.000358553
0.000256541
0.000405554
0.00027047
0.000431827
0.000301753
0.000449994
0.000338249
5.49003e-05
8.1031e-05
-0.000108536
-2.56487e-05
-0.000171981
-6.97725e-05
-0.000250866
-0.000163711
-0.000328109
-0.000269759
-0.000408285
-0.000374405
-0.000500867
8.14971e-05
0.000161929
0.000114967
0.000207075
0.000129159
0.000238361
0.000139314
0.000257954
0.00016633
0.000284983
0.000186168
6.8126e-06
3.26009e-05
-8.91274e-05
-1.92149e-05
-0.000109708
-2.77467e-05
-0.000150644
-7.7918e-05
-0.000191382
-0.000138994
-0.000235217
-0.000202641
-0.000289556
-0.060543
-0.128536
-0.011438
-0.104378
-0.194904
-0.141758
-0.0901261
-0.178075
-0.197395
-0.045161
-0.111215
-0.171287
0.00361203
-0.0384604
-0.101813
0.0328408
0.104666
0.097637
0.0130243
-0.0302983
0.0337355
0.0956316
0.00418164
0.0407003
-0.024618
-0.0530507
0.0187792
-0.102049
0.0377229
-0.118573
-0.0725259
-0.0335827
-0.0491482
-0.0943465
-0.061127
-0.0905316
-0.133966
-0.103903
-0.241486
-0.201865
-0.179809
-0.108675
-0.0841754
-0.0494275
-0.0832029
-0.0953837
-0.103524
-0.140411
-0.147194
-0.271385
-0.274961
-0.16757
-0.109916
-0.112364
-0.0309187
-0.0429041
-0.0789808
-0.0695036
-0.0853411
-0.111353
-0.177072
-0.221101
-0.106108
-0.0822246
-0.104934
-0.0764491
-0.120932
-0.0399722
-0.044854
-0.0730272
0.0142371
-0.0234615
0.0347257
0.032227
0.0962349
0.0347129
0.0247918
0.0155811
-0.0981205
-0.044919
-0.027834
-0.0499455
-0.105424
0.0619287
-0.0398595
-0.198031
-0.114122
-0.0824476
-0.109024
-0.193993
-0.146773
-0.136561
-0.095379
-0.141522
-0.152887
-0.111325
-0.140937
-0.272379
-0.243461
-0.179706
-0.242342
-0.261565
-0.197103
-0.240465
-0.172232
-0.114929
-0.137701
-0.101099
-0.143374
-0.117167
-0.152449
-0.145429
-0.223466
-0.269241
-0.193481
-0.257792
-0.223923
-0.263072
-0.259721
-0.196497
-0.0840267
-0.0536159
-0.11491
-0.0882058
-0.124297
-0.173303
-0.138301
-0.170225
-0.123611
-0.221208
-0.173475
-0.147159
-0.0090276
0.0158832
-0.0492666
-0.0140596
-0.0292153
-0.070532
-0.117493
-0.0759494
-0.0736283
0.0397862
0.0578774
0.0180833
0.0374824
0.0442507
0.018139
-0.0153403
-0.0344701
0.0552723
-0.0537079
0.105882
-0.00675952
0.00151548
-0.037071
-0.0192941
-0.0150643
-0.0482984
0.00376284
-0.019607
0.00774533
-0.0138958
-0.0359738
0.115356
-0.00932206
0.0293896
-0.0950912
-0.0647912
-0.0525024
-0.0813418
-0.0636578
-0.0776701
-0.0608589
0.0151079
0.0241287
-0.0584878
-0.041897
-0.0232345
-0.0478555
-0.0645983
-0.0701388
-0.0304807
0.024751
0.0325954
-0.0250962
0.0108553
-0.0078319
0.158292
0.106706
0.0755872
0.0546922
0.0973435
0.15796
-0.0721267
-0.0458829
-0.0692238
0.0947516
-0.0512554
-0.0255393
-0.229649
-0.226439
-0.277281
-0.277437
-0.198893
-0.201858
-0.0941593
-0.0790741
-0.0980134
0.0298247
0.00685621
-0.0204205
0.00233165
-0.00644845
-0.0845623
-0.0778176
-0.108254
-0.0806654
-0.110146
-0.0853538
-0.075176
-0.015414
0.000447985
-0.0230496
-0.0791719
-0.165096
-0.160448
-0.149126
-0.149045
-0.127718
-0.12908
-0.264548
-0.264458
-0.252589
-0.219182
-0.208576
-0.22928
-0.221986
-0.25336
-0.21969
-0.184808
-0.16543
-0.204594
-0.190274
-0.223014
-0.133258
-0.130884
-0.152769
-0.15164
-0.253093
-0.254544
-0.243188
-0.218737
-0.22797
-0.201234
-0.214821
-0.241357
-0.266211
-0.233894
-0.230976
-0.230294
-0.233755
-0.266125
-0.0796363
-0.0718064
-0.0801891
-0.0959889
-0.060658
-0.0775927
-0.0673471
-0.104137
-0.0977441
-0.0997881
-0.146492
-0.149914
-0.199867
-0.181144
-0.196057
-0.15999
-0.175914
-0.195972
-0.00245856
0.0148965
-0.0350689
-0.0407554
-0.0579007
-0.00770712
-0.0378449
-0.0301086
-0.0391139
-0.00654761
-0.04684
-0.048419
-0.0238219
-0.0756861
-0.0509742
-0.0529528
-0.0504459
0.0489822
0.0652907
0.0770221
0.03405
0.0446594
0.0903965
0.0539783
0.0324776
0.203155
0.0110715
0.0253176
0.00595767
0.0208421
0.0325448
0.0177338
0.0656263
0.0452717
0.0470284
0.167725
0.0144343
-0.0104408
-0.0130665
0.02282
0.0237015
0.0802386
0.0644572
0.0795087
0.0263228
0.0278759
0.0688108
0.0594107
0.0810007
0.23918
0.17277
0.129507
0.126187
0.171527
0.240995
-0.124111
-0.101835
-0.112764
-0.236995
-0.221693
-0.214054
-0.145812
-0.124576
-0.1219
-0.12536
-0.126226
-0.146734
-0.27494
-0.275761
-0.18697
-0.212514
0.0370346
0.0302534
-0.00102351
0.0054022
0.0253026
0.0592653
0.0528324
0.066682
0.0157362
-0.00340616
0.108006
-0.185039
-0.208369
-0.219789
-0.14881
-0.12289
-0.0895289
-0.158044
-0.13186
-0.15978
-0.144
-0.12192
-0.125957
-0.114298
-0.121535
-0.142671
-0.146088
-0.160187
-0.153624
-0.16526
-0.164635
-0.151138
-0.1523
-0.149666
-0.136134
-0.270283
-0.25213
-0.247983
-0.230858
-0.229253
-0.24932
-0.244835
-0.258723
-0.119266
-0.11375
-0.129052
-0.139839
-0.148194
-0.153429
-0.153532
-0.166544
-0.165439
-0.156834
-0.162571
-0.148576
-0.23648
-0.264111
-0.252399
-0.241874
-0.2459
-0.211868
-0.219812
-0.232627
-0.26484
-0.252588
-0.249243
-0.248271
-0.250586
-0.263564
-0.1339
-0.137241
-0.127785
-0.182459
-0.171753
-0.162715
-0.14938
-0.138256
-0.154552
-0.116759
-0.13269
-0.142761
0.0038063
0.0110879
-0.00401787
0.021862
0.0150454
0.00712498
0.0497388
0.0583583
0.0263444
0.0307551
0.0239417
0.0395996
0.0470656
0.0501538
0.0407077
0.00834532
0.14991
0.0334471
0.00722922
-0.00695306
-0.00645741
0.00886695
-0.00895986
-0.0103411
0.0558093
0.0551142
0.158203
0.0282866
0.0371306
-0.0729309
-0.0670356
0.0216319
0.0225746
0.0191489
0.0212954
0.0194533
0.0259857
0.0218476
0.020078
-0.0505374
-0.0464823
-0.0328068
-0.0365248
0.0269684
0.027629
0.02753
0.028836
0.0329214
-0.108587
-0.0874405
-0.0481637
-0.128178
-0.0985207
-0.118971
-0.2355
-0.217509
-0.276202
-0.27736
-0.189934
-0.209712
-0.0917669
-0.0888042
-0.0985486
-0.0762762
-0.0857678
-0.0875727
-0.114242
-0.123949
-0.101781
-0.110604
0.0199155
0.0272392
0.0352095
0.00982506
0.0231075
0.017051
0.022225
0.0111327
-0.0985611
-0.0827252
-0.0943332
-0.0623112
-0.0783061
-0.0949744
-0.111089
-0.120147
-0.0978749
-0.108186
-0.0530053
-0.0370503
-0.0569267
-0.0541297
-0.0617793
-0.183726
-0.205131
-0.181549
-0.194397
-0.160853
-0.137357
-0.190655
-0.167204
-0.141435
-0.161493
-0.179287
-0.162297
-0.160594
-0.146291
-0.161864
-0.165743
-0.157202
-0.162041
-0.168989
-0.169171
-0.16598
-0.167034
-0.151324
-0.163716
-0.162541
-0.139804
-0.147616
-0.123416
-0.136155
-0.154646
-0.156098
-0.149391
-0.153888
-0.135317
-0.148584
-0.143786
-0.269709
-0.260411
-0.23843
-0.231994
-0.24985
-0.257714
-0.244548
-0.239044
-0.142036
-0.148631
-0.137922
-0.151241
-0.144626
-0.164585
-0.152523
-0.13531
-0.123131
-0.142505
-0.136882
-0.166165
-0.166355
-0.152798
-0.17075
-0.171237
-0.169263
-0.171104
-0.167573
-0.164036
-0.170403
-0.16808
-0.150162
-0.163345
-0.165627
-0.24443
-0.26097
-0.233751
-0.23914
-0.249744
-0.234948
-0.223452
-0.230772
-0.253823
-0.252031
-0.265753
-0.264696
-0.252422
-0.252651
-0.0857232
-0.0859381
-0.0804588
-0.075702
-0.0913547
-0.0825492
-0.0927237
-0.0636501
-0.0613839
-0.0575003
-0.0729991
-0.0640886
-0.0668323
-0.117058
-0.109755
-0.120072
-0.119613
-0.101829
-0.0996764
-0.0941745
-0.107069
-0.0997862
-0.103909
-0.150057
-0.140697
-0.137356
-0.145518
-0.153712
-0.127245
-0.14191
-0.159088
-0.159332
-0.168817
-0.154558
0.00821378
0.0150486
0.00753279
0.0194217
0.0158345
0.0109467
0.0214319
-0.0253811
0.0019571
-0.0193545
-0.065357
-0.0641789
-0.0731126
-0.0512568
-0.061256
-0.0621416
-0.064365
-0.0666801
0.0618131
0.0742056
0.0353766
0.0378893
0.0708366
0.053313
-0.00267045
-0.0215595
0.00184898
-0.00153016
0.0161064
0.034402
0.319756
0.247382
0.219204
0.224277
0.25949
0.32541
0.0324743
0.0776967
0.0444439
-0.0838113
-0.0988931
-0.119888
-0.239686
-0.250325
-0.251934
-0.273784
-0.275239
-0.0991986
-0.0904339
-0.100521
-0.230531
-0.227742
-0.218485
-0.124701
-0.114715
-0.111285
-0.078629
-0.0606508
-0.0793785
-0.116756
-0.107205
-0.099025
-0.130384
-0.154423
-0.13569
-0.117917
-0.131106
-0.119886
-0.271174
-0.254405
-0.256848
-0.245519
-0.260896
-0.259748
-0.26039
-0.225343
-0.220851
-0.234451
-0.125725
-0.110465
-0.102821
-0.122421
-0.131094
-0.123038
-0.22612
-0.23516
-0.232341
-0.267227
-0.255963
-0.256404
-0.258009
-0.263782
-0.262911
-0.262007
-0.25967
-0.261096
-0.26161
-0.11174
-0.117462
-0.120705
-0.212949
-0.204546
-0.20915
-0.0992827
-0.0950847
-0.111262
0.0503076
0.0531166
0.0429407
0.033574
0.0287218
0.0448631
0.0474068
0.0311096
0.0475253
0.0317659
-0.0429546
-0.0377733
-0.0758274
-0.0602109
-0.0623441
-0.0633507
-0.0562666
-0.0562983
-0.0581594
-0.043183
-0.0449901
-0.0426431
-0.0479459
-0.0452286
-0.0446905
0.0331106
0.0287642
0.0280009
0.0882973
0.146221
0.11303
-0.0855388
-0.0867
-0.0755992
-0.0600547
-0.143311
-0.134576
-0.0352651
0.00444982
0.0108717
-0.234979
-0.243466
-0.232508
-0.223417
-0.225628
-0.228574
-0.278984
-0.277827
-0.199242
-0.195673
-0.195935
-0.204449
-0.212275
-0.205493
-0.0973695
-0.100027
-0.0765555
-0.0798165
-0.0820307
-0.102785
-0.106071
-0.107992
-0.111063
-0.100804
-0.0885648
-0.104252
-0.10074
-0.104014
-0.0732968
-0.0788203
-0.0854348
-0.123713
-0.127494
-0.106568
-0.111648
-0.113431
-0.00715395
-0.0311069
-0.0447796
-0.0343381
-0.0374778
-0.0345775
-0.0722924
-0.160926
-0.152866
-0.141881
-0.134423
-0.119753
-0.131664
-0.135143
-0.265532
-0.264157
-0.204556
-0.198435
-0.210578
-0.23223
-0.215907
-0.210418
-0.125461
-0.133374
-0.139787
-0.250555
-0.256137
-0.265417
-0.265393
-0.266331
-0.266582
-0.265334
-0.265272
-0.0815876
-0.0827007
-0.0817719
-0.0793843
-0.0952369
-0.0927349
-0.0950613
-0.107691
-0.114935
-0.10842
-0.115481
-0.113962
-0.125093
-0.122699
-0.0993777
-0.0996971
-0.0973901
-0.113176
-0.112441
-0.193152
-0.199034
-0.209842
-0.185955
-0.180801
-0.186976
-0.0456363
-0.0423479
-0.0379269
-0.0533001
-0.0477953
-0.0488514
-0.0375565
-0.0393964
-0.0479791
-0.0268863
-0.0334254
-0.0338956
-0.0703225
-0.0704787
-0.0732079
-0.0574051
-0.0524557
-0.0732837
0.0679036
0.0686446
0.0761939
0.0358382
0.0419759
0.0374845
0.0349392
0.0464388
0.0391972
0.0412219
0.0883241
0.067807
0.0388824
0.0483896
0.0436955
0.130389
0.220301
0.0863639
0.022898
0.0230211
0.0709801
0.0996744
0.105023
0.0269056
0.027794
0.0270678
0.0288476
0.0282369
0.0270607
0.102751
0.0937425
0.0744346
0.157255
0.23179
0.198048
-0.248871
-0.249334
-0.238272
-0.226141
-0.218103
-0.211578
-0.230538
-0.2264
-0.274956
-0.275183
-0.191432
-0.193266
-0.183882
-0.188075
-0.215459
-0.224313
-0.221093
0.0334907
0.0355647
0.0389093
0.03103
0.033866
0.0312306
-0.211726
-0.200901
-0.197483
-0.208342
-0.204577
-0.215597
-0.270332
-0.247172
-0.257475
-0.261178
-0.259417
-0.258754
-0.25768
-0.247555
-0.23912
-0.229039
-0.266781
-0.252903
-0.254765
-0.254599
-0.264148
-0.263471
-0.264186
-0.262845
-0.262279
-0.263088
-0.176816
-0.171946
-0.176973
-0.165902
-0.168632
-0.173329
0.0554762
0.057434
0.0398778
0.0415515
0.0418537
0.0410068
0.0390386
0.0526165
0.0493817
0.0477025
0.049692
0.0518142
0.0417658
0.0448929
0.0444556
-0.000706718
-0.0151276
-0.0161232
0.0119279
0.120784
0.10207
0.139411
0.0404827
0.0589102
0.0811155
-0.00315132
-0.00168904
-0.00583163
0.00664925
0.00282892
0.000943728
-0.0140308
-0.0127429
-0.0189429
-0.00935026
-0.0118773
-0.011363
0.0715676
0.078087
0.0500439
-0.00564084
-0.0207959
0.0210557
0.0127813
-0.0748495
-0.0649208
-0.0643528
-0.0669631
0.0218737
0.0222446
0.0182605
0.018951
0.0200897
-0.0536123
-0.054823
-0.0538542
-0.0447801
-0.0430897
-0.0471413
-0.0433815
-0.0486548
-0.0521417
-0.0310165
-0.0290618
-0.0302391
-0.028565
-0.0328648
-0.0223361
-0.025396
-0.0408114
-0.0421355
-0.0380995
0.0298388
0.0302462
0.0295701
0.0311771
0.0307839
0.0310811
-0.102282
-0.0895419
-0.0960374
-0.131455
-0.126473
-0.11333
-0.244342
-0.233734
-0.245342
-0.247681
-0.234443
-0.233266
-0.238134
-0.236021
-0.2779
-0.278419
-0.201657
-0.205514
-0.1959
-0.19876
-0.192863
-0.192435
-0.18941
-0.218173
-0.215003
-0.207048
-0.21255
-0.088576
-0.0945244
-0.0846478
-0.082967
-0.0858312
-0.117747
-0.121745
-0.118197
-0.126675
-0.124743
-0.120988
-0.104815
-0.104067
-0.100905
-0.114236
-0.107586
-0.107415
-0.111095
0.0132502
0.0121925
0.00879919
0.0182839
0.0145411
-0.0939029
-0.0942974
-0.0977206
-0.10149
-0.0916895
-0.0848775
-0.089965
-0.118306
-0.120821
-0.124664
-0.121474
-0.116939
-0.112407
-0.11581
-0.0563664
-0.0485037
-0.0455261
-0.0333315
-0.0699442
-0.0715504
-0.0638466
-0.188604
-0.184392
-0.17891
-0.194528
-0.190083
-0.196859
-0.206613
-0.198257
-0.153813
-0.163087
-0.171462
-0.144182
-0.154745
-0.146295
-0.185411
-0.176677
-0.182271
-0.176104
-0.163115
-0.16524
-0.157827
-0.164458
-0.163577
-0.168665
-0.166402
-0.169195
-0.169122
-0.1663
-0.166626
-0.143112
-0.147252
-0.143516
-0.152309
-0.150209
-0.145629
-0.126946
-0.131028
-0.127896
-0.142782
-0.13414
-0.130637
-0.138356
-0.144661
-0.15526
-0.159846
-0.159363
-0.160863
-0.160434
-0.15579
-0.150842
-0.155109
-0.154169
-0.158892
-0.157925
-0.152703
-0.266825
-0.261984
-0.149072
-0.150044
-0.150422
-0.14689
-0.148995
-0.146797
-0.162498
-0.151792
-0.154078
-0.155068
-0.132636
-0.137081
-0.138022
-0.133305
-0.135935
-0.128217
-0.140464
-0.142726
-0.144739
-0.139018
-0.140556
-0.138507
-0.170308
-0.170191
-0.169365
-0.171176
-0.165993
-0.164872
-0.169401
-0.167933
-0.247372
-0.258399
-0.266425
-0.265323
-0.26476
-0.264055
-0.264818
-0.265901
-0.0832558
-0.0811312
-0.0817618
-0.084005
-0.0945206
-0.0890431
-0.0842834
-0.119284
-0.117322
-0.114627
-0.116241
-0.118217
-0.121105
-0.123747
-0.125685
-0.120632
-0.12274
-0.121527
-0.121447
-0.121036
-0.102736
-0.101996
-0.100753
-0.111536
-0.103771
-0.146851
-0.147253
-0.150232
-0.140877
-0.144139
-0.143917
-0.148582
-0.150564
-0.131286
-0.135296
-0.13012
-0.137895
-0.165169
-0.159506
-0.162835
-0.152997
-0.156028
-0.161156
0.0136416
0.0100176
0.012441
0.00279378
0.00690283
0.0112003
0.0190348
0.0189608
0.0187344
0.0147516
0.0172117
0.0167447
0.0204808
-0.0353213
-0.0306586
-0.04099
-0.0383322
-0.00411022
-0.00746684
-0.0023404
-0.0238587
-0.0137519
-0.0131922
-0.0655097
-0.0683413
-0.0681486
-0.0613885
-0.0694105
0.0597326
0.0628288
0.0373081
0.035731
0.0320654
0.0374321
0.0364959
0.0374579
0.0373511
0.0388395
0.0601347
0.0545081
0.026949
0.0362499
0.0284279
0.0398035
0.0441924
0.0320477
0.0430306
0.0324913
0.0263053
0.0270906
0.0144543
0.0143897
0.014868
0.021572
0.022215
0.0262395
0.0458447
0.0388528
0.0557917
0.086385
0.0497556
0.0855016
0.0441021
0.0351658
0.0312967
0.00623854
0.0119413
0.000673293
-0.00653179
-0.00138234
0.00521858
0.00681353
0.0193773
0.00956488
0.0276865
0.0462224
0.0557242
0.0884109
0.075661
0.136264
0.0938542
0.0762743
0.0280757
0.0118243
0.0181599
-0.0239114
-0.0230561
-0.0134594
-0.0109425
-0.0208417
0.000580057
-0.0067603
-0.00745
0.00370603
0.0112265
0.0144512
0.0289759
-0.0610702
-0.0552222
-0.0277109
-0.064714
-0.0477208
-0.0349135
-0.0250403
-0.0412829
-0.027309
-0.0396206
-0.0487384
-0.0402873
-0.077586
-0.0874072
-0.0785637
-0.158209
-0.124033
-0.101048
-0.0952077
-0.0686636
-0.0595675
-0.0287189
-0.0422956
-0.0432971
-0.0523027
-0.0628521
-0.0623394
-0.105745
-0.116812
-0.116734
-0.18313
-0.145757
-0.142507
-0.0978124
-0.0744505
-0.0737865
-0.0216034
-0.0274508
-0.0396019
-0.0417371
-0.0483626
-0.0539384
-0.0804334
-0.086755
-0.0924157
-0.139351
-0.117748
-0.131321
-0.0758096
-0.0637507
-0.0708353
-0.00909479
-0.00729525
-0.0224434
-0.0322555
-0.0335435
-0.0409099
-0.0718752
-0.0669098
-0.0865989
-0.0442932
-0.0438872
-0.0543552
0.00248054
0.00822469
-0.00271446
-0.0117758
-0.021655
-0.0330388
-0.0171437
-0.0239961
-0.0334715
0.00943449
0.0130611
0.0102646
0.0180925
0.0295739
0.0288271
0.0362147
0.047856
0.052096
0.0651723
0.0698787
0.0678995
0.0177363
0.00162322
-0.00859711
-0.00514478
-0.00988271
-0.0161254
0.0115227
0.0148944
0.0145217
0.0181544
0.0226033
0.0278414
0.0241032
0.0247582
0.0412274
0.0252886
0.0174831
0.0229018
0.014968
0.00695125
0.00298868
0.00183326
-0.00291839
-0.00576321
0.0149509
0.0178096
0.019802
0.0154617
0.0196064
0.0199947
0.0207765
0.0122495
0.015611
0.0116204
0.00671331
0.00740536
-0.0685554
-0.0572979
-0.0505126
-0.113371
-0.126875
-0.150532
-0.00405552
-0.0236945
-0.0286525
-0.115695
-0.113646
-0.102269
-0.191071
-0.211861
-0.218331
-0.157347
-0.176119
-0.153312
-0.0977925
-0.102749
-0.0943141
-0.18411
-0.204141
-0.193418
-0.219429
-0.221415
-0.198512
-0.0479754
-0.054646
-0.0514506
-0.120004
-0.129595
-0.114787
-0.189103
-0.17553
-0.163795
-0.0469769
-0.046065
-0.0370358
-0.105686
-0.0951504
-0.0922181
0.0498296
0.037414
0.0238009
0.102099
0.0962118
0.0917306
0.093079
0.0810134
0.0986089
-0.0282117
-0.0194257
-0.0223417
0.0669534
0.0902895
0.0531584
0.375166
0.333628
0.342815
0.082972
0.102343
0.137305
0.368542
0.38706
0.0162634
0.0276228
0.0140378
0.0671606
0.0772037
0.0373156
-0.0302603
-0.0190793
-0.01578
-0.0237623
-0.0216268
-0.035881
0.00768833
-0.00662964
-0.0130779
-0.085256
-0.0924749
-0.121464
0.0486078
0.025154
0.0180049
-0.0936302
-0.0645106
-0.0763722
-0.0597066
-0.0637729
-0.0799927
-0.0313665
-0.0471539
-0.0466015
-0.0598478
-0.055291
-0.045116
-0.0853157
-0.0668168
-0.0721267
-0.0484865
-0.0589046
-0.0808304
-0.101377
-0.0949947
-0.0845192
-0.131082
-0.123398
-0.126386
-0.0969207
-0.102452
-0.108956
-0.209152
-0.212876
-0.20604
-0.141874
-0.128159
-0.165217
-0.102541
-0.117439
-0.124759
-0.094735
-0.107377
-0.0943915
-0.0584074
-0.0614621
-0.0515264
-0.092374
-0.0730574
-0.0689686
-0.0748551
-0.0751104
-0.0944557
-0.113863
-0.115833
-0.105017
-0.142669
-0.135579
-0.133719
-0.139549
-0.139782
-0.147387
-0.136519
-0.143056
-0.180851
-0.112904
-0.129293
-0.125271
-0.129159
-0.130673
-0.113859
-0.0348802
-0.0419192
-0.0365933
-0.0595722
-0.0481633
-0.0394998
-0.0632118
-0.0561681
-0.0649099
-0.0745605
-0.0807705
-0.0750649
-0.0965693
-0.086663
-0.0770814
-0.107292
-0.103981
-0.108265
-0.180691
-0.181084
-0.177689
-0.093539
-0.111206
-0.131292
-0.0907783
-0.100944
-0.0902812
-0.118889
-0.110639
-0.0985086
-0.0824392
-0.0852939
-0.0762082
-0.122153
-0.118997
-0.117804
-0.0457987
-0.0575585
-0.063719
-0.0540719
-0.0564672
-0.0455426
-0.0790347
-0.0675431
-0.063551
0.0092983
0.012552
0.0177724
-0.0221383
-0.0161503
-0.0177137
0.0386714
0.0456233
0.0361538
0.0577577
0.0497071
0.0438271
0.0776378
0.0761563
0.0681567
0.0371338
0.0427884
0.057338
0.0247395
0.0374827
0.0317756
0.0381066
0.0385387
0.0227123
-0.0919865
-0.0851
-0.0912174
-0.0320386
-0.0546572
-0.0712714
-0.0396482
-0.04481
-0.0310343
-0.0604508
-0.0737237
-0.0588694
0.0470932
0.0516821
0.0701471
-0.0461929
-0.0335625
-0.028025
-0.194001
-0.20134
-0.205488
-0.119334
-0.127977
-0.122795
-0.0885469
-0.107356
-0.0989283
-0.123722
-0.115893
-0.102395
-0.175772
-0.168354
-0.178834
-0.146064
-0.138405
-0.139158
-0.128944
-0.131349
-0.139034
-0.0993712
-0.110635
-0.106541
-0.143564
-0.1474
-0.145843
-0.156896
-0.15654
-0.151927
-0.144614
-0.143252
-0.138919
-0.199015
-0.209374
-0.185987
-0.244566
-0.237363
-0.233982
-0.207666
-0.191839
-0.184382
-0.232841
-0.230032
-0.238354
-0.163444
-0.181271
-0.195346
-0.118603
-0.114179
-0.110777
-0.131474
-0.129154
-0.134857
-0.0980686
-0.107185
-0.110913
-0.142472
-0.144919
-0.146782
-0.119007
-0.121085
-0.118899
-0.153326
-0.157325
-0.157019
-0.148785
-0.150413
-0.146233
-0.215432
-0.20763
-0.189303
-0.21909
-0.222108
-0.226839
-0.198194
-0.220875
-0.21768
-0.0797089
-0.0817694
-0.0892359
-0.0567109
-0.0603946
-0.0577939
-0.113103
-0.115655
-0.117096
-0.0917715
-0.0970841
-0.0919309
-0.127388
-0.128438
-0.125321
-0.174698
-0.171965
-0.169671
-0.150594
-0.135058
-0.129246
-0.160929
-0.15699
-0.162836
-0.121432
-0.127303
-0.129866
-0.218675
-0.213184
-0.215657
-0.168764
-0.174744
-0.182743
-0.15569
-0.170534
-0.155803
-0.00429345
-0.00211718
-0.00730684
0.0180161
0.0153777
0.0130788
-0.0446117
-0.0466309
-0.0519469
-0.0128708
-0.0187987
-0.0193722
-0.0350632
-0.0344226
-0.0282268
-0.0731325
-0.0640718
-0.0646284
-0.111404
-0.109632
-0.115537
-0.0737971
-0.0895847
-0.0935518
-0.082841
-0.0849052
-0.074952
0.0485485
0.0607743
0.0470809
0.0726364
0.0632208
0.0503295
0.0210526
0.0229099
0.0204085
0.0345394
0.0524335
0.0603879
-0.0161771
-0.00077935
-0.00211924
0.00221892
0.000601397
-0.0243763
0.0372591
0.0196725
0.0157518
0.121873
0.0926077
0.082581
-0.0138794
-0.0124881
-0.00422257
-0.0304639
-0.0213462
-0.0194978
-0.019036
-0.0262264
-0.0257322
-0.0298438