/*--------------------------------*- C++ -*----------------------------------*\
| =========                 |                                                 |
| \\      /  F ield         | OpenFOAM: The Open Source CFD Toolbox           |
|  \\    /   O peration     | Version:  5.x                                   |
|   \\  /    A nd           | Web:      www.OpenFOAM.org                      |
|    \\/     M anipulation  |                                                 |
\*---------------------------------------------------------------------------*/
FoamFile
{
    version     2.0;
    format      ascii;
    class       surfaceScalarField;
    location    "600";
    object      phi;
}
// * * * * * * * * * * * * * * * * * * * * * * * * * * * * * * * * * * * * * //

dimensions      [0 3 -1 0 0 0 0];

internalField   nonuniform List<scalar> 
13181
(
8.8225e-06
0.00915659
8.56199e-06
0.00916726
7.50822e-06
0.00916755
6.37328e-06
0.00916763
4.53054e-06
0.00916884
-2.7701e-06
0.0091738
-7.17447e-06
0.00917105
-7.52368e-06
0.00916705
-5.79652e-06
0.00916492
-4.4581e-07
0.0091613
8.94998e-06
0.0091573
2.05752e-05
0.00915502
3.10577e-05
0.00915617
3.71796e-05
0.00916058
3.79364e-05
0.00916589
3.435e-05
0.00917024
2.81423e-05
0.00917291
2.07046e-05
0.00917409
9.11238e-06
0.00917809
-8.06551e-07
0.00917692
-1.34615e-05
0.00917915
-1.86266e-05
0.00917167
-1.96644e-05
0.00916804
0.00914529
1.26426e-05
0.00914116
3.55984e-05
0.0091443
3.60854e-05
0.00916707
3.57451e-05
0.00916798
2.99807e-05
0.00917461
1.11528e-05
0.00919263
-1.34422e-05
0.00919565
-2.06856e-05
0.00917429
-1.86116e-05
0.00916285
-8.14317e-06
0.00457531
0.00457552
1.0897e-05
0.00456908
0.00456919
3.53629e-05
0.00456506
0.00456549
5.74807e-05
0.00456653
0.00456752
7.02581e-05
0.0045733
0.0045745
7.16094e-05
0.00458169
0.00458285
5.6426e-05
0.00918542
3.37313e-05
0.0091956
1.13015e-05
0.00919652
-1.20992e-05
0.00920149
-2.04472e-05
0.00918527
-2.12543e-05
0.00917996
-2.23806e-05
0.00917279
-4.23132e-07
0.00914608
0.009141
-3.44881e-06
0.00914009
-1.51944e-07
0.00914101
1.99837e-05
0.00914693
1.8372e-05
0.00916959
1.98754e-05
0.0091731
2.17672e-05
0.00919074
-1.03006e-05
0.00922772
-3.09285e-05
0.00919492
-1.6006e-05
0.00916822
-2.02956e-05
0.00457192
-1.26233e-05
0.00456351
-2.67666e-06
8.23998e-06
-4.59601e-06
0.00455675
1.2911e-05
-2.19216e-05
0.00455805
3.04038e-05
-3.76045e-05
0.00456795
4.2954e-05
-4.56568e-05
0.00458179
4.55579e-05
4.63205e-05
0.00461152
-3.58789e-05
-4.68649e-05
0.00461032
7.02695e-06
0.0092349
-6.61468e-06
0.00921016
-5.96989e-06
0.00920085
-7.84089e-06
0.00918714
-9.64784e-06
0.00918177
7.62348e-06
0.00915552
8.41006e-06
0.00914529
0.00914325
-9.23843e-06
0.00914311
-1.18888e-05
0.00914366
-1.19836e-05
0.00914703
2.18536e-06
0.00915542
-1.78777e-06
0.00917708
-7.10143e-07
0.00918966
-4.0252e-06
0.00923103
-2.28351e-05
0.00921373
-3.06281e-05
0.0046133
-3.32709e-05
0.00459598
0.00456602
-2.65885e-05
-0.00457006
0.00454843
-1.30342e-05
-0.00455664
2.12429e-05
1.02866e-06
0.00453003
1.43244e-05
-0.00454538
-3.15194e-05
0.00452981
4.79085e-05
-0.0045462
-5.99625e-05
0.00456358
5.86273e-05
-0.00456224
-4.13107e-05
0.00461288
1.97608e-05
-0.00459133
-5.32789e-06
0.00461488
1.97299e-06
3.53107e-05
0.00461459
-1.59532e-05
-4.43929e-06
0.00460539
2.75369e-05
0.00921793
1.83444e-05
0.00921004
7.08299e-06
0.0091984
1.82099e-05
0.00917064
1.73025e-05
0.00915643
1.19082e-05
0.00915069
0.00914704
-1.10166e-05
0.00914646
-1.53329e-05
0.00914797
-2.03671e-05
0.00915206
-2.17886e-05
0.00915684
-1.46504e-05
0.00916994
-1.71448e-05
0.00919215
1.73469e-05
0.00919654
2.38634e-05
0.00458757
1.19152e-05
0.00460773
0.00464034
-3.1743e-06
0.00457237
-2.82036e-05
-0.00456638
2.22164e-05
0.00454463
-3.40805e-05
-0.00454125
3.06998e-05
1.73052e-05
1.00386e-05
-0.00450954
0.00224082
0.00224138
-4.33445e-05
7.57585e-05
-0.00450735
0.00223752
0.00223742
-8.6125e-05
4.98279e-05
-0.00458159
0.00230287
0.00231502
-5.97057e-05
0.00461435
6.02731e-05
-0.00461492
-5.11681e-05
0.0046238
5.06244e-05
-0.00462325
-4.79641e-05
0.00461615
4.64051e-05
5.30861e-05
0.00924715
-4.40075e-05
-3.83004e-05
3.22681e-05
0.00923086
3.36349e-05
0.00919703
2.79091e-05
0.00917637
1.95887e-05
0.00916475
1.36849e-05
0.00915659
0.00915128
-1.20578e-05
0.00914978
-1.66208e-05
0.00915254
-2.25768e-05
0.00915802
-3.09419e-05
0.0091652
-3.54396e-05
0.00917444
-3.73498e-05
0.00919406
-2.34282e-05
0.00921454
-3.19256e-05
0.00459632
-3.21754e-05
0.00460131
6.13127e-06
-0.00463399
2.65492e-05
0.00457742
2.6761e-05
-0.00458094
-2.32342e-05
-0.0022811
-4.16966e-06
0.00228614
-8.72731e-07
-0.00222754
9.46399e-06
0.00222904
-1.09678e-05
-0.00221416
-2.73136e-05
0.00220104
4.04281e-05
-0.00229247
-3.38449e-05
0.00226434
6.19766e-05
-4.57699e-05
0.000111727
-0.00462229
-4.98632e-05
0.00229888
0.00230731
-0.000106555
0.00464166
9.12178e-05
-0.00462632
-7.44798e-05
-0.00462707
0.00464125
6.02995e-05
6.64654e-05
0.00928489
-5.42122e-05
-4.99887e-05
5.21836e-05
0.00924514
4.04234e-05
0.00920879
2.81595e-05
0.00918863
1.99753e-05
0.00917293
1.38961e-05
0.00916267
0.0091553
-1.26945e-05
0.00915318
-1.74715e-05
0.00915731
-2.31211e-05
0.00916367
-3.0861e-05
0.00917294
-4.21368e-05
0.00918571
-5.25461e-05
0.00920447
-3.44831e-05
0.009231
-3.45189e-05
-0.00460492
0.00461428
-4.38417e-05
-0.0046023
0.00461676
-7.00767e-05
5.5619e-05
-0.00458728
0.00461101
8.88035e-05
-5.29121e-05
-5.96176e-05
-0.00227288
5.35765e-05
0.00227348
-5.41719e-05
-0.00110971
1.70171e-05
0.00110555
-1.28579e-05
-1.71228e-05
-0.00105605
0.00105038
2.27898e-05
-5.11272e-05
-0.00228429
9.98172e-05
-3.76007e-05
0.00112366
0.00114954
-0.000109841
-0.00231404
0.00232677
9.71135e-05
-0.000145061
-0.00466674
0.00469705
0.000114753
-9.01976e-05
-0.00465751
0.00467739
7.03145e-05
7.46374e-05
0.00931741
-5.29934e-05
-5.41653e-05
5.45947e-05
0.00926518
3.63122e-05
0.00922708
2.43721e-05
0.00920057
1.65945e-05
0.00918071
1.13021e-05
0.00916796
0.0091574
-1.18669e-05
0.00915583
-1.63025e-05
0.00916175
-2.1342e-05
0.00916871
-2.9135e-05
0.00918074
-3.95193e-05
0.0091961
-5.46956e-05
0.00921965
-3.33451e-05
0.009248
-3.8348e-05
-0.00462425
0.00463472
-4.38163e-05
-0.00463564
0.00465412
-7.61897e-05
5.77075e-05
-0.00464454
0.00468172
0.000102057
-6.81088e-05
-7.11288e-05
-0.00230823
9.604e-05
0.00232848
-0.000116287
-0.00112253
0.000103011
0.00113611
-0.000116587
-0.000148887
-0.00116338
0.00117773
0.000134545
-0.000150926
-0.00237474
0.00239731
0.000128348
-0.000166069
-0.00473634
0.00477477
0.000127637
-9.89924e-05
-0.00470091
0.00472176
7.81469e-05
6.80282e-05
0.00936425
-5.39608e-05
-6.0907e-05
3.84992e-05
0.00929471
2.47706e-05
0.0092408
1.58871e-05
0.00920946
1.09141e-05
0.00918568
8.38242e-06
0.0091705
0.00915848
-1.06756e-05
0.00915795
-1.32914e-05
0.00916437
-1.70035e-05
0.00917242
-2.15801e-05
0.00918531
-2.79122e-05
0.00920243
-3.68496e-05
0.00922859
-2.85455e-05
0.00926264
-2.29458e-05
-0.00463725
0.00464565
-3.69414e-05
-0.00467601
0.0046903
-6.59964e-05
5.17082e-05
-0.00471803
0.00474424
8.45182e-05
-5.8465e-05
-5.22565e-05
-0.00238716
8.28201e-05
0.00240246
-9.81203e-05
-0.00122598
8.85367e-05
0.00123506
-9.76259e-05
-0.000123846
-0.00128125
0.00129231
0.000112789
-0.000114002
-0.00246024
0.00247856
9.56833e-05
-0.000112244
-0.00481059
0.00483748
8.53538e-05
-6.47359e-05
-0.00474019
0.00475399
5.09342e-05
4.50082e-05
0.00938383
-2.62752e-05
-3.83142e-05
2.06318e-05
0.00931909
7.68294e-06
0.00925375
4.34899e-06
0.00921279
2.84644e-06
0.00918719
2.35797e-06
0.00917098
0.0091566
-8.38477e-06
0.00915896
-1.04388e-05
0.00916642
-1.19514e-05
0.00917393
-1.41558e-05
0.00918752
-1.53013e-05
0.00920357
-1.65598e-05
0.00922985
-1.18442e-05
0.00926328
-5.35664e-06
-0.0046531
0.00466051
-1.9258e-05
-0.00469902
0.00470185
-2.48279e-05
2.20044e-05
-0.00475909
0.00476125
2.70135e-05
-1.86786e-05
-1.04967e-05
-0.00242937
2.41753e-05
0.00243133
-2.61316e-05
-0.00126649
1.86824e-05
0.00126682
-1.90171e-05
-2.38441e-05
-0.00133476
0.00133597
2.26427e-05
-2.38581e-05
-0.0025109
0.00251402
2.07452e-05
-1.73376e-05
-0.00485283
0.00485514
1.5028e-05
-1.31401e-05
-0.00476266
0.0047653
1.05062e-05
6.32747e-06
0.00937973
4.63664e-06
-6.86513e-06
9.4854e-06
0.00931593
-5.99894e-06
0.00926924
-9.79402e-06
0.00921658
-6.22113e-06
0.00918361
-3.75972e-06
0.00916852
0.0091526
-6.37228e-06
0.00915944
-6.90714e-06
0.00916695
-6.82301e-06
0.00917385
-5.31941e-06
0.00918601
-3.64605e-06
0.0092019
2.80708e-06
0.00922339
4.0254e-06
0.00925465
7.40897e-06
-0.00466272
0.00466289
3.85897e-06
-0.00469897
0.00469091
1.71196e-05
-9.05722e-06
-0.00475161
0.00473308
-2.99436e-05
2.0811e-05
2.76633e-05
-0.00241851
-3.27517e-05
0.00240934
4.19171e-05
-0.0012451
-4.1237e-05
0.00123978
4.65643e-05
7.06982e-05
-0.00131009
0.00130263
-6.32385e-05
6.61451e-05
-0.00249924
0.0024883
-5.52093e-05
7.47284e-05
-0.00484516
0.0048255
-5.50753e-05
3.91775e-05
-0.00476086
0.0047511
-2.94234e-05
-3.18169e-05
0.00935618
3.18274e-05
2.35383e-05
-1.5254e-05
0.00929937
-5.38377e-06
0.00925937
-2.35642e-05
0.00923476
-1.66037e-05
0.00917665
-1.02918e-05
0.00916221
0.00914669
-4.01764e-06
0.00915916
-2.84666e-06
0.00916578
-1.18433e-06
0.00917218
2.11276e-06
0.00918272
8.54538e-06
0.00919547
2.00745e-05
0.00921186
1.49716e-05
0.00924194
1.7819e-05
-0.00465709
0.00465076
2.13051e-05
-0.00467954
0.00466638
4.40895e-05
-3.09233e-05
-0.00470842
0.00468185
-6.29245e-05
4.38399e-05
4.56566e-05
-0.00237386
-6.34453e-05
0.00236087
7.64263e-05
-0.00119549
-6.76108e-05
0.00118854
7.45609e-05
0.000112695
-0.00124068
0.00123171
-0.000103716
0.00011651
-0.00244233
0.00242527
-9.9445e-05
0.00013276
-0.00479666
0.00476254
-9.86327e-05
7.53979e-05
-0.00473665
0.00471975
-5.84971e-05
-5.76413e-05
0.00931843
4.96593e-05
4.57322e-05
-3.39475e-05
0.00927567
-1.78502e-05
0.00924327
-9.48469e-06
0.0092264
-2.56463e-05
0.00919281
-1.70468e-05
0.00915361
0.00913882
-2.11963e-06
0.00915843
-2.22403e-07
0.00916389
2.2793e-06
0.00916968
7.14547e-06
0.00917785
1.42794e-05
0.00918833
2.67711e-05
0.00919937
2.18746e-05
0.00922449
2.2347e-05
-0.00464296
0.00463531
2.95225e-05
-0.00465263
0.00463992
5.12281e-05
-3.851e-05
-0.00465576
0.00463324
-6.80201e-05
4.62526e-05
4.42948e-05
-0.00232446
-6.34216e-05
0.00231441
7.34683e-05
-0.0011454
-5.91952e-05
0.00114122
6.33722e-05
0.000106829
-0.00116907
0.00116085
-9.86116e-05
0.000118291
-0.00237497
0.00236019
-0.000103511
0.000140452
-0.00472533
0.00469417
-0.000109297
8.6103e-05
-0.00470227
0.00468532
-6.91585e-05
-6.80174e-05
0.00927959
5.332e-05
5.35446e-05
-4.23907e-05
0.00925005
-2.43571e-05
0.00922524
-1.96733e-05
0.00922172
-2.95124e-05
0.00920265
-2.29734e-05
0.00914707
0.00912959
-3.29132e-07
0.00915709
1.29769e-06
0.00916226
4.42478e-06
0.00916655
8.733e-06
0.00917354
1.53405e-05
0.00918173
2.49772e-05
0.00918973
3.75074e-05
0.00921196
3.3484e-05
0.00924034
2.39849e-05
-0.0046287
-0.0046316
-0.00462943
0.00462242
4.04973e-05
-0.00461569
0.004623
3.47787e-05
-4.20824e-05
-0.00230046
-5.27161e-06
0.00232589
-2.01557e-05
-0.00114787
3.62119e-05
0.00112945
-1.77951e-05
-0.000323713
1.17386e-05
0.000336964
-2.49898e-05
4.48025e-05
-0.00112497
0.00226022
-8.946e-05
3.9373e-05
-0.00112997
-0.0023277
8.55255e-05
0.00232242
-8.02466e-05
0.000109487
-0.00466986
0.00465113
-9.07539e-05
7.4911e-05
-0.00467231
0.00466696
-6.95632e-05
-6.48074e-05
0.00924973
4.50026e-05
4.96618e-05
-4.24096e-05
0.00922765
-2.59556e-05
0.00920878
-3.55123e-05
0.00923127
-6.75496e-06
0.00917389
-2.52358e-05
0.00916555
0.00912216
-1.66461e-07
0.00915641
1.28661e-06
0.00916081
3.49961e-06
0.00916434
6.5009e-06
0.00917054
1.15686e-05
0.00917666
1.62357e-05
0.00918507
9.36772e-06
0.00921882
-9.50204e-06
0.00929098
-3.17725e-05
-0.00463238
0.00465062
-2.77493e-05
-0.0046338
0.00461451
-7.22217e-06
2.65185e-05
-0.00229261
-1.41641e-05
0.00228897
1.77987e-05
-0.00225949
-8.00485e-06
0.0022667
7.91893e-07
-0.000947876
4.1486e-05
0.00200379
-6.64338e-05
-0.00103096
-0.0022849
7.54246e-05
0.002279
-6.95248e-05
-0.00461345
7.94285e-05
0.00462227
-0.00014367
5.54184e-05
0.000133152
-0.00464032
0.00462702
-0.00011985
-0.00014983
0.00923768
7.72236e-05
0.000109479
-0.00468119
-0.00459337
-0.000119278
0.00921918
-9.60312e-05
0.0092044
-7.51247e-05
0.00918788
-1.84946e-05
0.00917464
-6.97436e-06
0.00916237
2.26141e-06
0.00915632
0.00914559
-4.68397e-08
0.00915607
4.61552e-07
0.0091603
1.4495e-06
0.00916335
3.29252e-06
0.0091687
4.94082e-06
0.00917501
2.49663e-06
0.00918751
-2.26314e-05
0.00924395
-3.22121e-05
0.00929484
5.72328e-06
-0.00464761
0.0046191
-3.69615e-06
-0.00460253
0.00460267
1.08168e-05
-1.0958e-05
-0.00458663
0.00459587
-2.5728e-06
-6.67362e-06
-0.00228311
6.82866e-06
0.00228666
-1.03735e-05
-0.00205087
3.07107e-05
0.00206581
-4.56508e-05
-0.00227788
4.72068e-05
0.00456994
-0.000102918
-0.00228133
4.49824e-05
-0.0046121
0.000111937
0.00460482
-0.000104658
-0.00461857
9.90206e-05
0.00461143
-9.18795e-05
-0.000114779
0.00919785
7.26023e-05
8.20109e-05
-8.31059e-05
0.0091875
-7.02909e-05
0.00919159
-6.24081e-05
0.00917999
-5.43678e-05
0.0091666
-4.55403e-05
0.00915355
-3.39868e-05
0.00914476
0.00913537
-8.48787e-07
0.00915668
-4.18063e-07
0.00915987
-2.68968e-07
0.0091632
-1.47959e-07
0.00916858
-8.50407e-07
0.00917571
-1.25753e-05
0.00919924
-2.98964e-05
0.00926127
-6.02015e-07
0.00926554
1.87174e-07
0.00923232
-0.00461819
-0.00461178
-3.13362e-06
-0.00460581
0.00460777
-1.7697e-06
-0.00460364
0.00461015
-1.23155e-05
5.80296e-06
-0.00458793
2.11931e-05
0.00459205
-2.53109e-05
-0.00431579
4.61276e-05
0.0043369
-6.72391e-05
-0.00457944
7.37346e-05
0.00458345
-7.77512e-05
-0.00459909
7.75805e-05
0.00459629
-7.47835e-05
-0.00460655
7.25555e-05
0.00460292
-6.89279e-05
-0.000110866
0.0091841
6.07745e-05
6.38382e-05
-9.26759e-05
0.00916931
-7.40354e-05
0.00917295
-5.49668e-05
0.00916092
-3.79017e-05
0.00914954
-2.98231e-05
0.00914547
-2.63716e-05
0.00914131
0.00913471
-1.43758e-06
0.00915776
-2.11637e-06
0.00916055
-3.28137e-06
0.00916437
-4.25062e-06
0.00916955
-8.97823e-06
0.00918044
-3.1738e-05
0.009222
-3.18742e-05
0.00926141
-1.12249e-05
0.0092449
-1.8193e-05
0.00923928
-1.4358e-05
0.00923586
-0.00461057
-0.00461178
-1.73463e-05
-0.0046159
0.00462071
-1.91625e-05
-0.00459223
2.70089e-05
0.0045833
-1.80732e-05
-0.00435343
4.18977e-05
0.00437042
-5.88879e-05
-0.00458751
5.3755e-05
0.00459138
-5.76232e-05
-0.000110482
0.00919326
-0.00459609
-0.00459696
5.30697e-05
5.7196e-05
-0.000105327
0.00919434
-0.00460027
-0.00459923
-9.61498e-05
0.00917493
-8.7535e-05
0.0091607
-7.14099e-05
0.00915682
-5.72299e-05
0.00914674
-4.51774e-05
0.00913748
-3.51657e-05
0.00913546
-2.17502e-05
0.0091279
0.00913985
-2.19982e-06
0.00915929
-3.94479e-06
0.00916229
-5.31121e-06
0.00916574
-7.15081e-06
0.00917139
-1.09716e-05
0.00918426
-2.84265e-05
0.00923945
-2.11043e-05
0.00925409
-1.39647e-05
0.00923776
-2.28994e-05
0.00924822
-3.49985e-05
0.00924796
-4.37506e-05
0.00925967
-0.00462772
-0.0046232
-6.77695e-05
0.00888272
-0.0045432
-0.00431551
-8.92304e-05
0.00895413
-0.00440013
-0.00453254
-9.39847e-05
0.00920497
-0.00459688
-0.00460333
-9.35433e-05
0.00919282
-9.05311e-05
0.00919133
-8.41228e-05
0.00916852
-7.73516e-05
0.00915393
-6.56854e-05
0.00914516
-5.54534e-05
0.00913651
-4.77449e-05
0.00912978
-3.62534e-05
0.00912397
-2.64588e-05
0.0091181
0.00914092
-3.04866e-06
0.0091612
-4.7769e-06
0.00916402
-7.21125e-06
0.00916817
-9.70327e-06
0.00917388
-1.37739e-05
0.00918833
-2.39131e-05
0.00924959
-2.01536e-05
0.00925033
-1.83847e-05
0.00923599
-2.51332e-05
0.00925497
-3.4842e-05
0.00925766
-4.21987e-05
0.00926703
-5.794e-05
0.00889847
-7.25768e-05
0.00896876
-7.75277e-05
0.00920992
-7.99638e-05
0.00919525
-7.84838e-05
0.00918985
-7.42401e-05
0.00916427
-6.87982e-05
0.00914849
-6.03685e-05
0.00913673
-5.21168e-05
0.00912826
-4.45531e-05
0.00912221
-3.58998e-05
0.00911531
-2.77268e-05
0.00910993
0.00914091
-3.92521e-06
0.00916344
-6.54704e-06
0.00916664
-9.41327e-06
0.00917104
-1.23711e-05
0.00917684
-1.54172e-05
0.00919138
-1.94343e-05
0.00925361
-1.98005e-05
0.00925069
-2.10124e-05
0.0092372
-2.6751e-05
0.00926071
-3.4861e-05
0.00926577
-4.00373e-05
0.0092722
-5.17772e-05
0.00891021
-6.27323e-05
0.00897972
-6.64382e-05
0.00921362
-6.94475e-05
0.00919826
-6.86351e-05
0.00918904
-6.57367e-05
0.00916138
-6.18509e-05
0.0091446
-5.56257e-05
0.0091305
-4.89474e-05
0.00912158
-4.22829e-05
0.00911555
-3.482e-05
0.00910785
-2.76931e-05
0.0091028
0.00914078
-4.79257e-06
0.00916594
-7.71358e-06
0.00916956
-1.03862e-05
0.00917371
-1.36574e-05
0.00918011
-1.698e-05
0.0091947
-1.86819e-05
0.00925531
-2.10601e-05
0.00925307
-2.57419e-05
0.00924188
-2.74889e-05
0.00926245
-3.41567e-05
0.00927244
-3.82578e-05
0.0092763
-4.7154e-05
0.0089191
-5.50775e-05
0.00898764
-5.82989e-05
0.00921685
-6.09507e-05
0.00920091
-6.05729e-05
0.00918866
-5.86713e-05
0.00915947
-5.59885e-05
0.00914192
-5.0551e-05
0.00912506
-4.61036e-05
0.00911713
-3.9599e-05
0.00910904
-3.36591e-05
0.00910191
-2.79622e-05
0.00909711
0.00913994
-6.13238e-06
0.00916912
-8.26397e-06
0.00917169
-1.16424e-05
0.00917709
-1.46041e-05
0.00918307
-1.8054e-05
0.00919815
-1.98097e-05
0.00925707
-2.22532e-05
0.00925552
-2.65699e-05
0.0092462
-2.7546e-05
0.00926343
-3.30445e-05
0.00927794
-3.63224e-05
0.00927958
-4.32522e-05
0.00892603
-4.91347e-05
0.00899352
-5.18091e-05
0.00921952
-5.41199e-05
0.00920322
-5.39299e-05
0.00918847
-5.2612e-05
0.00915816
-5.01201e-05
0.00913943
-4.66405e-05
0.00912158
-4.26633e-05
0.00911316
-3.70899e-05
0.00910347
-3.2014e-05
0.00909683
-2.66344e-05
0.00909173
0.00913981
-6.43127e-06
0.00917192
-9.70646e-06
0.00917497
-1.2701e-05
0.00918008
-1.57655e-05
0.00918613
-1.92385e-05
0.00920162
-2.04547e-05
0.00925828
-2.29075e-05
0.00925797
-2.68188e-05
0.00925011
-2.97172e-05
0.00926633
-3.19029e-05
0.00928013
-3.44028e-05
0.00928208
-3.99239e-05
0.00893155
-4.43956e-05
0.00899799
-4.6627e-05
0.00922175
-4.85666e-05
0.00920516
-4.84738e-05
0.00918838
-4.75109e-05
0.00915719
-4.56223e-05
0.00913754
-4.23611e-05
0.00911832
-3.91233e-05
0.00910992
-3.53002e-05
0.00909965
-3.09319e-05
0.00909246
-2.67457e-05
0.00908754
0.00913879
-7.19354e-06
0.00917479
-1.00463e-05
0.00917782
-1.35941e-05
0.00918363
-1.6694e-05
0.00918923
-1.96202e-05
0.00920455
-2.07422e-05
0.0092594
-2.32384e-05
0.00926047
-2.67419e-05
0.00925361
-3.02603e-05
0.00926985
-3.0629e-05
0.0092805
-3.25909e-05
0.00928404
-3.68831e-05
0.00893584
-4.05747e-05
0.00900169
-4.21208e-05
0.0092233
-4.39382e-05
0.00920698
-4.39004e-05
0.00918834
-4.32808e-05
0.00915657
-4.18703e-05
0.00913613
-3.96341e-05
0.00911609
-3.69674e-05
0.00910725
-3.27565e-05
0.00909544
-2.89674e-05
0.00908868
-2.53586e-05
0.00908393
0.00913828
-7.92085e-06
0.00917768
-1.0803e-05
0.0091807
-1.38478e-05
0.00918667
-1.69349e-05
0.00919232
-2.02789e-05
0.00920789
-2.12766e-05
0.0092604
-2.32659e-05
0.00926245
-2.6434e-05
0.00925678
-2.9561e-05
0.00927297
-3.52066e-05
0.00928614
-3.51703e-05
0.00928401
-3.81288e-05
0.0089388
-4.00637e-05
0.00900362
-4.12847e-05
0.00922452
-4.23787e-05
0.00920807
-4.23078e-05
0.00918827
-4.20287e-05
0.00915629
-4.122e-05
0.00913532
-4.03721e-05
0.00911524
-3.56599e-05
0.00910254
-3.19385e-05
0.00909171
-2.81164e-05
0.00908485
-2.44879e-05
0.0090803
0.0091377
-8.61849e-06
0.00918056
-1.14902e-05
0.00918358
-1.39956e-05
0.00918918
-1.75393e-05
0.00919586
-2.02704e-05
0.00921062
-2.16327e-05
0.00926176
-2.31867e-05
0.00926401
-2.60468e-05
0.00925964
-3.13271e-05
0.00927825
-3.60863e-05
0.0092909
-3.7235e-05
0.00928516
-4.0485e-05
0.00894205
-4.28454e-05
0.00900598
-4.41892e-05
0.00922586
-4.52117e-05
0.0092091
-4.50923e-05
0.00918815
-4.46321e-05
0.00915583
-4.31064e-05
0.00913379
-4.15531e-05
0.00911368
-3.96203e-05
0.00910061
-3.67545e-05
0.00908885
-3.42763e-05
0.00908238
-3.10283e-05
0.00907705
0.00912953
-9.28942e-06
0.00918339
-1.21215e-05
0.00918641
-1.50646e-05
0.00919212
-1.75363e-05
0.00919834
-2.01476e-05
0.00921324
-2.13695e-05
0.00926299
-2.30667e-05
0.00926571
-2.80729e-05
0.00926465
-3.26026e-05
0.00928278
-3.51819e-05
0.00929348
-3.59222e-05
0.0092859
-3.87447e-05
0.00894488
-4.06873e-05
0.00900792
-4.16817e-05
0.00922686
-4.25293e-05
0.00920994
-4.2419e-05
0.00918804
-4.19941e-05
0.00915541
-4.10372e-05
0.00913284
-3.91991e-05
0.00911185
-3.74996e-05
0.00909891
-3.54135e-05
0.00908676
-3.27132e-05
0.00907968
-3.02534e-05
0.00907459
0.00912113
-9.93731e-06
0.00918615
-1.22043e-05
0.00918867
-1.50633e-05
0.00919498
-1.74573e-05
0.00920073
-2.04475e-05
0.00921623
-2.15388e-05
0.00926408
-2.52643e-05
0.00926943
-3.00956e-05
0.00926948
-3.21772e-05
0.00928486
-3.432e-05
0.00929562
-3.49207e-05
0.0092865
-3.73122e-05
0.00894727
-3.88909e-05
0.0090095
-3.97348e-05
0.0092277
-4.03958e-05
0.00921061
-4.02368e-05
0.00918788
-3.98151e-05
0.00915499
-3.88877e-05
0.00913191
-3.7689e-05
0.00911065
-3.56593e-05
0.00909688
-3.32942e-05
0.0090844
-3.17814e-05
0.00907816
-2.90503e-05
0.00907186
0.00911291
-1.00589e-05
0.00918831
-1.32521e-05
0.00919187
-1.55112e-05
0.00919724
-1.83261e-05
0.00920355
-2.01939e-05
0.00921809
-2.41854e-05
0.00926807
-2.82057e-05
0.00927345
-2.99391e-05
0.00927121
-3.18324e-05
0.00928676
-3.37211e-05
0.00929751
-3.4035e-05
0.00928681
-3.61699e-05
0.0089494
-3.74102e-05
0.00901074
-3.80798e-05
0.00922837
-3.86836e-05
0.00921121
-3.84169e-05
0.00918761
-3.80309e-05
0.0091546
-3.70951e-05
0.00913097
-3.59983e-05
0.00910955
-3.40797e-05
0.00909496
-3.2366e-05
0.00908268
-2.99982e-05
0.00907579
-2.79211e-05
0.00906979
0.00910483
-1.11565e-05
0.00919085
-1.32551e-05
0.00919397
-1.541e-05
0.0091994
-1.81459e-05
0.00920628
-2.34297e-05
0.00922338
-2.98361e-05
0.00927447
-2.81915e-05
0.00927181
-2.97847e-05
0.0092728
-3.14883e-05
0.00928846
-3.32443e-05
0.00929927
-3.34709e-05
0.00928704
-3.53046e-05
0.00895124
-3.63637e-05
0.0090118
-3.68793e-05
0.00922889
-3.72406e-05
0.00921157
-3.70106e-05
0.00918738
-3.65997e-05
0.00915419
-3.56246e-05
0.00913
-3.40967e-05
0.00910802
-3.32347e-05
0.0090941
-3.11353e-05
0.00908058
-2.93463e-05
0.00907401
-2.73743e-05
0.00906781
0.00909631
-1.12104e-05
0.00919275
-1.37195e-05
0.00919648
-1.62641e-05
0.00920194
-1.79255e-05
0.00920794
-3.31786e-05
0.00923863
-2.94421e-05
0.00927074
-2.82495e-05
0.00927061
-2.97544e-05
0.00927431
-3.1363e-05
0.00929007
-3.29537e-05
0.00930086
-3.30933e-05
0.00928718
-3.47113e-05
0.00895285
-3.5534e-05
0.00901263
-3.59474e-05
0.0092293
-3.62336e-05
0.00921186
-3.58714e-05
0.00918702
-3.54283e-05
0.00915375
-3.44397e-05
0.00912901
-3.34502e-05
0.00910703
-3.16246e-05
0.00909227
-3.05922e-05
0.00907955
-2.83425e-05
0.00907176
-2.64321e-05
0.0090659
0.0090878
-1.22121e-05
0.00919499
-1.36297e-05
0.00919789
-1.60559e-05
0.00920437
-2.67335e-05
0.00921862
-3.38284e-05
0.00924573
-3.00588e-05
0.00926697
-2.82724e-05
0.00926883
-2.97495e-05
0.00927579
-3.13035e-05
0.00929162
-3.28707e-05
0.00930242
-3.2933e-05
0.00928724
-3.43975e-05
0.00895432
-3.51167e-05
0.00901334
-3.53107e-05
0.00922949
-3.54758e-05
0.00921202
-3.50652e-05
0.00918661
-3.45947e-05
0.00915328
-3.35114e-05
0.00912793
-3.25601e-05
0.00910608
-3.12196e-05
0.00909093
-2.92537e-05
0.00907759
-2.7492e-05
0.00906999
-2.51185e-05
0.00906353
0.00907974
-1.21277e-05
0.00919656
-1.44832e-05
0.00920025
-1.62793e-05
0.00920616
-2.94637e-05
0.0092318
-3.29225e-05
0.00924918
-2.96701e-05
0.00926372
-2.83506e-05
0.00926751
-2.98198e-05
0.00927726
-3.13557e-05
0.00929316
-3.30061e-05
0.00930408
-3.31869e-05
0.00928742
-3.43775e-05
0.00895551
-3.49624e-05
0.00901393
-3.49389e-05
0.00922947
-3.49932e-05
0.00921208
-3.44492e-05
0.00918607
-3.39726e-05
0.0091528
-3.28092e-05
0.00912676
-3.19088e-05
0.00910518
-3.05184e-05
0.00908954
-2.91064e-05
0.00907617
-2.6801e-05
0.00906769
-2.49366e-05
0.00906167
0.00907109
-1.24004e-05
0.00919791
-1.42505e-05
0.0092021
-1.58793e-05
0.00920779
-2.61189e-05
0.00924204
-3.14217e-05
0.00925449
-3.03049e-05
0.0092626
-2.83314e-05
0.00926553
-3.00152e-05
0.00927894
-3.15241e-05
0.00929467
-3.34503e-05
0.009306
-3.38725e-05
0.00928784
-3.47159e-05
0.00895635
-3.51731e-05
0.00901439
-3.48548e-05
0.00922915
-3.48249e-05
0.00921205
-3.40211e-05
0.00918526
-3.36768e-05
0.00915246
-3.28037e-05
0.00912589
-3.15266e-05
0.0091039
-3.00132e-05
0.00908803
-2.82134e-05
0.00907437
-2.67842e-05
0.00906626
-2.44735e-05
0.00905936
0.00906228
-1.30642e-05
-1.49361e-05
-1.59015e-05
-2.12071e-05
-2.43257e-05
-3.04213e-05
-2.83427e-05
-3.01732e-05
-3.1604e-05
-3.40491e-05
-3.50607e-05
-3.53271e-05
-3.55923e-05
-3.48682e-05
-3.47098e-05
-3.37472e-05
-3.34963e-05
-3.1961e-05
-3.13143e-05
-2.96639e-05
-2.8473e-05
-2.5932e-05
-2.46626e-05
9.58459e-05
-0.000105954
-0.00121587
0.00128804
0.000133502
-0.00127413
-7.25107e-05
-7.49093e-05
-0.00115363
-0.00016483
0.00116958
2.78857e-05
-2.90945e-05
-0.00126528
0.00134554
3.73308e-05
-0.00134326
-1.84366e-05
-2.1168e-05
0.00130022
-6.69403e-05
-6.90838e-05
-3.54367e-05
4.04722e-05
-0.00125014
0.00131621
-6.13999e-05
-0.00132361
3.54309e-05
3.33734e-05
0.00134639
-1.09963e-05
-1.36982e-05
-6.61778e-05
7.29762e-05
-0.00120229
0.00124112
-0.00011088
-0.00125123
0.000120992
0.00130815
4.03012e-05
3.84512e-05
-6.1485e-05
6.65576e-05
-0.00115047
0.00116316
-0.000109851
-0.00117236
0.000119053
0.000123325
0.00123049
3.81374e-05
-5.28543e-05
-0.00113315
-1.08896e-05
0.000300311
-2.07716e-06
-0.00015235
-0.000134994
-3.10928e-05
-0.0001279
-0.00017561
0.00111696
-6.31374e-05
-0.0011167
6.2875e-05
0.000114494
0.00115549
9.66051e-05
-0.000106873
-0.00111226
-0.00104886
-4.62039e-06
0.00103635
0.000138359
-0.00113996
-0.000152032
-0.00111327
-5.70787e-05
0.00111922
9.29112e-05
-0.000111374
-0.0023687
0.00122092
-0.001212
8.69245e-05
-0.00113453
9.24718e-05
0.00114507
0.000310701
0.000126562
-0.000613403
0.000311958
-6.71366e-05
-6.86812e-05
0.000115541
-0.000539656
-0.00012537
0.000549485
0.000121076
-0.00126883
0.00247588
0.000130816
-0.00245099
-0.000155703
-0.00236953
-0.000177765
0.00239637
4.0308e-05
-4.56987e-05
-0.00242398
0.00125881
-0.00125756
2.66339e-05
8.02643e-05
0.00122919
0.00125514
6.42038e-05
-6.96819e-05
-0.00124966
0.000643386
-2.19483e-05
-0.000641839
4.1259e-05
-2.08574e-05
-0.00062806
-6.66501e-05
6.36873e-05
0.000631023
0.000330347
9.92015e-06
-0.000338855
-1.41175e-06
-0.000332321
5.20521e-05
-5.71771e-05
0.000337446
3.48948e-05
-0.00133233
0.00253515
4.87136e-05
-0.00252771
-5.61616e-05
-0.000135941
0.00249782
-2.03145e-05
2.75315e-05
-0.00242573
0.00124124
-0.00124567
-3.10044e-05
1.80283e-05
0.00125947
0.00126213
-7.2719e-06
9.60897e-06
-0.00126446
0.000655736
9.26511e-06
-0.000657296
-1.12984e-05
3.59352e-06
-0.000656184
-6.52459e-06
1.09401e-05
0.000655803
-4.03373e-06
0.000308813
1.30953e-07
-0.000308316
-6.27941e-07
-0.000309368
3.82794e-07
0.000309795
-8.09822e-07
-5.45377e-05
-0.00131696
0.00251724
-4.57371e-05
-0.0025282
5.66996e-05
-2.64351e-05
0.00253773
-5.89529e-05
7.16312e-05
-0.00238653
0.00119587
-0.00120218
-5.98678e-05
-3.6523e-05
0.00123652
0.00122189
-5.51839e-05
6.14457e-05
-0.00122815
4.2805e-05
0.000616832
-0.000618906
-4.07316e-05
-0.000633782
1.70636e-05
-3.15324e-05
0.000630658
1.75935e-05
0.00034181
-4.3883e-05
-0.000350287
5.23604e-05
-0.000323157
-9.66957e-06
2.05223e-06
0.000330775
-0.000101073
-0.00125049
0.00244786
-0.000107043
-0.0024679
0.000127079
8.00507e-05
0.00250333
0.000592402
-8.05611e-05
-0.000595234
4.20361e-05
4.13571e-05
-0.000309974
-3.99007e-05
4.07852e-05
0.000309089
-0.000101398
-0.00117752
0.00236898
-0.000121627
-0.00238764
0.000140295
0.000136575
0.0024278
0.000543205
-6.16956e-05
-0.000545728
6.42187e-05
-0.000566523
-7.43e-05
7.74197e-05
0.000563403
-1.53189e-05
7.32852e-06
-0.0022515
-2.38928e-05
0.000861179
-0.000831981
-5.30499e-06
7.8554e-07
0.000311265
-4.72257e-05
-0.000924543
-8.26694e-05
0.00227515
-0.00228448
9.19983e-05
4.13339e-05
0.00112043
-6.79571e-05
-0.000626222
6.61189e-05
-8.9528e-05
-0.000595376
8.39397e-05
0.000600965
-0.00117927
0.000110334
0.00119219
-0.000123262
-0.000596313
0.000602725
-4.83164e-05
-4.76233e-05
0.000629097
-0.000629907
-3.38299e-05
-3.33166e-05
8.42855e-05
-0.000534515
0.00054157
-9.13407e-05
9.14081e-05
-9.71907e-05
-0.000590531
4.63246e-05
-0.000334426
-4.42195e-05
6.30118e-05
-6.48432e-05
0.000312532
-0.00122556
0.000154711
-0.000171903
0.00124275
-0.000618967
-6.2214e-05
0.000626746
0.000117447
0.000333789
4.63816e-05
-0.000333846
-5.31524e-06
-0.000656704
1.3984e-05
-8.14938e-06
-2.21238e-05
3.97425e-05
0.000648787
-2.30196e-05
5.51695e-05
0.00125964
-5.96622e-05
-0.000320147
0.000322881
-2.48575e-05
0.000334263
-5.77969e-06
-0.000333798
0.00031679
0.00031702
-3.4421e-05
-3.6943e-05
-2.23871e-05
-0.000319708
-1.33554e-06
-0.000311141
3.10848e-06
1.63114e-05
-5.9076e-06
0.000319943
-0.00132772
7.68017e-05
0.00133432
-4.04177e-05
-4.29863e-05
-0.000334216
0.000327678
2.28497e-05
0.000339403
1.4428e-06
-0.000342181
0.000337585
4.82555e-05
1.75538e-05
-0.00034185
8.94869e-05
-0.00132002
-4.73056e-05
-4.98774e-05
1.73195e-05
-0.000636773
-2.96942e-05
1.53648e-05
8.38206e-06
-1.58472e-05
0.000649735
1.34657e-05
-1.49651e-05
0.00125864
1.84475e-05
-0.000338684
0.000334622
1.24436e-05
0.00031958
1.88891e-05
-0.000321149
0.000333097
-5.35915e-06
8.64197e-06
-0.00033806
-1.61851e-05
-0.000314052
7.07972e-06
-6.36066e-07
0.000308985
4.63671e-07
-0.00134037
-2.83064e-05
0.00133579
1.75933e-05
1.52926e-05
-0.000339117
0.000340843
-2.36138e-06
0.000328343
-2.18054e-05
-0.000322723
0.000338001
1.78471e-06
-1.82897e-06
-0.000337157
-1.58967e-05
-0.00134371
1.08066e-05
8.42682e-06
-0.000615838
-4.36313e-05
0.000614814
2.15028e-05
2.31527e-05
0.000597724
-4.94453e-05
5.1356e-05
-0.000599635
0.000317074
1.95695e-05
-0.000617136
2.20974e-05
2.20057e-05
-4.1327e-05
-0.00031193
4.32836e-05
-4.78256e-05
6.03881e-05
0.000329247
-0.00128081
-9.84236e-05
0.001271
5.44738e-05
5.37609e-05
-0.000336906
0.000329667
-4.05869e-05
0.00061941
4.08186e-05
-7.68346e-05
-0.000624721
0.000335027
-1.63534e-05
-3.88067e-05
-0.000341982
-9.29678e-05
-0.00129034
5.18601e-05
5.06358e-05
-0.000576403
-4.89129e-05
0.000573963
5.13534e-05
0.000562438
-4.15107e-05
4.28272e-05
-0.000563754
-5.01798e-05
0.000596436
5.14681e-05
-4.97847e-05
5.26398e-05
-0.000579259
-7.49436e-05