/*--------------------------------*- C++ -*----------------------------------*\
| =========                 |                                                 |
| \\      /  F ield         | OpenFOAM: The Open Source CFD Toolbox           |
|  \\    /   O peration     | Version:  5.x                                   |
|   \\  /    A nd           | Web:      www.OpenFOAM.org                      |
|    \\/     M anipulation  |                                                 |
\*---------------------------------------------------------------------------*/
FoamFile
{
    version     2.0;
    format      ascii;
    class       volScalarField;
    location    "600";
    object      pSat;
}
// * * * * * * * * * * * * * * * * * * * * * * * * * * * * * * * * * * * * * //

dimensions      [0 2 -2 0 0 0 0];

internalField   nonuniform List<scalar> 
6584
(
697.948
697.948
697.948
697.948
697.948
697.948
697.948
697.948
697.948
697.948
697.948
697.948
697.948
697.948
697.948
697.948
697.948
697.948
697.948
697.948
697.948
697.948
697.948
697.948
697.948
697.948
697.948
697.948
697.948
697.948
697.948
697.948
697.948
697.948
697.948
697.948
697.948
697.948
697.948
697.948
697.948
697.948
697.948
697.948
697.948
697.948
697.948
697.948
697.948
697.948
697.948
697.948
697.948
697.948
697.948
697.948
697.948
697.948
697.948
697.948
697.948
697.948
697.948
697.948
697.948
697.948
697.948
697.948
697.948
697.948
697.948
697.948
697.948
697.948
697.948
697.948
697.948
697.948
697.948
697.948
697.948
697.948
697.948
697.948
697.948
697.948
697.948
697.948
697.948
697.948
697.948
697.948
697.948
697.948
697.948
697.948
697.948
697.948
697.948
697.948
697.948
697.948
697.948
697.948
697.948
697.948
697.948
697.948
697.948
697.948
697.948
697.948
697.948
697.948
697.948
697.948
697.948
697.948
697.948
697.948
697.948
697.948
697.948
697.948
697.948
697.948
697.948
697.948
697.948
697.948
697.948
697.948
697.948
697.948
697.948
697.948
697.948
697.948
697.948
697.948
697.948
697.948
697.948
697.948
697.948
697.948
697.948
697.948
697.948
697.948
697.948
697.948
697.948
697.948
697.948
697.948
697.948
697.948
697.948
697.948
697.948
697.948
697.948
697.948
697.948
697.948
697.948
697.948
697.948
697.948
697.948
697.948
697.948
697.948
697.948
697.948
697.948
697.948
697.948
697.948
697.948
697.948
697.948
697.948
697.948
697.948
697.948
697.948
697.948
697.948
697.948
697.948
697.948
697.948
697.948
697.948
697.948
697.948
697.948
697.948
697.948
697.948
697.948
697.948
697.948
697.948
697.948
697.948
697.948
697.948
697.948
697.948
697.948
697.948
697.948
697.948
697.948
697.948
697.948
697.948
697.948
697.948
697.948
697.948
697.948
697.948
697.948
697.948
697.948
697.948
697.948
697.948
697.948
697.948
697.948
697.948
697.948
697.948
697.948
697.948
697.948
697.948
697.948
697.948
697.948
697.948
697.948
697.948
697.948
697.948
697.948
697.948
697.948
697.948
697.948
697.948
697.948
697.948
697.948
697.948
697.948
697.948
697.948
697.948
697.948
697.948
697.948
697.948
697.948
697.948
697.948
697.948
697.948
697.948
697.948
697.948
697.948
697.948
697.948
697.948
697.948
697.948
697.948
697.948
697.948
697.948
697.948
697.948
697.948
697.948
697.948
697.948
697.948
697.948
697.948
697.948
697.948
697.948
697.948
697.948
697.948
697.948
697.948
697.948
697.948
697.948
697.948
697.948
697.948
697.948
697.948
697.948
697.948
697.948
697.948
697.948
697.948
697.948
599.258
697.948
697.948
697.948
697.948
697.948
697.948
697.948
697.948
697.948
697.948
697.948
697.948
697.948
697.948
697.948
697.948
697.948
697.948
697.948
697.948
697.948
697.948
697.948
670.555
697.948
697.948
697.948
697.948
697.948
697.948
697.948
697.948
697.948
697.948
697.948
697.948
697.948
697.948
697.948
697.948
697.948
697.948
697.948
697.948
697.948
697.948
697.945
672.877
697.948
697.948
697.948
697.948
697.948
697.948
697.948
697.948
697.948
697.948
697.948
697.948
697.948
697.948
697.948
697.948
697.948
697.948
697.948
697.948
697.948
697.948
697.479
685.891
697.948
697.948
697.948
697.948
697.948
697.948
697.948
697.948
697.948
697.948
697.948
697.948
697.948
697.948
697.948
697.948
697.948
697.948
697.948
697.948
697.948
697.948
697.205
686.201
697.948
697.948
697.948
697.948
697.948
697.948
697.948
697.948
697.948
697.948
697.948
697.948
697.948
697.948
697.948
697.948
697.948
697.948
697.948
697.948
697.948
697.87
683.61
692.272
697.948
697.948
697.948
697.948
697.948
697.948
697.948
697.948
697.948
697.948
697.948
697.948
697.948
697.948
697.948
697.948
697.948
697.948
697.948
697.948
697.948
697.804
683.67
692.314
697.947
697.948
697.948
697.948
697.948
697.948
697.948
697.948
697.948
697.948
697.948
697.948
697.948
697.948
697.948
697.948
697.948
697.948
697.948
697.948
697.947
697.742
683.724
692.35
697.946
697.948
697.948
697.948
697.948
697.948
697.948
697.948
697.948
697.948
697.948
697.948
697.948
697.948
697.948
697.948
697.948
697.948
697.948
697.948
697.946
697.682
683.773
692.381
697.946
697.948
697.948
697.948
697.948
697.948
697.948
697.948
697.948
697.948
697.948
697.948
697.948
697.948
697.948
697.948
697.948
697.948
697.948
697.948
697.945
697.627
683.818
692.407
697.945
697.948
697.948
697.948
697.948
697.948
697.948
697.948
697.948
697.948
697.948
697.948
697.948
697.948
697.948
697.948
697.948
697.948
697.948
697.948
697.943
697.574
683.86
692.431
697.944
697.948
697.948
697.948
697.948
697.948
697.948
697.948
697.948
697.948
697.948
697.948
697.948
697.948
697.948
697.948
697.948
697.948
697.948
697.948
697.942
697.525
683.899
692.452
697.944
697.948
697.948
697.948
697.948
697.948
697.948
697.948
697.948
697.948
697.948
697.948
697.948
697.948
697.948
697.948
697.948
697.948
697.948
697.948
697.94
697.473
683.939
692.473
697.943
697.948
697.948
697.948
697.948
697.948
697.948
697.948
697.948
697.948
697.948
697.948
697.948
697.948
697.948
697.948
697.948
697.948
697.948
697.948
697.938
697.417
683.982
692.496
697.942
697.948
697.948
697.948
697.948
697.948
697.948
697.948
697.948
697.948
697.948
697.948
697.948
697.948
697.948
697.948
697.948
697.948
697.948
697.948
697.936
697.365
684.022
692.517
697.942
697.948
697.948
697.948
697.948
697.948
697.948
697.948
697.948
697.948
697.948
697.948
697.948
697.948
697.948
697.948
697.948
697.948
697.948
697.948
697.934
697.314
684.061
692.536
697.941
697.948
697.948
697.948
697.948
697.948
697.948
697.948
697.948
697.948
697.948
697.948
697.948
697.948
697.948
697.948
697.948
697.948
697.948
697.948
697.931
697.264
684.099
692.555
697.94
697.948
697.948
697.948
697.948
697.948
697.948
697.948
697.948
697.948
697.948
697.948
697.948
697.948
697.948
697.948
697.948
697.948
697.948
697.948
697.929
697.216
684.137
692.573
697.94
697.948
697.948
697.948
697.948
697.948
697.948
697.948
697.948
697.948
697.948
697.948
697.948
697.948
697.948
697.948
697.948
697.948
697.948
697.948
697.926
697.169
684.174
692.591
697.939
697.948
697.948
697.948
697.948
697.948
697.948
697.948
697.948
697.948
697.948
697.948
697.948
697.948
697.948
697.948
697.948
697.948
697.948
697.948
697.923
697.123
684.21
692.608
697.938
697.948
697.948
697.948
697.948
697.948
697.948
697.948
697.948
697.948
697.948
697.948
697.948
697.948
697.948
697.948
697.948
697.948
697.948
697.948
697.92
697.076
684.247
692.625
697.938
697.948
697.948
697.948
697.948
697.948
697.948
697.948
697.948
697.948
697.948
697.948
697.948
697.948
697.948
697.948
697.948
697.948
697.948
697.948
697.917
697.029
684.284
692.642
697.937
697.948
697.948
697.948
697.948
697.948
697.948
697.948
697.948
697.948
697.948
697.948
697.948
697.948
697.948
697.948
697.948
697.948
697.948
697.948
697.913
696.981
684.321
692.659
697.936
697.948
697.948
697.948
697.948
697.948
697.948
697.948
697.948
697.948
697.948
697.948
697.948
697.948
697.948
697.948
697.948
697.948
697.948
697.948
697.948
697.948
697.948
697.948
697.948
697.948
697.948
587.264
594.837
697.948
697.948
697.948
697.948
697.948
697.948
697.948
697.948
697.948
697.948
697.948
697.948
697.948
697.948
697.948
697.948
697.948
697.948
697.796
697.921
697.471
697.883
697.948
697.948
697.948
697.948
697.948
697.948
697.948
697.378
697.428
692.264
695.134
697.948
697.948
697.948
697.948
697.948
697.948
697.948
697.588
697.482
696.357
693.746
697.948
697.948
697.948
697.656
697.575
697.948
697.948
697.948
697.879
697.824
697.948
615.959
587.899
649.917
697.948
697.948
697.93
697.948
697.948
697.947
697.87
697.948
697.948
697.896
697.948
697.948
697.948
697.93
697.456
697.759
697.948
697.287
695.936
697.832
697.36
695.336
697.452
697.948
697.696
697.178
697.923
697.708
697.948
697.466
697.385
697.948
695.745
696.417
695.885
695.712
693.643
692.119
697.948
696.971
697.189
697.169
696.983
697.948
696.216
696.78
696.465
696.123
697.544
696.506
697.948
697.606
697.828
697.203
697.581
697.948
697.27
697.484
696.847
697.228
697.812
697.683
697.837
697.887
697.948
697.646
697.438
697.508
697.634
697.904
697.885
697.948
697.948
697.948
697.935
697.948
697.948
697.948
697.948
697.948
697.788
697.715
690.633
686.714
697.948
697.948
697.948
697.948
697.939
697.948
697.948
697.948
697.702
697.603
697.948
586.82
603.493
660.017
668.797
604.448
625.093
685.962
678.939
697.948
697.892
697.917
669.875
675.47
697.919
697.931
697.948
697.948
697.948
697.948
697.948
697.948
697.948
697.928
697.948
697.939
697.948
697.942
697.948
697.621
697.725
694.017
694.145
695.45
695.152
697.556
678.903
697.728
693.655
691.076
691.406
693.766
697.853
696.075
697.94
692.188
697.317
691.009
697.931
697.456
697.939
697.948
697.911
696.597
697.937
697.94
696.488
696.405
697.707
697.673
696.217
696.327
697.214
697.942
697.945
697.94
697.942
697.21
697.845
697.947
697.948
697.945
697.947
697.81
696.073
696.112
695.654
695.639
690.152
690.444
696.86
697.94
697.939
697.941
697.94
696.858
697.11
697.939
697.94
697.939
697.939
697.1
588.385
696.479
607.108
588.692
629.379
608.315
696.558
695.728
590.69
695.826
697.225
697.154
697.381
697.942
697.941
697.943
697.943
697.42
646.719
658.157
697.03
648.305
630.921
663.469
650.319
697.084
627.254
644.836
697.768
686.822
690.953
679.709
685.997
697.75
677.233
674.919
677.055
600.581
676.127
674.086
617.207
693.752
693.899
697.946
697.948
697.948
697.948
697.948
697.893
697.885
642.563
697.707
697.841
697.947
697.841
697.797
697.948
600.666
602.188
576.971
674.5
674.307
605.309
610.557
693.101
693.736
544.284
697.948
697.948
697.948
697.948
697.948
697.948
697.868
697.947
697.946
697.486
697.298
697.815
697.373
697.94
697.94
697.941
697.94
697.38
693.136
694.758
695.975
694.003
666.423
660.953
697.86
694.017
695.645
696.827
696.849
611.262
697.948
697.946
697.948
697.915
697.574
697.37
697.946
697.948
697.948
697.948
697.948
697.945
697.568
697.943
697.941
697.946
697.944
697.611
696.924
680.903
690.355
675.585
676.717
696.116
691.33
692.356
697.513
695.691
696.717
697.418
697.902
697.906
697.869
697.875
697.193
697.94
697.941
697.414
695.907
673.945
669.163
695.757
673.956
675.284
668.287
668.873
695.642
692.242
691.097
696.9
697.87
697.866
697.86
697.888
697.061
697.148
697.864
697.868
697.865
697.863
697.042
697.428
690.696
692.225
688.604
687.776
696.825
697.782
697.945
697.944
697.946
697.945
697.795
697.376
672.927
664.896
681.521
679.091
697.406
627.066
630.282
697.571
684.227
682.273
623.43
626.162
673.271
667.883
697.946
697.947
697.948
660.672
689.183
663.188
666.249
664.913
688.677
697.948
697.942
697.948
697.927
697.947
588.935
594.35
603.268
601.469
664.2
612.083
610.061
617.652
612.681
665.32
609.779
613.753
683.346
682.164
672.639
625.712
620.429
611.027
613.695
697.906
697.945
697.948
697.932
697.944
697.891
697.495
697.802
693.275
694.626
695.879
694.165
680.517
693.023
691.913
694.194
693.372
680.198
689.391
688.342
691.566
689.978
692.744
674.751
678.231
668.589
673.06
692.363
658.054
659.625
694.764
697.781
697.619
697.92
697.826
695.416
696.463
696.029
697.485
696.639
697.858
697.946
697.93
697.799
697.681
697.824
697.615
697.921
697.67
697.878
697.926
697.711
697.857
697.945
697.905
697.839
678.244
679.586
696.79
664.785
659.266
681.795
665.856
651.653
646.83
657.625
653.882
696.185
677.136
677.945
689.846
687.729
695.79
691.673
685.593
683.776
687.38
686.075
697.556
692.593
693.279
695.812
696.657
697.888
697.899
697.303
697.198
697.878
697.885
675.417
674.793
695.955
642.846
643.236
621.512
640.17
641.659
648.305
642.83
641.699
672.024
673.526
695.723
639.224
634.333
645.775
640.7
625.011
620.339
632.401
627.394
695.644
669.645
671.416
691.284
690.848
697.877
697.872
696.888
696.982
697.885
697.878
697.862
697.863
697.14
697.053
697.862
697.862
590.721
596.789
676.737
679.872
672.625
675.621
590.453
621.011
684.051
678.871
680.729
683.261
616.599
659.006
660.828
652.155
658.317
596.637
668.592
671.791
661.819
666.907
596.715
689.353
690.319
697.384
685.461
687.309
687.855
685.372
687.278
696.905
687.215
688.551
651.441
598.982
599.079
608.372
599.865
653.085
603.419
633.796
599.138
636.724
682.978
695.129
694.448
695.942
695.357
683.526
674.472
675.466
631.794
635.497
615.869
622.272
677.144
674.543
697.948
697.948
697.948
697.948
697.938
697.94
697.948
697.948
697.948
697.948
697.948
697.948
697.948
697.948
697.948
697.948
697.948
697.885
697.477
696.74
696.644
692.488
695.005
697.941
697.942
697.526
690.538
690.049
693.822
692.567
693.364
697.652
697.945
697.948
697.948
697.12
697.38
697.896
697.939
697.917
697.946
697.814
695.63
696.997
695.454
696.543
696.416
697.387
697.583
697.585
697.183
697.914
697.919
697.728
697.426
697.941
697.941
677.887
675.933
696.275
693.457
691.174
691.005
691.974
696.96
697.575
697.573
697.163
697.578
697.58
697.571
697.57
696.997
695.541
680.901
678.872
697.241
697.868
697.864
697.862
697.946
697.946
595.556
595.708
686.353
684.816
697.588
595.562
595.503
695.806
696.184
697.897
697.938
697.93
585.711
587.697
588.925
602.124
605.484
585.133
586.379
601.738
598.914
622.208
673.877
672.899
680.022
630.012
626.616
673.398
697.948
697.948
697.948
697.906
697.926
697.94
697.944
697.868
697.883
697.948
697.948
697.948
697.213
697.166
697.548
697.77
697.588
697.496
693.657
694.274
691.783
692.156
695.647
694.782
690.208
691.036
681.783
681.968
686.14
685.551
678.917
682.363
682.796
697.674
693.679
694.544
695.603
693.448
696.384
696.036
697.708
697.579
697.013
685.778
683.908
695.131
692.489
688.752
697.948
697.947
697.899
697.881
697.754
697.818
697.002
697.765
697.829
693.513
694.809
697.794
681.548
679.329
696.106
696.435
697.935
697.939
697.886
697.737
697.924
697.93
696.233
675.709
675.427
690.151
690.576
697.569
697.57
697.119
697.081
697.568
697.569
589.926
605.586
634.689
636.495
615.733
617.155
586.896
682.354
681.283
695.634
597.391
594.982
609.807
610.008
592.798
614.272
614.937
593.159
593.613
697.877
697.872
697.264
697.495
697.885
697.881
639.801
682.267
683.347
680.009
681.135
636.846
688.731
695.599
696.102
696.018
695.82
689.367
681.051
687.694
686.897
675.391
674.226
677.349
602.604
604.477
605.672
596.252
677.912
637.091
631.801
641.744
638.383
673.205
659.281
659.643
679.181
682.163
694.501
697.946
697.946
697.941
600.038
600.315
631.621
631.364
573.53
608.316
601.91
602.035
599.738
600.992
609.815
545.764
676.501
677.126
697.948
697.948
697.948
696.923
696.833
697.481
697.119
697.439
697.656
697.346
697.401
692.847
694.88
688.298
688.847
688.856
688.265
693.899
689.693
689.482
665.174
656.898
656.853
657.977
657.76
663.617
697.524
697.759
697.768
697.726
697.75
697.469
695.571
697.203
696.295
695.991
697.188
697.588
697.591
691.13
691.255
693.071
691.462
697.579
697.577
696.926
697.574
697.576
697.155
697.023
697.569
697.569
688.681
690.53
689.732
691.205
690.95
688.527
596.025
596.77
596.214
595.764
624.379
607.934
607.168
659.584
659.443
671.616
661.468
663.65
657.526
659.237
669.708
697.943
697.94
697.944
697.937
697.947
697.948
697.948
697.944
697.946
697.943
662.609
676.424
675.524
678.921
677.626
663.685
668.215
672.24
670.468
674.8
673.874
666.845
697.945
697.947
697.946
697.894
697.851
697.938
697.931
585.818
599.512
589.716
589.328
602.842
602.216
624.952
626.371
610.978
585.053
584.307
607.07
591.347
591.139
590.627
618.256
593.769
588.457
675.009
676.661
684.383
670.948
671.386
669.733
670.079
681.015
672.545
673.286
611.51
596.965
598.358
595.675
595.83
612.287
697.931
697.935
697.916
697.849
697.894
697.924
696.787
697.512
697.098
697.011
697.186
697.259
697.017
697.107
693.418
694.409
689.447
689.625
689.045
689.254
695.778
692.356
692.498
689.443
689.712
694.427
689.621
683.329
682.152
679.516
685.057
684.423
688.958
683.277
683.128
685.031
684.027
688.649
691.154
686.025
686.643
683.777
684.948
690.609
682.922
670.063
680.991
680.071
657.137
657.97
694.485
696.671
696.53
694.113
695.969
697.22
696.892
688.792
687.251
693.448
693.808
696.188
691.784
690.351
697.392
697.561
697.843
697.673
697.167
696.45
697.129
697.791
697.872
697.889
697.788
697.823
697.643
697.423
697.621
697.892
697.828
697.792
697.897
697.843
697.907
697.745
697.758
697.67
697.782
663.413
661.187
677.163
656.307
658.313
652.083
666.866
649.759
648.159
656.245
655.125
688.753
678.781
681.064
674.461
676.499
688.143
695.328
691.713
692.86
682.469
689.054
694.196
677.252
673.217
685.119
663.102
664.691
660.575
661.803
684.597
687.039
671.309
672.739
666.573
668.781
686.569
695.995
696.571
643.735
623.901
626.632
618.313
620.959
643.624
626.488
627.89
627.634
633.736
642.635
604.277
606.72
609.086
604.659
644.833
642.434
613.754
615.917
609.541
611.821
642.052
638.059
636.632
644.647
642.498
622.95
621.135
630.803
629.519
690.582
690.705
697.128
697.571
697.573
697.568
697.568
697.064
591.01
628.277
632.084
602.685
586.852
619.786
623.789
602.51
599.878
659.557
626.032
626.219
655.293
622.359
616.02
626.144
625.143
657.23
608.397
605.328
610.139
612.986
594.974
597.283
603.996
689.782
693.522
693.213
693.977
693.757
690.05
686.084
686.947
686.951
685.396
685.369
685.97
687.14
691.805
691.455
692.784
692.278
687.687
598.837
610.261
611.634
608.079
609.188
598.95
605.216
619.998
622.897
613.727
616.685
602.073
602.871
590.574
592.219
590.668
590.339
598.975
604.161
606.59
595.724
599.91
598.155
688.905
688.383
682.278
674.351
676.634
598.55
601.488
618.389
600.948
597.419
606.149
604.356
620.646
596.958
596.722
659.221
659.147
697.948
697.948
697.948
697.948
697.948
697.948
697.948
697.948
697.948
697.948
697.948
697.948
697.948
697.948
697.948
697.948
697.948
697.948
697.948
697.948
697.948
697.948
697.948
697.948
697.948
697.948
697.948
697.948
697.948
697.948
697.948
697.948
697.948
697.948
697.948
697.948
697.948
697.948
697.948
697.948
697.948
697.948
697.948
697.948
697.948
697.948
697.948
697.948
697.948
697.948
697.948
697.948
697.948
697.948
697.948
697.948
697.948
697.948
697.948
697.948
697.948
697.948
697.948
697.948
697.948
697.948
697.948
697.948
697.948
697.948
697.948
697.948
697.948
697.948
697.948
697.948
697.948
697.948
697.948
697.948
697.948
697.948
697.948
697.948
697.948
697.947
697.947
697.948
697.948
697.948
697.948
697.948
697.948
697.948
697.948
697.948
697.948
697.948
697.948
697.948
697.947
697.947
697.948
697.948
697.948
697.948
697.948
697.948
697.948
697.948
697.948
697.948
697.948
697.948
697.948
697.948
697.948
697.948
697.948
697.948
697.948
697.948
697.948
697.948
697.948
697.948
697.948
697.948
697.948
697.948
697.948
697.948
697.948
697.948
697.948
697.948
697.861
697.86
611.813
691.383
691.831
697.948
697.948
697.948
697.948
697.948
697.948
697.948
697.948
697.948
697.948
697.948
697.948
697.946
642.819
641.065
672.363
697.948
697.948
697.948
697.948
697.948
697.948
697.948
697.948
697.948
697.947
697.948
697.647
668.612
643.333
685.713
697.941
697.948
697.948
697.948
697.948
697.948
697.948
697.948
697.948
697.948
697.948
697.948
697.948
697.948
697.948
697.948
697.948
697.948
697.947
697.946
697.948
697.948
697.948
697.947
697.947
697.948
697.948
697.946
697.946
697.946
697.946
697.948
697.948
697.948
697.948
697.948
697.947
697.948
697.946
697.947
697.948
697.948
697.948
697.948
697.948
697.948
697.948
697.86
697.895
697.948
573.427
624.71
625.245
657.488
657.591
547.479
697.948
697.948
697.948
697.948
697.948
697.948
697.948
697.948
697.947
697.948
697.948
697.948
697.948
697.948
697.948
697.948
697.948
697.948
697.948
697.948
697.948
697.948
697.948
697.948
697.948
697.948
697.948
697.948
697.948
697.948
697.947
697.942
697.948
697.948
697.948
697.948
697.948
697.948
697.948
697.948
697.948
697.948
697.948
697.948
697.948
697.948
697.948
697.948
697.948
697.948
697.948
697.948
697.948
697.948
697.948
697.948
697.824
697.915
697.908
697.942
697.939
697.911
697.809
697.733
697.859
697.948
697.948
697.948
697.948
697.948
697.948
697.948
697.948
697.948
697.948
697.948
697.948
697.948
697.948
697.948
697.948
697.948
697.948
697.947
697.947
697.948
697.374
697.809
697.81
697.82
697.815
697.405
697.948
697.948
697.948
697.948
697.948
697.948
697.948
697.948
697.948
697.948
697.948
697.948
697.948
697.948
697.948
697.948
697.948
697.948
697.948
697.948
697.948
697.541
697.942
697.943
697.833
697.836
697.496
696.209
693.121
693.534
697.948
697.948
697.948
697.948
697.948
697.948
697.948
697.948
697.948
697.626
695.599
696.078
696.815
696.901
697.603
697.948
697.948
697.948
697.948
697.948
697.948
697.948
697.948
697.948
697.873
697.656
697.678
697.451
697.495
697.834
697.897
697.86
697.948
612.421
696.847
696.769
674.528
674.866
590.767
697.736
697.714
644.563
697.948
697.933
697.94
697.94
697.933
697.948
697.937
697.946
697.944
697.948
697.948
697.947
697.948
697.948
697.948
697.946
697.912
697.942
697.948
697.948
697.948
697.945
697.947
697.948
697.904
697.852
697.84
697.947
697.946
697.947
697.948
697.948
697.948
697.948
697.948
697.948
697.945
697.946
697.938
697.49
697.836
697.827
697.899
697.889
697.709
697.948
697.948
697.948
697.19
696.08
696.37
693.149
693.249
695.991
696.558
696.689
697.418
697.947
697.947
697.948
697.668
697.807
697.822
697.894
697.941
697.943
697.831
697.837
697.715
697.948
697.948
697.948
697.452
697.826
697.829
697.811
697.813
697.394
697.948
697.947
697.947
695.802
692.769
692.635
694.132
694.011
696.367
695.839
692.971
693.058
692.539
692.475
695.674
697.946
697.946
697.948
697.691
697.68
697.167
697.948
697.946
697.946
696.307
688.239
686.969
693.218
692.936
696.709
696.512
694.372
694.255
686.568
685.176
696.027
697.509
696.607
696.718
693.976
694.345
696.637
697.947
697.947
697.948
697.665
697.9
697.897
697.917
697.915
697.817
697.214
697.707
697.7
697.893
697.889
697.514
697.948
697.947
697.947
697.308
695.384
695.227
696.099
696.002
697.459
696.911
693.745
693.486
695.057
694.872
697.184
697.799
697.348
697.402
696.217
696.579
697.708
697.846
697.922
697.92
697.947
697.946
697.869
697.948
697.948
697.948
697.676
687.898
686.799
685.681
687.335
697.662
697.531
696.274
696.19
697.9
696.25
696.352
697.948
697.948
697.948
697.948
697.948
697.948
697.948
697.948
697.948
697.948
697.948
697.948
697.948
697.948
697.948
697.948
697.948
697.948
697.948
697.948
697.948
697.76
697.94
697.94
697.939
697.939
697.749
690.158
685.084
685.866
679.92
681.125
687.449
697.948
697.948
697.948
697.948
697.948
697.948
697.92
697.935
697.944
697.948
697.948
697.948
697.948
697.948
697.948
697.948
697.948
697.948
697.662
697.944
697.938
697.943
697.944
697.647
697.948
697.948
697.948
661.596
644.042
642.485
652.332
650.691
667.616
685.211
677.739
678.747
697.948
697.948
697.948
697.905
697.947
697.947
697.947
697.947
697.908
670.907
655.536
653.977
662.331
661.268
674.796
697.925
697.947
697.947
697.947
697.947
697.927
697.948
697.948
697.948
697.948
697.948
697.948
697.948
697.948
697.948
697.948
697.948
697.948
697.948
697.948
697.948
697.948
697.948
697.948
697.948
697.948
697.948
697.948
697.947
697.948
697.948
697.948
697.948
697.946
697.947
697.944
697.948
697.948
697.948
694.767
695.406
697.592
697.712
697.251
697.306
693.388
689.986
690.424
686.59
687.223
691.477
692.584
696.356
696.197
696.627
696.499
692.905
697.844
697.535
697.57
697.822
697.895
697.944
697.916
697.473
697.773
697.572
697.825
697.772
697.946
697.943
697.928
697.948
697.948
697.948
697.922
697.914
697.934
697.942
697.933
697.928
694.142
694.314
696.575
696.329
693.855
693.991
697.328
697.417
697.739
697.636
697.155
697.241
697.615
697.625
697.224
697.943
697.931
697.929
697.936
697.933
697.944
697.94
697.923
697.922
697.927
697.925
697.941
697.208
697.604
697.608
697.903
697.911
697.865
697.948
697.946
697.945
697.947
697.946
697.948
697.946
697.94
697.938
697.943
697.941
697.946
697.775
697.877
697.891
693.408
693.336
696.036
696.152
693.556
693.481
692.559
692.615
695.672
695.641
692.472
692.511
697.591
697.587
696.867
697.94
697.921
697.922
697.92
697.921
697.939
697.941
697.925
697.925
697.923
697.924
697.94
696.871
697.605
697.597
697.939
697.92
697.919
697.921
697.92
697.939
697.939
697.919
697.92
697.919
697.919
697.939
691.984
688.672
696.397
627.482
652.389
654.461
638.043
639.748
609.942
696.635
692.624
692.305
695.927
684.577
682.794
695.81
695.974
697.285
697.072
695.386
695.61
697.765
697.753
697.337
697.942
697.928
697.929
697.926
697.927
697.942
697.943
697.932
697.933
697.93
697.931
697.943
697.45
697.784
697.775
648.356
628.164
626.55
640.586
638.309
656.545
694.237
693.997
696.972
645.882
667.362
668.935
656.169
657.926
632.512
657.95
686.095
686.89
684.32
685.228
655.928
697.136
694.672
694.462
629.192
605.046
603.494
624.569
621.84
642.537
697.22
697.287
697.784
687.482
691.74
691.32
694.098
693.809
690.477
690.839
690.321
685.063
697.73
697.061
697.144
675.717
646.277
642.821
650.666
647.595
676.481
676.759
664.477
663.41
693.517
682.974
684.801
690.834
691.226
694.119
697.948
697.948
697.948
697.948
697.948
697.948
697.891
697.943
697.943
697.942
697.942
697.888
687.191
686.781
640.231
697.707
696.135
696.18
696.043
696.144
697.719
697.825
697.942
697.942
697.941
697.941
697.819
697.948
697.948
697.948
601.276
597.805
574.112
674.146
652.331
646.489
653.18
652.666
674.13
693.671
681.812
680.628
684.54
687.386
693.795
544.599
618.309
633.435
697.948
697.948
697.948
697.948
697.948
697.948
697.948
697.948
697.948
697.948
697.948
697.948
697.948
697.948
697.948
697.948
697.948
697.948
697.927
697.922
697.848
697.947
697.942
697.943
697.938
697.94
697.947
697.833
697.679
697.649
697.808
697.808
697.372
697.94
697.914
697.914
697.914
697.914
697.94
697.941
697.916
697.917
697.914
697.915
697.94
697.389
697.811
697.809
692.638
692.825
696.08
697.602
697.63
697.867
695.273
696.843
696.742
697.015
696.934
695.467
696.84
689.526
685.844
689.541
689.572
696.847
610.056
664.393
663.922
697.948
697.948
697.948
697.948
697.948
697.948
697.948
697.948
697.948
697.869
697.86
697.909
697.948
697.948
697.947
697.948
697.948
697.948
697.948
697.948
697.948
697.948
697.948
697.947
697.948
697.948
697.948
697.942
697.947
697.947
697.856
697.845
697.527
697.942
697.923
697.926
697.919
697.921
697.942
697.945
697.934
697.936
697.928
697.931
697.944
697.657
697.877
697.866
695.19
695.654
697.064
683.703
692.085
690.722
694.375
693.519
688.049
675.92
687.388
687.229
687.757
687.565
676.3
696.052
693.358
693.476
691.804
695.077
694.817
695.424
695.263
692.106
697.468
696.794
696.888
697.728
697.779
697.592
697.905
697.893
697.875
697.871
697.789
697.786
697.796
697.792
697.873
697.94
697.915
697.914
697.916
697.915
697.94
697.404
697.815
697.817
693.054
692.916
695.853
672.48
686.573
687.01
685.636
686.075
670.697
692.806
692.885
695.795
674.439
686.759
686.594
687.082
686.93
674.94
667.986
685.185
685.338
685.198
685.133
668.222
695.663
692.443
692.427
697.869
697.781
697.783
697.778
697.78
697.868
697.816
697.821
697.89
697.126
697.665
697.65
697.865
697.778
697.777
697.783
697.781
697.866
697.864
697.775
697.777
697.774
697.774
697.864
696.361
696.486
697.47
691.208
694.495
694.221
695.022
694.772
691.756
696.741
694.603
694.793
697.906
697.903
697.769
697.944
697.936
697.936
697.934
697.935
697.944
697.945
697.939
697.939
697.937
697.938
697.945
697.806
697.912
697.909
695.662
695.529
697.343
669.68
688.854
689.401
687.608
688.258
668.542
680.738
690.743
691.127
689.887
690.332
679.937
697.434
695.897
695.784
628.012
611.041
610.218
613.252
611.992
629.05
696.426
696.353
697.552
683.613
692.116
692.399
691.485
691.812
682.965
609.441
608.682
625.272
697.948
697.947
697.946
683.622
684.32
689.671
688.112
682.162
682.947
697.947
697.948
697.948
697.948
697.948
697.948
697.946
697.942
697.945
646.626
645.374
662.94
611.574
627.468
628.463
615.231
632.465
634.527
629.514
630.799
613.618
666.512
649.212
647.861
658.105
656.905
671.821
624.564
640.414
641.742
636.729
638.759
622.867
697.946
697.943
697.941
697.947
697.945
697.947
697.936
697.919
697.912
697.938
697.928
697.941
697.633
697.619
697.789
692.642
688.366
689.103
687.117
687.668
692.264
693.937
690.627
691.042
689.738
690.22
693.671
688.974
689.508
693.086
676.204
684.407
683.596
685.725
685.101
677.299
682.715
681.839
671.436
691.936
687.817
688.406
697.737
697.384
697.467
697.15
697.298
697.689
697.903
697.813
697.862
697.574
697.704
697.871
696.323
694.069
694.322
697.201
695.846
696.786
694.64
695.132
696.887
697.919
697.878
697.703
697.943
697.929
697.939
697.89
697.912
697.938
697.928
697.898
697.881
697.941
697.937
697.944
697.878
697.92
697.93
697.899
697.909
697.854
678.585
688.969
688.712
689.828
689.309
678.997
696.676
694.526
694.807
693.601
693.726
696.255
677.427
688.135
687.954
688.499
688.31
677.676
696.979
697.068
697.597
692.829
695.728
695.577
696.029
695.878
693.06
697.891
697.829
697.821
697.856
697.84
697.895
697.248
697.644
697.677
697.595
697.6
697.205
697.88
697.805
697.8
697.815
697.81
697.883
675.357
687.668
687.786
687.325
687.527
675.186
695.996
693.258
693.168
672.661
686.151
685.98
686.443
686.302
673.133
695.696
692.674
692.736
692.427
692.443
695.634
670.347
685.52
685.357
685.815
685.665
670.871
697.875
697.79
697.793
697.785
697.788
697.873
696.876
697.584
697.581
697.633
697.617
696.912
697.883
697.804
697.81
697.796
697.8
697.88
697.862
697.773
697.773
697.775
697.774
697.862
697.862
697.773
697.773
697.773
697.773
697.862
677.787
658.284
656.09
661.537
660.07
678.895
673.516
649.52
648.135
653.662
651.366
674.517
647.201
649.7
624.79