/*--------------------------------*- C++ -*----------------------------------*\
| =========                 |                                                 |
| \\      /  F ield         | OpenFOAM: The Open Source CFD Toolbox           |
|  \\    /   O peration     | Version:  5.x                                   |
|   \\  /    A nd           | Web:      www.OpenFOAM.org                      |
|    \\/     M anipulation  |                                                 |
\*---------------------------------------------------------------------------*/
FoamFile
{
    version     2.0;
    format      ascii;
    class       volVectorField;
    location    "600";
    object      U;
}
// * * * * * * * * * * * * * * * * * * * * * * * * * * * * * * * * * * * * * //

dimensions      [0 1 -1 0 0 0 0];

internalField   nonuniform List<vector> 
6584
(
(1.00007 -0.000181648 4.29672e-27)
(1.00005 -0.000398729 2.08531e-25)
(1.00006 -0.000540662 1.868e-30)
(1.00006 -0.000734436 -3.72587e-25)
(1.00007 -0.00093614 0)
(1.00007 -0.00115387 0)
(1.00006 -0.00136129 0)
(1.00001 -0.00147896 3.73564e-25)
(0.99994 -0.00143983 3.64936e-25)
(0.999828 -0.00109445 0)
(0.999712 -0.000255531 1.00667e-25)
(0.999637 0.0010093 -2.57402e-25)
(0.999669 0.00238419 -1.04907e-26)
(0.999801 0.00341783 2.52447e-26)
(0.99995 0.00384685 6.3861e-27)
(1.00011 0.00369615 9.22155e-25)
(1.00017 0.00322419 8.16016e-25)
(1.00019 0.00265004 6.64419e-26)
(1.00018 0.00207804 5.59476e-25)
(1.00015 0.00157631 4.00006e-25)
(1.00012 0.00116923 0)
(1.00011 0.000820953 0)
(1.00008 0.000579721 5.88453e-25)
(1.0001 0.000256561 3.59647e-25)
(1.00028 -0.000381812 -2.03698e-25)
(1.00024 -0.000803498 -7.95567e-25)
(1.00029 -0.00106805 -1.06585e-24)
(1.00031 -0.00146024 0)
(1.00035 -0.00186856 -1.38997e-25)
(1.00034 -0.00232292 -1.18217e-24)
(1.00029 -0.00278066 -7.16935e-25)
(1.00006 -0.00307161 1.20163e-24)
(0.999748 -0.00305419 -9.78932e-26)
(0.99897 -0.00240565 -2.22394e-25)
(0.998072 -0.000695176 -5.84412e-29)
(0.997532 0.00197244 0)
(0.997749 0.00491147 5.83566e-25)
(0.998663 0.00708618 2.86198e-25)
(0.999821 0.00797099 -2.08487e-24)
(1.00057 0.00760077 -5.51932e-25)
(1.00087 0.00653336 -1.25155e-24)
(1.00095 0.00530756 -1.62852e-24)
(1.00087 0.00411742 -4.13052e-24)
(1.00074 0.00309905 -3.38352e-24)
(1.0006 0.0022923 -2.38434e-25)
(1.0005 0.00159938 -9.90748e-26)
(1.00039 0.00115228 0)
(1.00041 0.000531712 3.1493e-25)
(1.00062 -0.000586796 -5.15118e-25)
(1.00059 -0.00119064 0)
(1.0007 -0.00155791 -2.07685e-25)
(1.00077 -0.00215075 -1.39549e-24)
(1.00088 -0.00278053 -2.11056e-24)
(1.0009 -0.00352176 0)
(1.00079 -0.00435522 0)
(1.00029 -0.004952 -2.27031e-25)
(0.999378 -0.00555373 -1.86415e-25)
(0.998103 -0.0036186 1.10217e-25)
(0.996595 -0.0015057 -1.87693e-25)
(0.995501 0.002005 -2.57786e-25)
(0.995771 0.00615622 0)
(0.997421 0.00931983 0)
(0.999452 0.0106776 2.7534e-26)
(1.00148 0.012161 -2.264e-24)
(1.00227 0.0100278 0)
(1.00243 0.00794793 -7.50775e-25)
(1.00219 0.00603167 0)
(1.00182 0.00446682 -5.50002e-25)
(1.00146 0.00327702 -1.43669e-24)
(1.00119 0.00226282 -8.47727e-25)
(1.00093 0.00165649 0)
(1.00089 0.00079345 2.44313e-25)
(1.00104 -0.000778369 -3.16487e-25)
(1.00105 -0.00152931 0)
(1.00125 -0.00197906 -2.80276e-25)
(1.00143 -0.00276328 0)
(1.00167 -0.00362176 0)
(1.00181 -0.00471343 0)
(1.00173 -0.00608035 -2.56708e-25)
(1.00104 -0.00736332 4.10032e-24)
(0.999283 -0.00896881 -3.70684e-25)
(0.996811 -0.00691738 3.26964e-25)
(0.993485 -0.00435111 -2.01975e-25)
(0.990318 0.00134695 2.9104e-26)
(0.990329 0.00930494 4.75315e-26)
(0.994237 0.015306 0)
(0.998946 0.0168915 -3.39449e-24)
(1.00221 0.0152305 0)
(1.00493 0.013651 0)
(1.00477 0.0105197 5.1638e-24)
(1.00416 0.00769644 3.33867e-24)
(1.00335 0.00556334 -1.1035e-24)
(1.00264 0.00402892 -7.58738e-25)
(1.00209 0.00274463 0)
(1.00164 0.00203049 3.58841e-25)
(1.00146 0.00100571 2.87615e-25)
(1.0015 -0.000938028 -1.23077e-25)
(1.00161 -0.00178719 -8.12374e-27)
(1.00193 -0.00228894 -3.88296e-26)
(1.00228 -0.0032367 -5.94048e-26)
(1.00273 -0.00429669 1.3866e-25)
(1.00319 -0.00577102 3.17645e-24)
(1.00336 -0.00779656 -4.72776e-24)
(1.003 -0.0100488 4.64717e-24)
(0.99967 -0.010767 1.78938e-25)
(0.996245 -0.0118152 1.39448e-24)
(0.989673 -0.00995592 -2.78198e-25)
(0.980937 -0.00140436 2.19135e-25)
(0.979755 0.0140049 -8.29171e-26)
(0.98956 0.0250117 4.97116e-24)
(0.999723 0.0258652 0)
(1.00532 0.0215627 3.23829e-24)
(1.00698 0.0160968 -6.88189e-25)
(1.00806 0.012145 -3.98135e-24)
(1.00678 0.00884366 -2.26284e-24)
(1.00526 0.00618608 9.64616e-25)
(1.00407 0.00443403 -5.05081e-26)
(1.00314 0.00296676 -2.75665e-26)
(1.00244 0.00221602 4.05832e-25)
(1.00205 0.00113512 -1.50352e-25)
(1.00199 -0.00104737 6.12393e-26)
(1.00222 -0.00193106 -1.62485e-25)
(1.00268 -0.00243689 -9.14231e-27)
(1.00327 -0.0034842 0)
(1.00404 -0.00464002 -6.58092e-25)
(1.00502 -0.00643593 -2.6903e-25)
(1.00573 -0.00867339 -1.96278e-24)
(1.00453 -0.0110635 -5.07558e-25)
(1.00244 -0.0146798 2.21753e-24)
(0.998486 -0.0193173 8.11445e-24)
(0.986087 -0.019099 1.72811e-24)
(0.969125 -0.0102592 2.53049e-28)
(0.962294 0.0180685 -9.16665e-26)
(0.983342 0.0386569 6.22505e-25)
(1.00453 0.0390986 -7.20621e-24)
(1.01189 0.0287323 0)
(1.01252 0.0200633 4.38762e-28)
(1.01231 0.0129015 6.94457e-25)
(1.00991 0.00920638 1.62779e-25)
(1.00744 0.00616666 1.11696e-24)
(1.00564 0.00437716 -3.96091e-25)
(1.00424 0.0028582 0)
(1.00326 0.0021623 -2.05792e-25)
(1.0026 0.00115139 -2.80426e-25)
(1.00245 -0.00109131 6.73578e-28)
(1.00282 -0.00193595 -7.64345e-26)
(1.00345 -0.00238394 9.63404e-26)
(1.00432 -0.00343691 9.92279e-27)
(1.00547 -0.00452825 1.55419e-26)
(1.00712 -0.00648643 -1.06461e-24)
(1.0087 -0.00871145 -1.49076e-24)
(1.00814 -0.0121636 -7.34695e-26)
(1.00829 -0.017984 -3.27489e-25)
(1.00623 -0.027379 1.18268e-24)
(0.991247 -0.0368591 0)
(0.953005 -0.037964 1.20327e-24)
(0.910716 0.0263445 4.32777e-26)
(0.981821 0.0773056 3.20031e-24)
(1.01462 0.0540275 1.17827e-26)
(1.02379 0.0342168 0)
(1.02055 0.0216362 2.22251e-24)
(1.0173 0.011924 5.24924e-25)
(1.01328 0.00839012 4.27552e-25)
(1.00968 0.00532688 -1.08378e-25)
(1.00718 0.00376209 -8.55911e-25)
(1.00526 0.00237027 0)
(1.00399 0.0018358 -1.85212e-25)
(1.00304 0.00103214 -1.65755e-25)
(1.00284 -0.00106224 -7.54061e-26)
(1.00337 -0.00179438 6.66811e-26)
(1.00414 -0.00211827 3.48731e-26)
(1.00529 -0.00306178 2.48792e-26)
(1.00682 -0.00389163 -4.07879e-26)
(1.00914 -0.00569609 5.05923e-25)
(1.0118 -0.00737648 1.29479e-28)
(1.01274 -0.0113359 -2.04454e-25)
(1.01641 -0.017885 2.03284e-28)
(1.02073 -0.0298021 -2.96852e-24)
(1.01581 -0.0519187 -7.15834e-26)
(0.990552 -0.105006 2.42446e-26)
(1.02641 0.133827 5.58421e-25)
(1.04502 0.0646843 -5.78053e-25)
(1.04071 0.0331987 1.23126e-24)
(1.0303 0.0190924 -2.59659e-25)
(1.02215 0.00866477 8.32992e-25)
(1.01635 0.00614744 8.55139e-25)
(1.01164 0.00358276 5.79038e-25)
(1.00846 0.00255641 -2.47119e-25)
(1.00605 0.00149883 0)
(1.00453 0.00123354 0)
(1.00328 0.000769342 -2.76933e-30)
(1.00314 -0.000963653 -1.3945e-26)
(1.0038 -0.00152345 -2.41108e-27)
(1.00466 -0.00166933 -1.04561e-26)
(1.00602 -0.00239334 5.66995e-26)
(1.00784 -0.0027856 7.02293e-26)
(1.01065 -0.00408908 3.62502e-25)
(1.01418 -0.00471197 1.01732e-24)
(1.01698 -0.00813749 0)
(1.02414 -0.012759 0)
(1.03586 -0.0209854 0)
(1.04976 -0.0408701 -1.0648e-25)
(1.08126 -0.0870427 1.41177e-26)
(1.13149 0.110373 0)
(1.0835 0.0470019 0)
(1.05657 0.02138 0)
(1.03891 0.0113666 2.41459e-25)
(1.0256 0.00330496 0)
(1.0184 0.00258772 -9.00979e-25)
(1.01291 0.00106242 -6.00272e-25)
(1.00924 0.000843412 -5.44214e-26)
(1.00646 0.00030754 0)
(1.00477 0.000393917 7.63006e-27)
(1.00328 0.000374056 -1.13928e-27)
(1.00331 -0.000811078 2.72784e-27)
(1.00406 -0.00116614 -4.10294e-27)
(1.00495 -0.00111168 4.59518e-27)
(1.00641 -0.00155006 2.40064e-26)
(1.00833 -0.00142845 -6.05626e-26)
(1.01124 -0.00201749 -4.60956e-27)
(1.01509 -0.00142116 -1.0426e-25)
(1.01927 -0.00332644 -6.224e-27)
(1.02786 -0.00413997 0)
(1.04239 -0.00476009 -2.6887e-25)
(1.06576 -0.00980092 1.08484e-30)
(1.11391 -0.0169959 -3.56019e-26)
(1.17622 0.0208562 -9.25199e-26)
(1.10332 0.00723675 -3.42106e-25)
(1.06337 0.00172978 -2.64913e-24)
(1.04295 9.88458e-06 0)
(1.02656 -0.00305685 -1.73776e-24)
(1.01884 -0.00171719 0)
(1.01317 -0.00187124 -8.38648e-27)
(1.00932 -0.00116767 0)
(1.00639 -0.00106961 9.0119e-27)
(1.00464 -0.000602697 -3.9954e-27)
(1.00299 -0.000122458 -4.6546e-26)
(1.00336 -0.000629137 0)
(1.00414 -0.00078195 -2.2559e-26)
(1.005 -0.00054567 -2.32708e-26)
(1.00641 -0.000698833 -5.79776e-28)
(1.00823 -0.000121596 1.36763e-26)
(1.01087 -9.92241e-06 9.86928e-26)
(1.01438 0.0015526 3.72767e-25)
(1.01889 0.0014878 1.62699e-25)
(1.02631 0.00431979 0)
(1.03795 0.0104203 1.32227e-24)
(1.05828 0.0197895 4.00977e-25)
(1.09326 0.0427888 -1.70314e-26)
(1.15241 -0.0637791 -4.30886e-26)
(1.09538 -0.0325541 5.70574e-25)
(1.05859 -0.0179586 1.12536e-25)
(1.04101 -0.0114901 1.5386e-24)
(1.02476 -0.00895413 7.71974e-24)
(1.01757 -0.00593885 4.29606e-24)
(1.01235 -0.00472797 -2.91068e-24)
(1.00866 -0.00319755 -2.06615e-24)
(1.0058 -0.00245957 1.47519e-25)
(1.00413 -0.00164915 6.49141e-26)
(1.00241 -0.000674758 -1.4669e-25)
(1.00331 -0.000445263 2.89292e-27)
(1.00407 -0.000430521 9.22225e-27)
(1.00483 -6.58687e-05 1.37703e-26)
(1.00609 5.41395e-06 3.70197e-27)
(1.00766 0.000875729 -4.44756e-34)
(1.00976 0.0014806 1.87273e-25)
(1.01249 0.00350517 5.95336e-25)
(1.01634 0.00486744 1.77304e-25)
(1.021 0.009672 0)
(1.02672 0.0186978 -3.81061e-25)
(1.03715 0.0348349 -9.09189e-26)
(1.04885 0.0688487 -1.97621e-26)
(1.09216 -0.106136 -1.15218e-26)
(1.06877 -0.0560038 0)
(1.04578 -0.03118 -2.42213e-24)
(1.03431 -0.0199852 1.95361e-24)
(1.02086 -0.0132845 1.10672e-23)
(1.01495 -0.00933945 7.27275e-24)
(1.01061 -0.00708342 0)
(1.00736 -0.00498288 -1.82392e-24)
(1.00477 -0.00370165 -1.00822e-24)
(1.00327 -0.00263771 9.31767e-26)
(1.00159 -0.00123294 -1.13602e-25)
(1.00319 -0.000282855 0)
(1.00389 -0.000155646 4.30646e-27)
(1.00453 0.000267548 -5.22358e-27)
(1.00559 0.000470478 -1.45824e-26)
(1.00683 0.00143818 0)
(1.00835 0.00224784 -4.81709e-26)
(1.0102 0.00423702 9.95254e-26)
(1.01284 0.00622603 -2.34519e-26)
(1.01469 0.0110384 -2.74892e-26)
(1.01489 0.0190058 1.99956e-25)
(1.01523 0.0334598 3.87327e-26)
(1.00519 0.0597702 0)
(1.03132 -0.104321 3.26509e-27)
(1.03845 -0.0599287 9.11968e-26)
(1.03086 -0.035772 1.18857e-24)
(1.02557 -0.0241103 1.37477e-25)
(1.01597 -0.0156394 4.89443e-24)
(1.01163 -0.0115296 5.14303e-24)
(1.0083 -0.00870311 0)
(1.00563 -0.00634726 -2.73115e-26)
(1.00341 -0.00468203 4.22608e-25)
(1.00214 -0.00348684 2.31218e-25)
(1.00058 -0.00175278 8.27118e-27)
(1.00304 -0.000157143 0)
(1.00365 2.18879e-05 0)
(1.00418 0.000437543 0)
(1.00503 0.000679628 0)
(1.00598 0.00157789 -8.39526e-27)
(1.00701 0.00235116 -5.98546e-27)
(1.00815 0.00390274 -2.16466e-25)
(1.00894 0.00617117 2.71018e-24)
(1.0097 0.00938174 0)
(1.00676 0.0141783 0)
(1.00204 0.0218176 5.97973e-25)
(0.98196 0.0297614 2.15162e-24)
(0.569112 -0.0412876 -8.0614e-26)
(0.992664 -0.0663323 -3.93752e-24)
(1.0161 -0.0501445 -7.29109e-25)
(1.01854 -0.0336073 -5.57076e-27)
(1.01726 -0.0243865 -3.11234e-26)
(1.01114 -0.0162479 -1.37759e-24)
(1.00823 -0.0125112 2.08657e-25)
(1.00579 -0.00956305 3.54051e-27)
(1.00371 -0.00722964 -1.86872e-24)
(1.00188 -0.00535825 0)
(1.00085 -0.00414935 8.53362e-26)
(0.999457 -0.0022033 -2.27514e-25)
(1.0029 -7.4152e-05 0)
(1.00342 0.000102784 -2.69285e-26)
(1.00384 0.000462711 6.22979e-28)
(1.00452 0.00067381 0)
(1.00526 0.00140563 0)
(1.00598 0.00198898 -9.49493e-25)
(1.00669 0.00309618 2.0725e-25)
(1.00713 0.00435885 3.66125e-24)
(1.00678 0.00647271 4.01078e-24)
(1.00377 0.00828168 2.47588e-24)
(0.998895 0.0100323 0)
(0.987001 0.00495677 -2.35791e-25)
(0.866156 -0.0315746 1.56847e-25)
(0.98898 -0.039278 -5.14797e-25)
(1.00483 -0.0341278 4.25227e-25)
(1.01068 -0.0281868 -4.2159e-25)
(1.00866 -0.0199927 7.26495e-25)
(1.00706 -0.0155945 -1.4929e-25)
(1.00515 -0.0125038 -5.39397e-28)
(1.00336 -0.00978068 -3.87066e-27)
(1.00179 -0.00767229 0)
(1.00031 -0.00574168 -8.07993e-25)
(0.999505 -0.00461461 -9.69456e-25)
(0.998294 -0.00256808 -2.95631e-25)
(1.00278 -3.26252e-05 6.10484e-28)
(1.00322 0.000101936 -2.41261e-26)
(1.00358 0.000379588 5.01418e-26)
(1.00414 0.000517943 5.60681e-30)
(1.00475 0.00104652 -1.76243e-25)
(1.00531 0.00139 -6.77441e-25)
(1.00587 0.00202628 -2.19081e-24)
(1.00616 0.00263832 -3.32502e-24)
(1.00568 0.00358274 -9.14885e-25)
(1.00379 0.00346074 -1.38876e-25)
(1.00124 0.0015246 0)
(0.995895 -0.00273623 -1.01898e-25)
(0.896671 -0.0244634 -7.38011e-25)
(0.994469 -0.0244395 -1.33349e-25)
(1.00212 -0.025395 -1.22791e-25)
(1.00639 -0.0227605 -2.2261e-25)
(1.00519 -0.0175113 -3.46655e-24)
(1.00398 -0.0144424 0)
(1.0026 -0.0119359 -5.33905e-25)
(1.00121 -0.00956728 -1.86013e-25)
(0.999994 -0.00775878 -2.73062e-26)
(0.998796 -0.00587753 1.54064e-25)
(0.998172 -0.00488845 0)
(0.997151 -0.00284234 0)
(1.00271 -2.68499e-05 -7.78227e-29)
(1.00309 4.04554e-05 2.12282e-27)
(1.0034 0.000227633 2.14897e-26)
(1.0039 0.000277269 0)
(1.00445 0.000602513 -7.39724e-26)
(1.00497 0.000731291 0)
(1.00557 0.000930487 -1.14474e-24)
(1.006 0.00111369 3.06688e-25)
(1.00621 0.00055644 -1.87912e-26)
(1.00495 0.000344291 -8.24259e-26)
(1.00472 -0.00221106 3.50653e-25)
(1.00077 -0.00832342 -2.14329e-25)
(0.942659 -0.0186513 -1.07691e-24)
(0.997152 -0.0192878 7.65295e-26)
(1.00174 -0.0196721 3.34183e-25)
(1.00418 -0.0183621 1.16308e-25)
(1.00265 -0.0151628 -1.68949e-24)
(1.00171 -0.0129354 1.87831e-24)
(1.00054 -0.0110581 0)
(0.999385 -0.00907383 6.82662e-25)
(0.998404 -0.00759781 -7.12359e-26)
(0.99741 -0.00583006 1.76258e-25)
(0.996913 -0.00500867 0)
(0.99606 -0.00303379 0)
(1.00269 -4.92857e-05 2.12399e-27)
(1.00302 -6.01362e-05 3.37047e-27)
(1.00332 4.11926e-05 -2.44618e-26)
(1.00378 5.75816e-06 -7.98983e-27)
(1.00435 0.000151872 0)
(1.0049 0.000123647 0)
(1.00564 1.93971e-05 6.24701e-25)
(1.00634 -9.27086e-05 -1.73614e-25)
(1.0071 -0.000951606 1.69763e-25)
(1.00676 -0.00196153 -6.79078e-25)
(1.00714 -0.00395311 0)
(0.999932 -0.0071793 -3.32427e-25)
(0.951014 -0.0169506 -1.89738e-24)
(0.999966 -0.0148944 5.13869e-25)
(1.00224 -0.0145032 1.05307e-24)
(1.00271 -0.0134442 2.7014e-24)
(1.00114 -0.0129963 1.51152e-24)
(1.00014 -0.011323 1.57812e-24)
(0.998949 -0.0100701 -2.42027e-25)
(0.997899 -0.00842385 -1.5916e-25)
(0.997035 -0.00727776 -3.47046e-25)
(0.99618 -0.00565469 -1.25217e-24)
(0.995764 -0.00500678 5.78558e-27)
(0.995053 -0.00315131 -6.59891e-26)
(1.00273 -9.24327e-05 -9.20267e-27)
(1.00301 -0.000181581 4.03463e-27)
(1.00333 -0.000154442 -2.56208e-26)
(1.00378 -0.000260353 -3.52852e-26)
(1.00438 -0.000259603 0)
(1.005 -0.000380889 0)
(1.00591 -0.000691279 1.49212e-24)
(1.00681 -0.00084971 1.48807e-25)
(1.00816 -0.00201 -2.7058e-25)
(1.00802 -0.00194525 -9.57027e-25)
(1.0097 -0.00613348 0)
(0.967418 -0.00193031 -1.68424e-24)
(0.974939 -0.0130323 1.50722e-25)
(1.00355 -0.00923303 2.78684e-25)
(1.00238 -0.0125643 2.39255e-25)
(1.00246 -0.0111408 -6.33183e-25)
(1.00032 -0.0112894 -4.73319e-25)
(0.99908 -0.00990505 2.6703e-25)
(0.99775 -0.00912274 -7.00014e-26)
(0.996714 -0.00772415 -1.2007e-24)
(0.995883 -0.00687631 -3.89288e-25)
(0.995116 -0.00540164 -1.62819e-24)
(0.99474 -0.00491621 0)
(0.994145 -0.00320813 -2.32215e-25)
(1.00281 -0.000149942 -1.33069e-26)
(1.00307 -0.000310492 -1.2409e-26)
(1.0034 -0.000343949 0)
(1.00386 -0.000502075 -2.18233e-26)
(1.00452 -0.000617519 0)
(1.0052 -0.000775947 -8.36764e-25)
(1.00627 -0.00125145 -1.4496e-25)
(1.0073 -0.00131832 1.29836e-25)
(1.00902 -0.00277531 -2.18265e-25)
(1.00911 -0.00213105 -2.7623e-25)
(1.01021 -0.00639175 -1.79243e-25)
(0.969445 -0.00255088 -1.93303e-24)
(0.977198 -0.0109796 1.07391e-24)
(1.00406 -0.00725501 -2.50519e-25)
(1.00268 -0.010928 -1.29394e-25)
(1.00231 -0.00924952 -3.66316e-26)
(0.999753 -0.00990733 -2.69886e-25)
(0.998318 -0.00866186 -3.09064e-25)
(0.996833 -0.00825723 -6.77242e-25)
(0.995772 -0.00703282 -1.70855e-25)
(0.994924 -0.00644522 -1.04707e-25)
(0.994209 -0.00510774 -5.36363e-25)
(0.993842 -0.00476684 -2.30046e-25)
(0.993339 -0.00321671 -1.03361e-25)
(1.00293 -0.000216974 0)
(1.00317 -0.000438037 -2.87584e-26)
(1.00353 -0.000519413 -2.30143e-26)
(1.00399 -0.000711119 -9.83627e-27)
(1.00472 -0.000920546 1.57917e-25)
(1.00545 -0.00107257 -9.94356e-25)
(1.00667 -0.00168839 0)
(1.00781 -0.00161311 -2.58071e-25)
(1.00973 -0.00327143 0)
(1.01012 -0.00226085 0)
(1.01091 -0.00627546 -1.34863e-27)
(0.971168 -0.00266849 1.46313e-27)
(0.978847 -0.00956404 3.93094e-25)
(1.00462 -0.00598872 -1.60675e-25)
(1.00307 -0.00961858 -6.39431e-26)
(1.00224 -0.00775972 -2.99928e-26)
(0.999373 -0.00878331 4.79694e-26)
(0.997765 -0.00757772 -1.35005e-25)
(0.996127 -0.00748586 -1.79636e-25)
(0.995022 -0.00637819 3.01831e-25)
(0.994127 -0.00601467 -1.04906e-25)
(0.993441 -0.00479783 0)
(0.993063 -0.00458144 4.81715e-30)
(0.992631 -0.00318785 0)
(1.00308 -0.000290085 0)
(1.00331 -0.000558893 -3.85567e-26)
(1.0037 -0.000677501 -2.2773e-26)
(1.00417 -0.000885411 4.80636e-26)
(1.00497 -0.00117168 0)
(1.00574 -0.00128653 5.63415e-26)
(1.00708 -0.00201709 -7.47893e-25)
(1.00831 -0.00178668 -5.33014e-25)
(1.01035 -0.00355845 -4.32234e-26)
(1.01098 -0.00229518 -5.50673e-28)
(1.01151 -0.00603593 3.89183e-25)
(0.97235 -0.00265516 -2.74722e-25)
(0.979902 -0.00849206 5.0029e-25)
(1.00509 -0.00507143 -1.19516e-25)
(1.00343 -0.00857555 1.27853e-25)
(1.00222 -0.00659279 -2.48447e-27)
(0.999135 -0.00786816 -1.12717e-25)
(0.997363 -0.00664866 9.02923e-26)
(0.995582 -0.00681302 2.35267e-25)
(0.994424 -0.00577596 -4.45103e-30)
(0.993468 -0.00560329 -5.01929e-26)
(0.992795 -0.00448824 -3.33432e-25)
(0.992394 -0.00437668 1.72877e-25)
(0.992015 -0.00313058 1.59297e-25)
(1.00325 -0.00036701 -2.37387e-26)
(1.00348 -0.000670409 -4.58182e-26)
(1.0039 -0.00081788 -8.30022e-34)
(1.00438 -0.00102696 1.10078e-25)
(1.00523 -0.00137657 2.77796e-25)
(1.00604 -0.00143541 3.96552e-26)
(1.00746 -0.00225768 -7.39418e-25)
(1.00878 -0.0018796 -4.79983e-25)
(1.01088 -0.00371109 2.7114e-25)
(1.01168 -0.00228442 0)
(1.01196 -0.00576271 7.71519e-26)
(0.973232 -0.00257944 -9.72114e-26)
(0.980669 -0.00764274 1.56541e-25)
(1.00546 -0.00437375 -9.31475e-26)
(1.00373 -0.00772653 -5.42016e-31)
(1.00222 -0.00566695 -1.75083e-25)
(0.998982 -0.00711656 -9.23042e-26)
(0.997063 -0.00585965 -1.91828e-26)
(0.995158 -0.0062328 1.25945e-25)
(0.993945 -0.00523274 -1.79989e-25)
(0.992922 -0.00522124 -2.82562e-25)
(0.992252 -0.00418931 -1.40895e-25)
(0.99182 -0.00416473 -1.48951e-25)
(0.991481 -0.00305218 1.38907e-25)
(1.00345 -0.000446314 -3.14436e-34)
(1.00367 -0.000771865 -2.54164e-26)
(1.00411 -0.000941873 2.86092e-26)
(1.0046 -0.00114003 5.90907e-26)
(1.0055 -0.00154225 2.86683e-29)
(1.00634 -0.0015355 0)
(1.00783 -0.00243024 -2.31758e-26)
(1.00921 -0.00192162 -4.47061e-25)
(1.01133 -0.00377616 2.32055e-25)
(1.01226 -0.00224808 0)
(1.01231 -0.00548148 -1.77919e-30)
(0.973933 -0.00246938 7.41568e-26)
(0.981255 -0.00696011 -1.61113e-25)
(1.00575 -0.0038356 0)
(1.00399 -0.00702903 1.1264e-26)
(1.00223 -0.00492681 4.34038e-26)
(0.998882 -0.00649456 0)
(0.996833 -0.00519223 4.16178e-26)
(0.994823 -0.0057351 4.13687e-26)
(0.993556 -0.00474897 -4.63792e-25)
(0.992467 -0.00487284 -1.18385e-25)
(0.991794 -0.00390694 1.19508e-25)
(0.991328 -0.00395359 -1.53828e-25)
(0.991018 -0.00295843 0)
(1.00365 -0.00052722 2.73455e-26)
(1.00387 -0.000863682 -2.69798e-26)
(1.00433 -0.00105165 0)
(1.00483 -0.00122967 2.42676e-26)
(1.00577 -0.00167582 7.13528e-26)
(1.00663 -0.00160038 1.80754e-26)
(1.00816 -0.00255131 0)
(1.0096 -0.00193202 1.93829e-27)
(1.01172 -0.00378435 2.03399e-25)
(1.01274 -0.0021985 0)
(1.01258 -0.00521017 5.26229e-26)
(0.9745 -0.00234745 3.07744e-26)
(0.981704 -0.00640402 -1.09052e-25)
(1.006 -0.00341314 1.51365e-26)
(1.0042 -0.00645238 -3.85198e-26)
(1.00225 -0.0043321 -1.53755e-27)
(0.998816 -0.00597687 3.1538e-26)
(0.996651 -0.00462934 -1.18794e-26)
(0.994555 -0.00530931 4.5756e-28)
(0.993238 -0.00432211 -1.67057e-25)
(0.992086 -0.00455919 6.19033e-26)
(0.991407 -0.00364415 6.96959e-26)
(0.990906 -0.00374875 -2.47048e-26)
(0.990615 -0.00285384 -1.25247e-26)
(1.00385 -0.000609293 -2.70905e-27)
(1.00408 -0.000946936 -3.61507e-26)
(1.00456 -0.00114955 -6.51745e-27)
(1.00506 -0.00130081 0)
(1.00603 -0.00178378 5.53727e-25)
(1.00691 -0.00164087 0)
(1.00847 -0.00263428 -3.20293e-25)
(1.00995 -0.0019241 0)
(1.01206 -0.00375738 1.72553e-25)
(1.01314 -0.00214533 9.87972e-26)
(1.01278 -0.00495775 0)
(0.974964 -0.00223146 2.44701e-26)
(0.982056 -0.00594783 0)
(1.00619 -0.00307806 1.21286e-26)
(1.00437 -0.00597201 -1.04325e-26)
(1.00226 -0.00385253 0)
(0.998769 -0.00554397 0)
(0.996504 -0.00415633 -9.77817e-27)
(0.994337 -0.00494572 1.45192e-26)
(0.992973 -0.00394856 0)
(0.991764 -0.00427924 0)
(0.991075 -0.00340218 5.89212e-26)
(0.99054 -0.00355349 1.17745e-26)
(0.990263 -0.00274197 -4.68068e-26)
(1.00406 -0.000692272 2.73344e-27)
(1.00428 -0.00102291 2.55634e-27)
(1.00478 -0.00123781 0)
(1.00529 -0.00135793 -7.92487e-27)
(1.00628 -0.00187177 2.7815e-25)
(1.00718 -0.00166533 7.58579e-27)
(1.00875 -0.00269001 -2.85378e-25)
(1.01027 -0.00190737 -1.57298e-27)
(1.01235 -0.00371111 0)
(1.01347 -0.00209283 1.00328e-25)
(1.01291 -0.00473049 0)
(0.975349 -0.00213166 0)
(0.982345 -0.00556928 0)
(1.00635 -0.00280988 6.77417e-26)
(1.00451 -0.0055691 9.99514e-26)
(1.00226 -0.00346576 0)
(0.998733 -0.00518085 -2.7435e-27)
(0.996379 -0.0037608 0)
(0.994155 -0.00463575 0)
(0.992748 -0.00362401 0)
(0.991488 -0.00403103 0)
(0.990788 -0.00318171 -5.42431e-26)
(0.990222 -0.00336977 -4.4145e-26)
(0.989952 -0.00262604 7.54794e-31)
(1.00426 -0.000775907 0)
(1.00448 -0.00109282 1.38143e-26)
(1.00499 -0.00131829 -2.54146e-26)
(1.00551 -0.00140469 2.95343e-26)
(1.00652 -0.00194447 2.63644e-25)
(1.00743 -0.00168 5.30182e-25)
(1.00901 -0.00272706 0)
(1.01055 -0.00188856 0)
(1.0126 -0.003657 1.68346e-26)
(1.01376 -0.00204625 -1.80312e-27)
(1.01301 -0.00453238 -3.16368e-33)
(0.975674 -0.00204744 4.366e-26)
(0.982578 -0.00525193 1.46813e-25)
(1.00648 -0.00259526 5.40058e-26)
(1.00463 -0.00523395 3.33594e-27)
(1.00226 -0.00315336 0)
(0.998702 -0.00487656 -7.49157e-26)
(0.996269 -0.0034305 -9.69955e-26)
(0.993998 -0.00437201 0)
(0.992552 -0.00334316 -9.60051e-26)
(0.991247 -0.00381243 -8.42167e-41)
(0.990534 -0.00298173 1.32483e-25)
(0.989939 -0.00319892 8.19092e-26)
(0.989672 -0.00250811 6.62784e-26)
(1.00446 -0.00085984 -2.96969e-26)
(1.00468 -0.00115758 1.129e-26)
(1.0052 -0.00139238 -1.41356e-26)
(1.00572 -0.00144392 5.71295e-26)
(1.00674 -0.00200553 2.40443e-25)
(1.00766 -0.00168947 1.00186e-24)
(1.00924 -0.00275191 0)
(1.01081 -0.00187159 0)
(1.01283 -0.00360231 1.50239e-26)
(1.014 -0.00200912 0)
(1.01308 -0.00436326 0)
(0.975954 -0.00198101 0)
(0.982767 -0.00498799 0)
(1.00659 -0.00242635 -4.23044e-26)
(1.00472 -0.00495606 -6.47124e-26)
(1.00226 -0.00290244 -6.22215e-26)
(0.998672 -0.00462251 -1.19728e-25)
(0.99617 -0.00315639 -8.16449e-26)
(0.993861 -0.00414862 0)
(0.992377 -0.00310184 -2.39789e-26)
(0.991033 -0.00362134 0)
(0.990306 -0.00280164 0)
(0.989685 -0.0030417 3.7571e-26)
(0.989417 -0.00239011 2.84898e-26)
(1.00465 -0.000943492 -2.44299e-26)
(1.00487 -0.00121775 -1.60594e-26)
(1.0054 -0.00146087 -4.60718e-27)
(1.00592 -0.00147764 4.84378e-27)
(1.00695 -0.00205765 -6.70641e-34)
(1.00789 -0.00169705 4.71914e-25)
(1.00946 -0.00276936 0)
(1.01105 -0.00185897 -2.86108e-26)
(1.01304 -0.00355195 9.51557e-27)
(1.01422 -0.00198373 2.21498e-27)
(1.01312 -0.00422284 6.28153e-26)
(0.976197 -0.00193399 2.40048e-26)
(0.982921 -0.00477163 4.85363e-26)
(1.00668 -0.00229741 0)
(1.00479 -0.00472762 0)
(1.00225 -0.00270343 5.06962e-28)
(0.998643 -0.00441209 4.89543e-26)
(0.996077 -0.00293118 3.04067e-31)
(0.993737 -0.00396105 -4.40459e-26)
(0.992217 -0.00289653 0)
(0.990838 -0.00345589 0)
(0.990096 -0.00264098 1.44801e-26)
(0.989451 -0.00289869 0)
(0.989178 -0.0022739 0)
(1.00482 -0.00102597 0)
(1.00505 -0.00127325 -2.48839e-26)
(1.00559 -0.00152399 -1.71089e-26)
(1.00611 -0.00150691 -2.85303e-26)
(1.00715 -0.00210271 0)
(1.0081 -0.00170467 0)
(1.00966 -0.00278255 0)
(1.01127 -0.00185262 -2.89161e-26)
(1.01322 -0.00350972 0)
(1.0144 -0.00197202 -3.31257e-27)
(1.01314 -0.00411141 2.43235e-26)
(0.97641 -0.001908 6.55784e-27)
(0.983048 -0.00459871 3.78104e-26)
(1.00675 -0.00220459 4.57208e-26)
(1.00485 -0.00454294 4.08247e-26)
(1.00224 -0.00254916 0)
(0.99861 -0.00424012 -3.93342e-26)
(0.995987 -0.00274898 -4.47815e-26)
(0.993622 -0.00380569 0)
(0.992066 -0.00272426 0)
(0.990659 -0.00331477 0)
(0.989898 -0.00249956 1.37714e-26)
(0.989232 -0.00277057 0)
(0.988949 -0.00216137 0)
(1.00498 -0.0011058 1.30455e-27)
(1.00522 -0.00132347 -1.94242e-26)
(1.00576 -0.00158118 3.86831e-27)
(1.0063 -0.00153213 0)
(1.00734 -0.0021415 2.29797e-26)
(1.0083 -0.00171222 5.53197e-27)
(1.00985 -0.0027933 0)
(1.01147 -0.00185308 -1.37264e-26)
(1.0134 -0.00347769 5.16237e-27)
(1.01458 -0.0019753 -1.38794e-27)
(1.01316 -0.00403019 -2.43295e-27)
(0.976597 -0.00190497 6.67193e-28)
(0.983151 -0.0044666 5.54492e-26)
(1.0068 -0.00214541 7.33846e-28)
(1.00489 -0.00439768 -4.95067e-28)
(1.00221 -0.00243412 2.80959e-26)
(0.998574 -0.0041026 7.54257e-28)
(0.995897 -0.00260501 -3.23789e-27)
(0.993512 -0.00367956 0)
(0.99192 -0.00258266 -2.92238e-26)
(0.990488 -0.00319695 -2.71499e-26)
(0.989705 -0.00237751 0)
(0.989021 -0.00265834 3.36296e-26)
(0.988723 -0.00205468 9.91951e-27)
(1.00513 -0.00118067 0)
(1.00538 -0.00136704 -1.26662e-26)
(1.00592 -0.00163131 -5.11676e-27)
(1.00648 -0.00155339 -1.54769e-27)
(1.00751 -0.00217399 0)
(1.00849 -0.00171979 2.0952e-25)
(1.01003 -0.00280277 -5.24377e-26)
(1.01167 -0.00185992 -2.22689e-26)
(1.01356 -0.00345708 -2.40144e-27)
(1.01474 -0.00199444 5.3773e-27)
(1.01316 -0.00398251 6.30345e-27)
(0.976763 -0.00192828 -1.20765e-26)
(0.983237 -0.00437456 1.7791e-26)
(1.00684 -0.00211857 4.62441e-28)
(1.00492 -0.00428842 -2.25179e-26)
(1.00218 -0.00235373 -1.93232e-26)
(0.998535 -0.00399616 1.62884e-27)
(0.995804 -0.00249542 -3.33662e-27)
(0.993406 -0.0035806 0)
(0.991777 -0.00247018 -1.93728e-26)
(0.990326 -0.00310215 -2.1368e-26)
(0.989516 -0.00227565 0)
(0.988816 -0.00256357 1.07562e-26)
(0.988497 -0.00195668 -1.57489e-26)
(1.00526 -0.00124744 -9.28156e-27)
(1.00553 -0.00140222 1.08946e-26)
(1.00607 -0.00167279 -2.42502e-26)
(1.00666 -0.00156946 -1.19304e-27)
(1.00768 -0.00219961 1.61153e-26)
(1.00869 -0.00172668 2.19801e-25)
(1.0102 -0.00281093 -2.3414e-26)
(1.01188 -0.00187162 -6.86224e-27)
(1.01373 -0.00344785 3.6127e-28)
(1.01491 -0.00202838 1.50593e-26)
(1.01317 -0.00397324 9.65349e-28)
(0.976907 -0.00198253 1.38795e-26)
(0.983307 -0.00432242 -7.88599e-27)
(1.00685 -0.00212302 0)
(1.00494 -0.00421168 -1.46392e-26)
(1.00213 -0.00230351 -1.16908e-26)
(0.998493 -0.00391757 8.74639e-28)
(0.995701 -0.00241661 0)
(0.993303 -0.00350664 1.89806e-27)
(0.991625 -0.00238524 2.68589e-27)
(0.990165 -0.00302973 -1.5717e-26)
(0.989317 -0.00219483 -1.89924e-26)
(0.988607 -0.00248772 7.298e-27)
(0.988255 -0.00187075 0)
(1.00535 -0.0012985 -6.60528e-27)
(1.00566 -0.00142492 9.95086e-27)
(1.0062 -0.00170127 -8.9595e-27)
(1.00681 -0.00157829 0)
(1.00782 -0.00221594 0)
(1.00887 -0.0017311 -4.89272e-26)
(1.01035 -0.00281572 2.31687e-26)
(1.01207 -0.00188413 7.44882e-27)
(1.01387 -0.00344782 5.14602e-27)
(1.01507 -0.00207505 -2.93251e-27)
(1.01318 -0.00402254 -1.56885e-26)
(0.97702 -0.00208144 0)
(0.983362 -0.00431532 0)
(1.00685 -0.00216007 0)
(1.00495 -0.0041643 0)
(1.00208 -0.0022788 -1.04055e-27)
(0.998456 -0.00386518 0)
(0.995603 -0.00236736 0)
(0.993216 -0.00345755 1.64057e-27)
(0.991485 -0.00232935 0)
(0.990028 -0.00298139 0)
(0.989136 -0.00213923 0)
(0.988424 -0.00243528 6.51389e-27)
(0.988031 -0.00180489 0)
(1.00546 -0.00133429 0)
(1.00587 -0.00143781 -9.95844e-28)
(1.00635 -0.00171911 -2.67181e-27)
(1.00708 -0.00158205 -4.26532e-28)
(1.008 -0.00222547 3.73736e-27)
(1.00918 -0.00173373 -7.95785e-26)
(1.01054 -0.00281763 2.37773e-27)
(1.01239 -0.00189487 4.01579e-30)
(1.01409 -0.00345251 2.90792e-33)
(1.01541 -0.00211624 -5.32876e-31)
(1.01329 -0.00412571 -2.93627e-26)
(0.977093 -0.00222851 0)
(0.983416 -0.0043412 -1.1448e-26)
(1.00676 -0.00222261 -1.64879e-26)
(1.00494 -0.00413742 -2.3418e-27)
(1.00195 -0.00227084 -3.25243e-27)
(0.998421 -0.00383083 0)
(0.995416 -0.0023387 0)
(0.993111 -0.00342578 0)
(0.991242 -0.00229475 0)
(0.989842 -0.00295022 0)
(0.988832 -0.00210303 0)
(0.988154 -0.00240088 4.62312e-27)
(0.987655 -0.00175771 0)
(1.0727 -0.09412 1.88659e-26)
(1.12703 0.1305 7.16328e-26)
(1.01772 0.149656 2.94559e-25)
(1.11312 -0.0261057 -3.52994e-26)
(1.18444 0.0347455 -1.19331e-26)
(1.13864 0.12051 -5.8762e-26)
(1.09776 0.0371006 -1.56495e-26)
(1.16491 -0.0659005 -1.59836e-25)
(1.18615 0.0210891 -4.66445e-26)
(1.05493 0.0674218 -7.95995e-26)
(1.10199 -0.112557 2.30562e-25)
(1.15836 -0.074829 0)
(1.00959 0.062338 6.88339e-30)
(1.03495 -0.114277 -1.52644e-25)
(1.09317 -0.115258 1.47669e-25)
(0.983371 0.0340957 0)
(0.512238 0.0152719 -8.61372e-26)
(0.542833 -0.0458591 1.68773e-25)
(0.989891 -0.0786359 8.42187e-25)
(1.02744 -0.111608 -2.22566e-25)
(0.979386 -0.0985816 1.967e-25)
(0.909278 0.00614972 4.37342e-26)
(1.0025 0.142028 4.32659e-25)
(0.962318 0.0696969 1.02487e-24)
(1.04219 -0.0463545 -1.2719e-25)
(1.06826 -0.0839285 5.42448e-27)
(0.999472 -0.0943247 -2.50979e-25)
(1.08269 0.244529 0)
(0.953128 0.231046 -2.38189e-25)
(1.121 0.119051 0)
(1.08118 0.0665182 1.25975e-26)
(1.04417 0.076789 -1.42163e-24)
(1.06413 -0.0182458 1.288e-25)
(1.10582 -0.023987 -3.31392e-26)
(1.07598 -0.0776719 6.42678e-27)
(1.10083 -0.0623637 -6.25223e-27)
(1.13379 -0.0768113 6.05926e-27)
(1.10654 -0.121636 -8.78994e-27)
(1.20163 0.104195 7.72187e-26)
(1.17029 0.174553 3.01548e-26)
(1.17436 0.0329566 5.24728e-27)
(1.11224 0.0233045 -4.09383e-25)
(1.09179 0.0579954 1.51515e-25)
(1.06193 0.0134483 2.66789e-25)
(1.09337 0.0333269 1.36636e-26)
(1.10672 -0.0155899 -1.82657e-28)
(1.11112 0.00885947 2.15499e-30)
(1.1381 0.0221589 -3.31537e-26)
(1.14506 -0.0206527 -3.02646e-28)
(1.21508 -0.0269367 2.06802e-27)
(1.22227 0.0448943 -4.23155e-26)
(1.15851 -0.0551297 -1.81606e-25)