/*--------------------------------*- C++ -*----------------------------------*\
| =========                 |                                                 |
| \\      /  F ield         | OpenFOAM: The Open Source CFD Toolbox           |
|  \\    /   O peration     | Version:  5.x                                   |
|   \\  /    A nd           | Web:      www.OpenFOAM.org                      |
|    \\/     M anipulation  |                                                 |
\*---------------------------------------------------------------------------*/
FoamFile
{
    version     2.0;
    format      ascii;
    class       volScalarField;
    location    "600";
    object      xf;
}
// * * * * * * * * * * * * * * * * * * * * * * * * * * * * * * * * * * * * * //

dimensions      [0 0 0 0 0 0 0];

internalField   nonuniform List<scalar> 
6584
(
0.317357
0.317357
0.317357
0.317357
0.317357
0.317357
0.317357
0.317357
0.317358
0.317358
0.317358
0.317358
0.317358
0.317358
0.317358
0.317358
0.317357
0.317357
0.317357
0.317357
0.317356
0.317356
0.317356
0.317356
0.31701
0.317011
0.31701
0.317011
0.317011
0.317011
0.317012
0.317013
0.317013
0.317014
0.317014
0.317014
0.317014
0.317014
0.317014
0.317013
0.317013
0.317012
0.317012
0.317011
0.317011
0.31701
0.31701
0.31701
0.316664
0.316664
0.316664
0.316664
0.316665
0.316665
0.316666
0.316668
0.316669
0.316841
0.316841
0.316841
0.316841
0.316841
0.316841
0.316669
0.316668
0.316667
0.316666
0.316665
0.316665
0.316665
0.316664
0.316664
0.316318
0.316318
0.316318
0.316319
0.316319
0.31632
0.316321
0.316323
0.316324
0.316496
0.316495
0.316495
0.316495
0.316496
0.316496
0.316497
0.316322
0.316322
0.316321
0.31632
0.316319
0.316319
0.316318
0.316318
0.315972
0.315972
0.315973
0.315973
0.315974
0.315974
0.315975
0.315975
0.31615
0.31615
0.316148
0.316146
0.316146
0.316147
0.31615
0.31615
0.31615
0.315978
0.315976
0.315975
0.315974
0.315973
0.315973
0.315972
0.315626
0.315626
0.315627
0.315628
0.315629
0.315629
0.31563
0.315802
0.315801
0.3158
0.315885
0.315881
0.31588
0.315884
0.315802
0.315805
0.315806
0.315635
0.315632
0.315631
0.315629
0.315628
0.315627
0.315627
0.315281
0.315281
0.315282
0.315283
0.315284
0.315285
0.315287
0.315458
0.315456
0.315454
0.31553
0.315565
0.31556
0.315527
0.315543
0.315463
0.315464
0.315294
0.315289
0.315287
0.315285
0.315283
0.315282
0.315281
0.314935
0.314936
0.314937
0.314938
0.314939
0.314941
0.314945
0.315114
0.315113
0.315113
0.315182
0.315197
0.31521
0.3152
0.315126
0.315125
0.314955
0.314948
0.314944
0.314941
0.314939
0.314937
0.314936
0.31459
0.314591
0.314592
0.314594
0.314596
0.314598
0.314604
0.314773
0.314774
0.314778
0.314846
0.314861
0.314878
0.31487
0.314794
0.314789
0.314617
0.314606
0.314601
0.314598
0.314595
0.314593
0.314591
0.314245
0.314246
0.314248
0.314249
0.314252
0.314256
0.314263
0.314433
0.314436
0.314446
0.314519
0.314546
0.314574
0.314551
0.314465
0.314455
0.314279
0.314266
0.314259
0.314254
0.314251
0.314248
0.314246
0.3139
0.313901
0.313903
0.313905
0.313909
0.313913
0.313921
0.314093
0.314099
0.314113
0.314193
0.314232
0.314273
0.314234
0.314138
0.314122
0.313941
0.313926
0.313917
0.313911
0.313907
0.313903
0.313901
0.313555
0.313556
0.313558
0.313561
0.313565
0.313571
0.31358
0.313752
0.313762
0.313779
0.313864
0.313908
0.31396
0.313911
0.313808
0.313787
0.313602
0.313585
0.313575
0.313567
0.313562
0.313559
0.313556
0.31321
0.313212
0.313214
0.313217
0.313222
0.313228
0.313239
0.313411
0.313422
0.31344
0.313527
0.313569
0.313627
0.313579
0.313474
0.313451
0.313263
0.313244
0.313232
0.313223
0.313217
0.313214
0.31321
0.312865
0.312867
0.31287
0.312873
0.312878
0.312885
0.312896
0.312901
0.313079
0.313095
0.313177
0.313205
0.201506
0.313229
0.313239
0.313135
0.313111
0.312922
0.312902
0.312889
0.312879
0.312872
0.312868
0.312865
0.31252
0.312522
0.312525
0.312529
0.312534
0.312541
0.312551
0.312554
0.312731
0.312746
0.312828
0.312807
0.280229
0.312877
0.3128
0.312792
0.312589
0.312577
0.312556
0.312544
0.312535
0.312527
0.312522
0.312518
0.312175
0.312177
0.31218
0.312185
0.31219
0.312197
0.312205
0.312209
0.312385
0.312402
0.312397
0.312456
0.281795
0.312442
0.312454
0.312448
0.312246
0.312232
0.31221
0.312198
0.312188
0.31218
0.312175
0.312172
0.31183
0.311832
0.311835
0.31184
0.311846
0.311852
0.31186
0.311865
0.311875
0.312058
0.312052
0.311677
0.296468
0.312092
0.312107
0.312102
0.3119
0.311887
0.311865
0.311851
0.311841
0.311833
0.311828
0.311823
0.311485
0.311487
0.31149
0.311495
0.311501
0.311506
0.311515
0.311521
0.311531
0.311538
0.311707
0.311119
0.296377
0.311743
0.311592
0.311573
0.311554
0.311541
0.311518
0.311504
0.311494
0.311485
0.31148
0.311475
0.311139
0.311142
0.311145
0.31115
0.311156
0.311161
0.311171
0.311178
0.311188
0.311194
0.311131
0.29569
0.303682
0.31123
0.311245
0.311227
0.311208
0.311194
0.311172
0.311157
0.311146
0.311138
0.311133
0.311127
0.310794
0.310797
0.3108
0.310805
0.310811
0.310817
0.310827
0.310835
0.310845
0.31085
0.310739
0.295386
0.303362
0.310881
0.310899
0.310881
0.310861
0.310848
0.310825
0.31081
0.310799
0.31079
0.310784
0.310778
0.310449
0.310452
0.310455
0.310461
0.310467
0.310472
0.310484
0.310491
0.310502
0.310506
0.31035
0.295077
0.303037
0.310533
0.310553
0.310536
0.310515
0.310501
0.310478
0.310463
0.310451
0.310442
0.310436
0.31043
0.310104
0.310107
0.31011
0.310116
0.310122
0.310128
0.31014
0.310148
0.31016
0.310163
0.309964
0.294765
0.302708
0.310184
0.310208
0.31019
0.310169
0.310155
0.310131
0.310115
0.310103
0.310094
0.310088
0.310081
0.309758
0.309762
0.309765
0.309771
0.309778
0.309785
0.309797
0.309805
0.309817
0.309819
0.30958
0.29445
0.302375
0.309835
0.309862
0.309845
0.309823
0.309808
0.309784
0.309767
0.309755
0.309745
0.309739
0.309732
0.309413
0.309416
0.309421
0.309426
0.309434
0.309441
0.309454
0.309462
0.309475
0.309476
0.309198
0.294133
0.30204
0.309486
0.309517
0.309499
0.309476
0.309461
0.309436
0.30942
0.309407
0.309397
0.309391
0.309384
0.309068
0.309071
0.309076
0.309082
0.309089
0.309097
0.30911
0.30912
0.309133
0.309133
0.308819
0.293814
0.301703
0.309137
0.309172
0.309154
0.30913
0.309115
0.309089
0.309072
0.309059
0.309049
0.309042
0.309035
0.308723
0.308726
0.308731
0.308737
0.308745
0.308753
0.308767
0.308777
0.30879
0.308789
0.308436
0.293496
0.301366
0.308788
0.308827
0.308809
0.308784
0.308768
0.308742
0.308724
0.308711
0.3087
0.308693
0.308686
0.308378
0.308382
0.308386
0.308393
0.308401
0.308409
0.308424
0.308434
0.308448
0.308446
0.308051
0.293179
0.301033
0.308441
0.308482
0.308464
0.308439
0.308422
0.308395
0.308377
0.308363
0.308352
0.308345
0.308338
0.308033
0.308037
0.308041
0.308048
0.308057
0.308066
0.308081
0.308092
0.308107
0.308103
0.307668
0.292861
0.300698
0.308094
0.308138
0.30812
0.308093
0.308076
0.308049
0.30803
0.308016
0.308005
0.307997
0.30799
0.307688
0.307692
0.307697
0.307704
0.307713
0.307722
0.307738
0.307749
0.307765
0.30776
0.307286
0.292543
0.300362
0.307747
0.307794
0.307775
0.307748
0.30773
0.307702
0.307683
0.307668
0.307657
0.307649
0.307642
0.307343
0.307347
0.307352
0.307359
0.307369
0.307379
0.307396
0.307407
0.307424
0.307417
0.306906
0.292223
0.300025
0.3074
0.307449
0.307431
0.307402
0.307384
0.307355
0.307336
0.30732
0.307309
0.307301
0.307294
0.306998
0.307002
0.307008
0.307015
0.307025
0.307035
0.307053
0.307065
0.307082
0.307074
0.306526
0.291903
0.299687
0.307053
0.307105
0.307086
0.307057
0.307038
0.307009
0.306988
0.306973
0.306961
0.306953
0.306945
0.306654
0.306658
0.306663
0.306671
0.306681
0.306692
0.306711
0.306723
0.306741
0.30673
0.306148
0.291583
0.29935
0.306706
0.306761
0.306741
0.306712
0.306692
0.306662
0.306641
0.306625
0.306613
0.306604
0.306597
0.306309
0.306313
0.306319
0.306327
0.306337
0.306349
0.306369
0.306382
0.306399
0.306387
0.305769
0.291262
0.299011
0.306359
0.306416
0.306397
0.306366
0.306346
0.306315
0.306294
0.306277
0.306264
0.306256
0.306249
0.305964
0.305968
0.305974
0.305982
0.305993
0.306006
0.306026
0.30604
0.306058
0.306044
0.305391
0.290941
0.298673
0.306011
0.306072
0.306052
0.306021
0.306
0.305968
0.305946
0.305929
0.305916
0.305908
0.3059
0.305619
0.305624
0.30563
0.305638
0.30565
0.305663
0.305684
0.305698
0.305717
0.3057
0.305012
0.29062
0.298335
0.305664
0.305728
0.305708
0.305675
0.305654
0.305621
0.305599
0.305581
0.305568
0.305559
0.305552
0.305275
0.305279
0.305286
0.305294
0.305306
0.305321
0.305342
0.305356
0.305375
0.305357
0.304633
0.290299
0.297997
0.305318
0.305384
0.305363
0.30533
0.305307
0.305274
0.305251
0.305233
0.30522
0.305211
0.305203
0.314901
0.314914
0.315202
0.314585
0.314611
0.314875
0.314272
0.314311
0.314573
0.313949
0.314001
0.314274
0.313612
0.313671
0.313961
0.31325
0.189786
0.197756
0.313321
0.313629
0.315242
0.315559
0.315246
0.315567
0.314929
0.314907
0.315206
0.31503
0.315191
0.314918
0.314946
0.315193
0.314601
0.314587
0.314866
0.314742
0.314622
0.314834
0.314347
0.314801
0.314611
0.314628
0.314865
0.314275
0.314272
0.314548
0.314429
0.314038
0.314214
0.309946
0.312363
0.314311
0.314314
0.31455
0.313947
0.313949
0.314232
0.314112
0.313855
0.313926
0.312509
0.310743
0.314
0.313996
0.314235
0.313071
0.313325
0.31367
0.313668
0.313915
0.312867
0.313002
0.312895
0.221583
0.19018
0.255779
0.312953
0.313274
0.31486
0.315017
0.315025
0.315011
0.314817
0.315192
0.315032
0.31482
0.315019
0.315032
0.315016
0.314856
0.314253
0.314579
0.314703
0.3143
0.313297
0.314774
0.314354
0.312528
0.314323
0.314723
0.314508
0.313957
0.31484
0.314527
0.314761
0.313935
0.314022
0.31439
0.312946
0.313222
0.313251
0.312937
0.310694
0.309808
0.314424
0.313603
0.313599
0.313939
0.313624
0.314462
0.312913
0.313146
0.313243
0.312871
0.31331
0.312625
0.314119
0.313721
0.313797
0.313593
0.313709
0.314158
0.313277
0.313268
0.313169
0.313271
0.313016
0.313072
0.313785
0.313676
0.313839
0.313172
0.312798
0.313261
0.313187
0.312565
0.312844
0.315067
0.315039
0.315201
0.315069
0.315174
0.313612
0.313611
0.313907
0.313783
0.313655
0.313755
0.306158
0.303295
0.313321
0.31333
0.313584
0.315181
0.315079
0.315199
0.315036
0.315074
0.313767
0.313845
0.314072
0.219707
0.235001
0.282438
0.289938
0.235818
0.253817
0.302751
0.297801
0.313797
0.313658
0.313513
0.290836
0.295378
0.313491
0.313321
0.313499
0.315385
0.315367
0.315217
0.315216
0.315368
0.315385
0.315055
0.315097
0.315063
0.315181
0.315076
0.315119
0.314528
0.314616
0.31137
0.311488
0.311933
0.3117
0.313049
0.297829
0.313375
0.308398
0.306484
0.306812
0.30858
0.312949
0.313731
0.314944
0.311228
0.314558
0.310494
0.314917
0.314661
0.315072
0.315099
0.315046
0.314083
0.314923
0.314936
0.313741
0.313678
0.314639
0.314609
0.313298
0.313395
0.314069
0.314655
0.314713
0.314579
0.314636
0.314056
0.314709
0.314811
0.314871
0.314733
0.314792
0.314672
0.31308
0.313094
0.313008
0.312985
0.308085
0.308335
0.313422
0.314358
0.314413
0.314285
0.31434
0.313405
0.313816
0.314504
0.31456
0.314431
0.314486
0.313797
0.221398
0.313029
0.239819
0.223
0.259139
0.240864
0.313061
0.312684
0.224875
0.31273
0.313126
0.313076
0.313641
0.314211
0.314267
0.314136
0.314193
0.313665
0.2712
0.280819
0.313227
0.274559
0.260414
0.28616
0.276117
0.313241
0.255573
0.26969
0.313051
0.30342
0.306472
0.298408
0.302822
0.313059
0.296613
0.294573
0.296132
0.212211
0.295897
0.293938
0.229973
0.308354
0.308574
0.315151
0.313268
0.313255
0.313568
0.313439
0.31338
0.313505
0.249809
0.3118
0.312187
0.315153
0.313517
0.313639
0.31374
0.221791
0.224502
0.173193
0.293558
0.293052
0.227655
0.233015
0.307333
0.308289
0.146771
0.315273
0.31528
0.315195
0.31519
0.31528
0.315274
0.314724
0.314788
0.314727
0.314389
0.314379
0.31472
0.314097
0.31447
0.314412
0.314548
0.31449
0.314121
0.310639
0.312024
0.312247
0.310837
0.288222
0.284324
0.31293
0.308767
0.310009
0.312236
0.312096
0.218763
0.315122
0.315089
0.315189
0.314864
0.314613
0.31444
0.314952
0.314973
0.315036
0.314891
0.314952
0.31493
0.314384
0.314627
0.314568
0.314707
0.314647
0.31443
0.314052
0.304337
0.3103
0.300238
0.301171
0.313449
0.310895
0.31154
0.314475
0.312846
0.313735
0.314266
0.314651
0.314673
0.31451
0.314543
0.314
0.314393
0.314335
0.313981
0.313016
0.298017
0.294741
0.313129
0.298894
0.29998
0.294166
0.294754
0.31293
0.309645
0.308979
0.313511
0.314321
0.314346
0.314199
0.314252
0.313528
0.31389
0.314468
0.314499
0.314355
0.314381
0.313706
0.313242
0.306917
0.308115
0.305602
0.304795
0.312852
0.313838
0.31406
0.314118
0.313981
0.314041
0.31383
0.313283
0.293601
0.287253
0.300569
0.298679
0.313281
0.249391
0.25212
0.313236
0.302615
0.301147
0.246048
0.248602
0.293069
0.289245
0.315112
0.315151
0.315127
0.284245
0.305093
0.286319
0.288434
0.287602
0.304725
0.315137
0.315118
0.315163
0.315098
0.315122
0.22154
0.226613
0.224159
0.222363
0.286055
0.234591
0.23225
0.240547
0.235273
0.287013
0.240468
0.243989
0.300882
0.300042
0.293107
0.248843
0.243422
0.233496
0.236225
0.31501
0.315049
0.315088
0.314994
0.315037
0.314991
0.314405
0.314701
0.310767
0.311905
0.312203
0.310935
0.298914
0.308431
0.307581
0.309326
0.308702
0.298701
0.305659
0.304924
0.307325
0.306107
0.307728
0.294451
0.296896
0.2901
0.293251
0.307445
0.282223
0.283419
0.312863
0.314847
0.314707
0.314986
0.314888
0.313286
0.313936
0.313658
0.31461
0.314052
0.314968
0.315051
0.315005
0.314933
0.314841
0.314829
0.314652
0.314879
0.31472
0.314914
0.314979
0.314759
0.314889
0.314973
0.314926
0.314848
0.30244
0.303452
0.31396
0.293824
0.28948
0.305248
0.294665
0.283206
0.279088
0.288152
0.285054
0.313504
0.301507
0.302193
0.310259
0.309062
0.313516
0.311258
0.307727
0.306525
0.308852
0.30804
0.314511
0.311691
0.312117
0.312952
0.313678
0.314601
0.314638
0.314168
0.314015
0.314555
0.314589
0.298911
0.29858
0.313036
0.273225
0.27351
0.255603
0.271066
0.272358
0.27759
0.273188
0.272365
0.297309
0.298538
0.313094
0.272361
0.267901
0.278155
0.273687
0.259145
0.254726
0.266115
0.26141
0.312945
0.295377
0.296816
0.308894
0.308767
0.314289
0.314313
0.313487
0.313472
0.31426
0.314281
0.314428
0.314457
0.313873
0.313726
0.31439
0.314418
0.224485
0.230513
0.299047
0.301277
0.296082
0.298244
0.224703
0.251966
0.30418
0.30015
0.301874
0.303633
0.248112
0.28591
0.287274
0.280612
0.285391
0.230691
0.293127
0.295482
0.28802
0.291863
0.230905
0.30598
0.306642
0.313219
0.302765
0.304228
0.304575
0.302691
0.304268
0.312898
0.304343
0.305358
0.275061
0.219795
0.221044
0.230358
0.220732
0.276451
0.224419
0.260742
0.221593
0.263108
0.300688
0.310046
0.309522
0.310675
0.310222
0.301061
0.294712
0.295406
0.253429
0.256428
0.238432
0.244901
0.295713
0.29396
0.315255
0.315278
0.315537
0.313455
0.313335
0.313139
0.315223
0.315228
0.315174
0.315164
0.315225
0.315222
0.315382
0.315374
0.315224
0.314869
0.314808
0.314754
0.314362
0.31381
0.313727
0.310132
0.312247
0.314238
0.314179
0.313894
0.308021
0.307598
0.310767
0.308368
0.30894
0.313352
0.314931
0.314952
0.31489
0.314329
0.314517
0.314854
0.314993
0.314945
0.314985
0.314742
0.313456
0.314247
0.312634
0.313639
0.313534
0.314263
0.314274
0.314286
0.313971
0.314698
0.314721
0.314571
0.313969
0.314315
0.314257
0.300438
0.299115
0.313158
0.310577
0.308621
0.308425
0.30967
0.313582
0.314086
0.314095
0.313923
0.31425
0.314261
0.314104
0.314113
0.313648
0.312599
0.302506
0.301119
0.313567
0.314168
0.314183
0.313744
0.3139
0.31396
0.217895
0.217726
0.304143
0.303049
0.313224
0.218379
0.21811
0.310115
0.310339
0.312765
0.315081
0.315078
0.218561
0.218496
0.220064
0.233795
0.236701
0.2154
0.216882
0.231119
0.228594
0.251384
0.294111
0.293376
0.298548
0.253149
0.249763
0.293722
0.315291
0.315284
0.315197
0.315032
0.315042
0.315055
0.315071
0.314944
0.314965
0.315102
0.315142
0.31512
0.314227
0.314183
0.314465
0.314658
0.314525
0.314447
0.31109
0.311605
0.308746
0.309011
0.312078
0.311406
0.307475
0.308147
0.299794
0.299914
0.302964
0.30254
0.297826
0.300216
0.300548
0.31336
0.309185
0.309859
0.313416
0.312031
0.313899
0.31367
0.314826
0.314728
0.314347
0.307772
0.306796
0.313094
0.311459
0.309153
0.315086
0.315063
0.315008
0.315012
0.314918
0.314973
0.31436
0.314856
0.31491
0.312258
0.312998
0.31472
0.305511
0.304327
0.3132
0.31349
0.314791
0.314813
0.31477
0.314588
0.314744
0.314767
0.313141
0.298982
0.298887
0.308047
0.308481
0.314183
0.314193
0.313834
0.313771
0.314162
0.314172
0.223132
0.238483
0.264718
0.266212
0.24841
0.249656
0.221338
0.30346
0.302758
0.312641
0.231032
0.228813
0.243226
0.243326
0.226933
0.247028
0.247678
0.227338
0.228025
0.314138
0.314153
0.31357
0.313688
0.314108
0.314123
0.267696
0.302504
0.303244
0.300939
0.301718
0.265271
0.304812
0.310309
0.310796
0.310613
0.31047
0.305285
0.299345
0.304116
0.303522
0.295335
0.294376
0.296708
0.221511
0.224579
0.225142
0.21978
0.297288
0.26005
0.254908
0.264342
0.261281
0.293251
0.28076
0.281316
0.297559
0.299659
0.309002
0.315142
0.315155
0.315128
0.221547
0.222277
0.251581
0.250158
0.170394
0.230729
0.22453
0.224725
0.222389
0.223607
0.232259
0.147567
0.293874
0.29558
0.315236
0.315229
0.315172
0.313971
0.313892
0.314375
0.314239
0.314466
0.314632
0.314379
0.314429
0.310411
0.312135
0.3055
0.305959
0.305904
0.305449
0.310792
0.30727
0.307038
0.287353
0.281163
0.280976
0.282109
0.281912
0.286251
0.314567
0.314735
0.314751
0.314692
0.314719
0.314517
0.312739
0.314114
0.313431
0.31319
0.313986
0.314298
0.31431
0.308699
0.308749
0.310291
0.30927
0.314069
0.314077
0.313545
0.314227
0.314238
0.313906
0.31368
0.314122
0.314132
0.305591
0.307248
0.306612
0.307712
0.307549
0.305397
0.217684
0.218036
0.219288
0.218719
0.246965
0.23064
0.229962
0.282255
0.282274
0.291897
0.284148
0.285735
0.281342
0.282514
0.290539
0.315104
0.315094
0.315098
0.315103
0.31514
0.315144
0.31516
0.315117
0.315128
0.315128
0.285862
0.295768
0.295145
0.297534
0.296614
0.286613
0.290064
0.292873
0.291642
0.294652
0.294015
0.289026
0.315129
0.315137
0.315123
0.315049
0.315007
0.315103
0.315087
0.218596
0.231421
0.221238
0.221245
0.223621
0.222999
0.248863
0.250303
0.233297
0.215263
0.214466
0.238079
0.220087
0.219364
0.21981
0.247955
0.223753
0.218678
0.294842
0.296015
0.301622
0.291866
0.29217
0.291078
0.291277
0.299234
0.293101
0.293623
0.233992
0.219847
0.22109
0.218996
0.218945
0.234789
0.315028
0.315041
0.315027
0.314953
0.314981
0.315013
0.313918
0.314428
0.314123
0.314048
0.314243
0.314308
0.314098
0.314175
0.310898
0.311728
0.30666
0.30687
0.30619
0.306429
0.312154
0.30913
0.3092
0.306936
0.307084
0.311129
0.306916
0.300945
0.300089
0.298235
0.302192
0.301741
0.305344
0.300953
0.300844
0.302283
0.301518
0.305132
0.307017
0.303015
0.303461
0.30134
0.302214
0.306596
0.300654
0.291138
0.299004
0.298352
0.281561
0.282176
0.312687
0.3141
0.314
0.312449
0.313652
0.314481
0.314254
0.309341
0.30852
0.312143
0.312332
0.313758
0.311054
0.310214
0.314648
0.314775
0.314974
0.31487
0.314479
0.313995
0.314461
0.314795
0.314855
0.314877
0.314775
0.31481
0.314681
0.314532
0.314676
0.314934
0.314888
0.314854
0.314956
0.314907
0.314954
0.314792
0.314821
0.31475
0.314825
0.292753
0.291009
0.302253
0.288629
0.290195
0.285514
0.295446
0.28161
0.280239
0.287023
0.286086
0.309651
0.30413
0.305441
0.30158
0.302799
0.309304
0.313253
0.311222
0.311835
0.306206
0.309778
0.312627
0.303227
0.301127
0.307413
0.293861
0.295026
0.291931
0.29288
0.307064
0.308642
0.299606
0.300523
0.29637
0.297899
0.308351
0.313101
0.313602
0.273905
0.256638
0.259175
0.251318
0.253836
0.273812
0.25972
0.260371
0.260292
0.265772
0.273113
0.238024
0.240278
0.242614
0.238469
0.27485
0.272892
0.247008
0.249045
0.243019
0.245201
0.272624
0.271304
0.270003
0.277162
0.275282
0.257178
0.255482
0.264624
0.263417
0.308344
0.30862
0.313852
0.314204
0.314216
0.314141
0.314151
0.313746
0.224462
0.259279
0.262524
0.235888
0.221321
0.251951
0.255419
0.235995
0.233425
0.286323
0.25797
0.258037
0.283058
0.254548
0.248884
0.257891
0.257003
0.28456
0.241767
0.238772
0.2433
0.245868
0.229034
0.231535
0.2377
0.306287
0.309478
0.309251
0.309787
0.309637
0.306463
0.303247
0.303917
0.303891
0.302638
0.302575
0.303143
0.304267
0.308129
0.307874
0.30891
0.308502
0.304679
0.219937
0.234333
0.235602
0.23253
0.23342
0.220448
0.226827
0.24389
0.246794
0.237645
0.240584
0.223299
0.223943
0.217101
0.218087
0.218329
0.217493
0.222167
0.229177
0.231312
0.221053
0.22515
0.221936
0.305013
0.304628
0.300206
0.294617
0.296211
0.219409
0.221935
0.240984
0.224074
0.220777
0.229017
0.227317
0.243265
0.220194
0.219903
0.2814
0.281536
0.315974
0.315972
0.316147
0.31597
0.315969
0.316146
0.315969
0.315969
0.316146
0.315972
0.315975
0.316148
0.315625
0.315622
0.315798
0.315619
0.315615
0.315884
0.315611
0.315606
0.31588
0.315607
0.315613
0.315881
0.315617
0.315623
0.315887
0.315629
0.315632
0.315803
0.315283
0.315275
0.315535
0.315268
0.315251
0.315524
0.315425
0.315422
0.315564
0.315411
0.315417
0.315559
0.315436
0.315442
0.315529
0.315285
0.315294
0.315462
0.314945
0.314935
0.315189
0.315097
0.315095
0.31518
0.315153
0.315149
0.315194
0.315081
0.3151
0.315227
0.314952
0.314963
0.315127
0.314612
0.314605
0.314852
0.314764
0.314764
0.314846
0.314821
0.314821
0.314861
0.314763
0.314777
0.314896
0.31463
0.314638
0.3148
0.31428
0.314277
0.314523
0.314438
0.314441
0.314521
0.314507
0.314507
0.314546
0.314462
0.314468
0.314583
0.314313
0.314314
0.314476
0.313946
0.313947
0.314195
0.314112
0.314117
0.314198
0.314192
0.314194
0.314234
0.314158
0.314156
0.314274
0.313993
0.313988
0.314151
0.31361
0.313611
0.313863
0.313866
0.313868
0.313909
0.313838
0.313831
0.313953
0.313663
0.313657
0.313823
0.313269
0.313269
0.313526
0.313497
0.313501
0.313585
0.313324
0.313321
0.31349
0.312919
0.312911
0.313086
0.312915
0.312902
0.313165
0.313072
0.312975
0.313112
0.212729
0.305351
0.306008
0.312966
0.312984
0.313244
0.312974
0.312981
0.313151
0.312574
0.312567
0.312739
0.31257
0.312553
0.312815
0.312544
0.252972
0.25211
0.281472
0.312594
0.312863
0.312611
0.312634
0.312893
0.312626
0.312634
0.312807
0.312225
0.312215
0.312389
0.311974
0.280605
0.253198
0.296494
0.312114
0.312503
0.312267
0.312286
0.31246
0.314901
0.314941
0.314942
0.314952
0.314967
0.314903
0.315199
0.315156
0.315158
0.314585
0.314624
0.314624
0.314648
0.314647
0.31459
0.314882
0.314821
0.314837
0.314273
0.314313
0.314311
0.314349
0.31435
0.314294
0.314571
0.314516
0.314536
0.313951
0.313992
0.31399
0.314041
0.314047
0.31399
0.314276
0.31422
0.314235
0.313714
0.313707
0.313665
0.313951
0.313911
0.313921
0.313157
0.313337
0.313393
0.170221
0.241637
0.241726
0.272769
0.272984
0.148354
0.313623
0.31358
0.313586
0.315225
0.315373
0.315379
0.31518
0.315179
0.315166
0.31556
0.315416
0.315411
0.315177
0.31518
0.315291
0.315288
0.315242
0.315565
0.315423
0.315428
0.314928
0.315011
0.315013
0.315032
0.315008
0.314926
0.315176
0.315092
0.315075
0.315052
0.315046
0.315007
0.315186
0.315161
0.315166
0.314936
0.315058
0.315039
0.315027
0.315027
0.314947
0.315191
0.315109
0.31511
0.314602
0.314683
0.314682
0.314706
0.314684
0.314604
0.314845
0.314764
0.314746
0.314742
0.314781
0.314781
0.314658
0.314717
0.314693
0.314853
0.314831
0.314809
0.314744
0.314678
0.314773
0.314622
0.314738
0.314724
0.314707
0.314711
0.314634
0.314868
0.314789
0.314786
0.31428
0.31436
0.314357
0.314391
0.314364
0.314284
0.314524
0.314444
0.31443
0.31443
0.314469
0.314468
0.314056
0.314338
0.314319
0.314463
0.31444
0.314179
0.314313
0.314429
0.314424
0.314393
0.314401
0.314323
0.314556
0.314479
0.314471
0.313953
0.314035
0.314029
0.314072
0.314041
0.313958
0.314203
0.314122
0.314112
0.314114
0.314154
0.314152
0.313884
0.314159
0.3141
0.314159
0.314142
0.313915
0.312395
0.309592
0.309922
0.313995
0.314115
0.314119
0.314076
0.314086
0.314006
0.314245
0.314166
0.314156
0.313067
0.310668
0.311029
0.312375
0.312431
0.313336
0.313669
0.313752
0.313797
0.313751
0.313761
0.313677
0.313925
0.313843
0.313833
0.312889
0.312147
0.312142
0.312112
0.312127
0.312985
0.312834
0.312929
0.312983
0.219459
0.312044
0.311854
0.29316
0.293184
0.191993
0.311652
0.311761
0.251487
0.313042
0.312717
0.312727
0.313066
0.312766
0.313138
0.314885
0.314896
0.314875
0.315037
0.314973
0.314953
0.314983
0.314982
0.315023
0.314989
0.314955
0.315011
0.315168
0.315164
0.315189
0.315026
0.315049
0.315054
0.314836
0.314795
0.314776
0.315017
0.315004
0.315008
0.31503
0.314988
0.314991
0.314995
0.315
0.315022
0.314876
0.314896
0.314884
0.314294
0.314512
0.314487
0.314668
0.314642
0.31453
0.314663
0.314663
0.314702
0.314232
0.313581
0.313763
0.311572
0.311653
0.313344
0.313884
0.313972
0.314399
0.314723
0.314666
0.314685
0.314477
0.314586
0.314607
0.314786
0.314834
0.314855
0.314623
0.314638
0.314542
0.314799
0.314802
0.314743
0.313945
0.314194
0.314176
0.314301
0.314283
0.314008
0.31435
0.314352
0.314391
0.312971
0.310997
0.310927
0.311698
0.311629
0.313198
0.313208
0.311423
0.311496
0.310881
0.310858
0.312925
0.314424
0.314368
0.314387
0.314042
0.314043
0.313595
0.314499
0.314497
0.314442
0.312954
0.307419
0.306577
0.310709
0.310542
0.31312
0.313265
0.311836
0.311768
0.306313
0.305379
0.312826
0.31329
0.312223
0.312307
0.310283
0.310579
0.312726
0.314124
0.314066
0.31408
0.313741
0.314045
0.314061
0.313943
0.313961
0.313808
0.313583
0.314034
0.314039
0.314077
0.314093
0.313687
0.314197
0.314201
0.314144
0.313281
0.31192
0.311837
0.312271
0.312227
0.313274
0.313191
0.311015
0.310865
0.311747
0.311647
0.313263
0.313029
0.312068
0.312093
0.311135
0.311405
0.313071
0.313771
0.313907
0.313925
0.313818
0.313879
0.313727
0.31388
0.313871
0.31383
0.313119
0.305152
0.304446
0.302922
0.304577
0.313076
0.313254
0.312344
0.31231
0.312725
0.310356
0.310333
0.315065
0.315107
0.31511
0.315106
0.315124
0.315058
0.31519
0.315145
0.315129
0.315168
0.315152
0.315158
0.313739
0.313707
0.313622
0.313875
0.313792
0.313782
0.313784
0.313826
0.313825
0.313701
0.313811
0.31377
0.313893
0.313852
0.313715
0.305808
0.302018
0.302585
0.298319
0.299183
0.30383
0.313329
0.313415
0.313454
0.315166
0.315161
0.315177
0.31506
0.315083
0.315094
0.315126
0.315147
0.315215
0.315058
0.315124
0.315103
0.315116
0.315113
0.315071
0.313803
0.313999
0.313933
0.314079
0.31402
0.313814
0.314031
0.314033
0.314073
0.283809
0.267801
0.266345
0.27539
0.27392
0.288951
0.302213
0.296773
0.297482
0.31379
0.313748
0.313756
0.313599
0.313735
0.313797
0.313649
0.313713
0.313578
0.29169
0.27824
0.276857
0.284148
0.28324
0.294842
0.313419
0.313565
0.313607
0.313478
0.313522
0.313395
0.313542
0.313537
0.313493
0.315388
0.315308
0.315303
0.315317
0.315313
0.315391
0.315203
0.315286
0.315292
0.315241
0.315238
0.315212
0.315391
0.315312
0.315317
0.315303
0.315308
0.315387
0.315099
0.315059
0.315074
0.315135
0.315155
0.315181
0.315084
0.315098
0.315089
0.315142
0.315137
0.315113
0.310026
0.310518
0.313059
0.313372
0.312666
0.312702
0.308203
0.305589
0.305907
0.303112
0.303571
0.30678
0.307697
0.31085
0.31074
0.311031
0.310947
0.307937
0.312968
0.312137
0.312144
0.31485
0.314932
0.314967
0.314887
0.314584
0.314807
0.314749
0.314928
0.314881
0.315083
0.315069
0.315052
0.315076
0.315071
0.315093
0.314906
0.314889
0.31491
0.314949
0.314935
0.314921
0.312328
0.31245
0.313806
0.313619
0.312118
0.312219
0.314415
0.314477
0.314668
0.314578
0.314296
0.314356
0.314378
0.314396
0.314087
0.314674
0.31466
0.314639
0.314701
0.31468
0.314694
0.314598
0.31458
0.31456
0.314619
0.3146
0.314617
0.314044
0.31435
0.314363
0.314757
0.314773
0.314734
0.314831
0.314823
0.314803
0.314863
0.314843
0.314851
0.314752
0.314742
0.314722
0.314783
0.314762
0.314772
0.314636
0.314717
0.314737
0.311324
0.311291
0.313066
0.313109
0.311394
0.311358
0.311049
0.311103
0.313034
0.31297
0.310956
0.310999
0.314038
0.314045
0.313442
0.314376
0.314356
0.314338
0.314392
0.314374
0.314395
0.314303
0.314285
0.314267
0.31432
0.314303
0.314322
0.313401
0.314028
0.314032
0.314523
0.314503
0.314484
0.314541
0.314522
0.314541
0.314449
0.314429
0.31441
0.314465
0.314447
0.314468
0.309961
0.307706
0.312994
0.257546
0.279088
0.280713
0.26748
0.268869
0.242277
0.313091
0.310352
0.310157
0.312778
0.304971
0.303755
0.311655
0.311775
0.313166
0.313015
0.311317
0.311497
0.314021
0.31402
0.313612
0.31423
0.314213
0.314195
0.314249
0.314231
0.314248
0.314155
0.314141
0.314123
0.314177
0.314159
0.314174
0.313681
0.314019
0.31402
0.272518
0.253351
0.252016
0.264573
0.26246
0.279424
0.311297
0.31116
0.31321
0.272637
0.290567
0.291738
0.282032
0.283382
0.261719
0.281918
0.305085
0.305617
0.303899
0.304505
0.280372
0.313253
0.311537
0.311422
0.257102
0.233784
0.232573
0.250379
0.248077
0.267837
0.312003
0.312038
0.313041
0.303896
0.307135
0.306817
0.308953
0.308733
0.306115
0.306452
0.30606
0.302147
0.313065
0.31191
0.31196
0.29517
0.268186
0.265278
0.27166
0.269288
0.295731
0.296394
0.285965
0.285067
0.308205
0.300228
0.301475
0.306204
0.306487
0.308732
0.313349
0.313364
0.313273
0.313537
0.313451
0.313438
0.313422
0.313472
0.313428
0.313558
0.313515
0.313464
0.301099
0.300841
0.247829
0.311852
0.309909
0.309895
0.30997
0.309967
0.311945
0.313572
0.313644
0.313601
0.313728
0.313686
0.313589
0.313698
0.313699
0.313741
0.214861
0.208569
0.170965
0.293082
0.272138
0.26695
0.272588
0.272282
0.292987
0.308027
0.29727
0.295801
0.301205
0.303201
0.308294
0.146859
0.23142
0.249803
0.315276
0.315244
0.315241
0.315252
0.31525
0.31528
0.315182
0.315235
0.315224
0.315206
0.315203
0.315185
0.315278
0.315247
0.315251
0.31524
0.315242
0.315274
0.314764
0.314741
0.314692
0.314768
0.314759
0.31478
0.314717
0.314738
0.314748
0.314744
0.314629
0.314598
0.314377
0.314357
0.314075
0.314451
0.31443
0.314449
0.314391
0.31441
0.314432
0.314529
0.314508
0.314528
0.314469
0.314488
0.314509
0.314148
0.314418
0.314397
0.309268
0.309377
0.312305
0.312148
0.312148
0.312909
0.309755
0.311164
0.311103
0.311261
0.311217
0.309889
0.312193
0.305988
0.302997
0.305859
0.305948
0.312146
0.218044
0.282512
0.28189
0.315117
0.31514
0.315145
0.31513
0.315135
0.315111
0.315184
0.315159
0.315145
0.314826
0.31481
0.31485
0.314959
0.314979
0.314973
0.314994
0.314987
0.314966
0.31503
0.315008
0.315015
0.314911
0.314904
0.314884
0.314945
0.314924
0.314932
0.314907
0.314917
0.314938
0.314563
0.314537
0.314338
0.314608
0.314591
0.314612
0.314549
0.31457
0.314588
0.314687
0.314675
0.314696
0.314633
0.314654
0.314667
0.314479
0.314616
0.314589
0.313026
0.313317
0.314147
0.306147
0.311212
0.310361
0.31261
0.312093
0.308885
0.30052
0.30799
0.307858
0.308283
0.308132
0.300834