/*--------------------------------*- C++ -*----------------------------------*\
| =========                 |                                                 |
| \\      /  F ield         | OpenFOAM: The Open Source CFD Toolbox           |
|  \\    /   O peration     | Version:  5.x                                   |
|   \\  /    A nd           | Web:      www.OpenFOAM.org                      |
|    \\/     M anipulation  |                                                 |
\*---------------------------------------------------------------------------*/
FoamFile
{
    version     2.0;
    format      ascii;
    class       volScalarField;
    location    "600";
    object      Y;
}
// * * * * * * * * * * * * * * * * * * * * * * * * * * * * * * * * * * * * * //

dimensions      [0 0 0 0 0 0 0];

internalField   nonuniform List<scalar> 
6584
(
0.00632781
0.00632781
0.00632781
0.00632781
0.00632781
0.00632781
0.00632781
0.00632782
0.00632782
0.00632782
0.00632782
0.00632782
0.00632782
0.00632782
0.00632782
0.00632782
0.00632782
0.00632781
0.00632781
0.00632781
0.00632781
0.00632781
0.00632781
0.00632781
0.00632561
0.00632561
0.00632561
0.00632562
0.00632562
0.00632562
0.00632562
0.00632563
0.00632563
0.00632563
0.00632563
0.00632563
0.00632564
0.00632564
0.00632563
0.00632563
0.00632563
0.00632563
0.00632562
0.00632562
0.00632562
0.00632561
0.00632561
0.00632561
0.00632341
0.00632342
0.00632342
0.00632342
0.00632342
0.00632342
0.00632343
0.00632344
0.00632345
0.00632454
0.00632454
0.00632454
0.00632454
0.00632454
0.00632454
0.00632345
0.00632344
0.00632344
0.00632343
0.00632343
0.00632342
0.00632342
0.00632342
0.00632341
0.00632122
0.00632122
0.00632122
0.00632122
0.00632123
0.00632123
0.00632124
0.00632125
0.00632126
0.00632235
0.00632235
0.00632234
0.00632234
0.00632235
0.00632235
0.00632235
0.00632125
0.00632124
0.00632124
0.00632123
0.00632123
0.00632123
0.00632122
0.00632122
0.00631902
0.00631902
0.00631903
0.00631903
0.00631903
0.00631904
0.00631904
0.00631904
0.00632015
0.00632015
0.00632014
0.00632013
0.00632013
0.00632014
0.00632016
0.00632016
0.00632016
0.00631906
0.00631905
0.00631904
0.00631904
0.00631903
0.00631903
0.00631903
0.00631683
0.00631683
0.00631683
0.00631684
0.00631684
0.00631685
0.00631685
0.00631794
0.00631793
0.00631793
0.00631847
0.00631845
0.00631844
0.00631847
0.00631795
0.00631797
0.00631798
0.00631689
0.00631687
0.00631686
0.00631685
0.00631684
0.00631684
0.00631683
0.00631464
0.00631464
0.00631464
0.00631465
0.00631465
0.00631466
0.00631467
0.00631576
0.00631574
0.00631573
0.00631621
0.00631644
0.00631641
0.00631621
0.00631631
0.00631581
0.00631581
0.00631473
0.0063147
0.00631468
0.00631466
0.00631465
0.00631465
0.00631464
0.00631244
0.00631245
0.00631245
0.00631246
0.00631247
0.00631248
0.0063125
0.00631357
0.00631356
0.00631356
0.006314
0.0063141
0.00631422
0.00631415
0.00631367
0.00631366
0.00631257
0.00631253
0.0063125
0.00631248
0.00631247
0.00631246
0.00631245
0.00631025
0.00631026
0.00631026
0.00631027
0.00631028
0.0063103
0.00631033
0.00631141
0.00631141
0.00631143
0.00631187
0.00631196
0.00631213
0.00631207
0.00631157
0.00631153
0.00631043
0.00631036
0.00631033
0.0063103
0.00631028
0.00631027
0.00631026
0.00630806
0.00630807
0.00630807
0.00630809
0.0063081
0.00630812
0.00630816
0.00630924
0.00630926
0.00630932
0.00630978
0.00630996
0.00631022
0.00631005
0.00630949
0.00630941
0.00630828
0.0063082
0.00630815
0.00630812
0.0063081
0.00630808
0.00630807
0.00630587
0.00630588
0.00630589
0.0063059
0.00630592
0.00630594
0.00630599
0.00630708
0.00630712
0.0063072
0.00630771
0.00630797
0.00630833
0.00630805
0.00630742
0.0063073
0.00630614
0.00630604
0.00630598
0.00630594
0.00630591
0.00630589
0.00630588
0.00630368
0.00630369
0.0063037
0.00630372
0.00630374
0.00630377
0.00630382
0.00630491
0.00630497
0.00630507
0.00630561
0.00630591
0.00630637
0.00630601
0.00630532
0.00630518
0.00630399
0.00630388
0.00630381
0.00630376
0.00630372
0.0063037
0.00630368
0.00630149
0.0063015
0.00630151
0.00630153
0.00630156
0.00630159
0.00630165
0.00630274
0.00630281
0.00630292
0.00630347
0.00630377
0.00630428
0.0063039
0.0063032
0.00630304
0.00630183
0.00630171
0.00630163
0.00630157
0.00630153
0.00630151
0.00630149
0.0062993
0.00629931
0.00629932
0.00629934
0.00629937
0.00629941
0.00629947
0.0062995
0.00630063
0.00630072
0.00630125
0.00630147
0.00518806
0.00630176
0.00630174
0.00630106
0.00630089
0.00629966
0.00629953
0.00629945
0.00629938
0.00629934
0.00629931
0.00629929
0.00629711
0.00629712
0.00629713
0.00629716
0.00629719
0.00629722
0.00629727
0.0062973
0.00629841
0.0062985
0.00629904
0.00629896
0.00600636
0.00629955
0.00629895
0.00629887
0.00629756
0.00629747
0.00629734
0.00629726
0.0062972
0.00629715
0.00629711
0.00629709
0.00629492
0.00629493
0.00629494
0.00629497
0.006295
0.00629503
0.00629508
0.0062951
0.00629622
0.00629631
0.0062963
0.00629672
0.0060299
0.00629679
0.00629676
0.00629669
0.00629538
0.00629528
0.00629514
0.00629505
0.00629499
0.00629494
0.00629491
0.00629488
0.00629272
0.00629274
0.00629275
0.00629278
0.00629281
0.00629284
0.00629288
0.00629292
0.00629297
0.00629413
0.00629412
0.00628909
0.00616708
0.00629458
0.00629457
0.00629449
0.00629318
0.00629308
0.00629294
0.00629285
0.00629278
0.00629273
0.0062927
0.00629267
0.00629053
0.00629055
0.00629056
0.00629059
0.00629062
0.00629065
0.00629069
0.00629074
0.00629079
0.00629084
0.00629193
0.00628404
0.00616829
0.00629238
0.00629128
0.00629112
0.00629098
0.00629088
0.00629074
0.00629064
0.00629058
0.00629052
0.00629049
0.00629045
0.00628834
0.00628836
0.00628837
0.0062884
0.00628843
0.00628846
0.00628851
0.00628855
0.00628861
0.00628865
0.00628783
0.0061388
0.00622934
0.0062891
0.00628908
0.00628892
0.00628878
0.00628868
0.00628853
0.00628844
0.00628837
0.00628831
0.00628828
0.00628824
0.00628615
0.00628616
0.00628618
0.00628621
0.00628624
0.00628627
0.00628632
0.00628637
0.00628643
0.00628647
0.00628496
0.00613728
0.00622762
0.0062869
0.00628688
0.00628672
0.00628658
0.00628647
0.00628632
0.00628623
0.00628615
0.0062861
0.00628606
0.00628602
0.00628396
0.00628397
0.00628399
0.00628402
0.00628405
0.00628408
0.00628414
0.0062842
0.00628426
0.00628428
0.00628214
0.00613569
0.00622582
0.0062847
0.00628469
0.00628453
0.00628438
0.00628427
0.00628412
0.00628402
0.00628394
0.00628388
0.00628385
0.0062838
0.00628177
0.00628178
0.0062818
0.00628183
0.00628187
0.0062819
0.00628196
0.00628202
0.00628208
0.0062821
0.00627935
0.00613405
0.00622398
0.00628251
0.00628249
0.00628233
0.00628218
0.00628206
0.00628191
0.0062818
0.00628173
0.00628167
0.00628163
0.00628159
0.00627957
0.00627959
0.00627961
0.00627964
0.00627968
0.00627971
0.00627978
0.00627984
0.00627991
0.00627991
0.0062766
0.00613237
0.0062221
0.00628031
0.0062803
0.00628014
0.00627997
0.00627985
0.0062797
0.00627959
0.00627951
0.00627945
0.00627941
0.00627937
0.00627738
0.0062774
0.00627742
0.00627746
0.0062775
0.00627753
0.0062776
0.00627766
0.00627774
0.00627773
0.00627388
0.00613067
0.00622018
0.00627812
0.00627811
0.00627794
0.00627777
0.00627765
0.00627749
0.00627738
0.0062773
0.00627723
0.00627719
0.00627715
0.00627519
0.00627521
0.00627524
0.00627527
0.00627531
0.00627535
0.00627542
0.00627549
0.00627557
0.00627555
0.0062712
0.00612893
0.00621825
0.00627593
0.00627592
0.00627575
0.00627557
0.00627544
0.00627528
0.00627516
0.00627508
0.00627501
0.00627497
0.00627493
0.006273
0.00627302
0.00627305
0.00627308
0.00627313
0.00627317
0.00627325
0.00627331
0.0062734
0.00627336
0.00626848
0.0061272
0.00621631
0.00627373
0.00627373
0.00627356
0.00627337
0.00627324
0.00627307
0.00627295
0.00627286
0.0062728
0.00627275
0.00627271
0.00627082
0.00627083
0.00627086
0.0062709
0.00627094
0.00627099
0.00627107
0.00627114
0.00627123
0.00627117
0.00626574
0.0061255
0.00621439
0.00627155
0.00627155
0.00627137
0.00627117
0.00627103
0.00627086
0.00627074
0.00627065
0.00627058
0.00627054
0.00627049
0.00626863
0.00626865
0.00626867
0.00626871
0.00626876
0.00626881
0.00626889
0.00626897
0.00626906
0.00626899
0.00626303
0.00612379
0.00621245
0.00626936
0.00626936
0.00626918
0.00626898
0.00626883
0.00626865
0.00626853
0.00626844
0.00626837
0.00626832
0.00626827
0.00626644
0.00626646
0.00626649
0.00626653
0.00626658
0.00626663
0.00626672
0.0062668
0.00626689
0.0062668
0.00626033
0.00612205
0.0062105
0.00626718
0.00626718
0.00626699
0.00626678
0.00626663
0.00626644
0.00626632
0.00626623
0.00626615
0.00626611
0.00626606
0.00626425
0.00626427
0.0062643
0.00626434
0.00626439
0.00626445
0.00626454
0.00626463
0.00626473
0.00626461
0.00625765
0.00612031
0.00620855
0.00626499
0.006265
0.0062648
0.00626458
0.00626443
0.00626424
0.00626411
0.00626401
0.00626394
0.00626389
0.00626384
0.00626206
0.00626208
0.00626212
0.00626216
0.00626221
0.00626227
0.00626237
0.00626246
0.00626256
0.00626242
0.00625499
0.00611855
0.00620658
0.0062628
0.00626281
0.00626261
0.00626239
0.00626222
0.00626203
0.0062619
0.0062618
0.00626172
0.00626167
0.00626162
0.00625988
0.0062599
0.00625993
0.00625997
0.00626003
0.00626009
0.0062602
0.00626029
0.0062604
0.00626023
0.00625233
0.00611679
0.00620461
0.00626062
0.00626063
0.00626042
0.00626019
0.00626002
0.00625982
0.00625969
0.00625958
0.0062595
0.00625945
0.00625941
0.00625769
0.00625771
0.00625774
0.00625779
0.00625785
0.00625792
0.00625803
0.00625812
0.00625823
0.00625804
0.00624968
0.00611503
0.00620264
0.00625843
0.00625845
0.00625823
0.00625799
0.00625782
0.00625761
0.00625747
0.00625737
0.00625729
0.00625723
0.00625719
0.0062555
0.00625553
0.00625556
0.0062556
0.00625567
0.00625574
0.00625585
0.00625595
0.00625607
0.00625584
0.00624703
0.00611326
0.00620067
0.00625625
0.00625626
0.00625604
0.00625579
0.00625561
0.0062554
0.00625526
0.00625515
0.00625507
0.00625502
0.00625497
0.00625332
0.00625334
0.00625338
0.00625342
0.00625349
0.00625356
0.00625368
0.00625379
0.0062539
0.00625365
0.00624437
0.0061115
0.00619869
0.00625406
0.00625408
0.00625385
0.0062536
0.00625341
0.00625319
0.00625305
0.00625294
0.00625285
0.0062528
0.00625275
0.00625113
0.00625116
0.00625119
0.00625124
0.00625131
0.00625139
0.00625151
0.00625162
0.00625174
0.00625145
0.0062417
0.00610974
0.00619672
0.00625188
0.0062519
0.00625166
0.0062514
0.00625121
0.00625099
0.00625084
0.00625072
0.00625063
0.00625058
0.00625053
0.00631222
0.00631235
0.00631416
0.00631021
0.00631045
0.00631211
0.00630822
0.00630858
0.00631022
0.00630617
0.00630663
0.00630834
0.00630404
0.00630456
0.00630638
0.00630175
0.00506566
0.0051343
0.00630237
0.00630429
0.00631439
0.00631641
0.00631444
0.00631647
0.00631239
0.00631225
0.00631416
0.00631308
0.00631409
0.00631238
0.00631255
0.00631411
0.0063103
0.00631022
0.00631199
0.0063112
0.00630941
0.00631161
0.00630599
0.00631125
0.00631046
0.00631054
0.00631204
0.00630823
0.00630822
0.00630997
0.00630921
0.00630299
0.00630437
0.00624873
0.00628019
0.00630857
0.00630856
0.00631005
0.00630614
0.00630617
0.00630797
0.00630721
0.0063033
0.00630303
0.00629051
0.00626359
0.00630662
0.00630655
0.00630806
0.00630237
0.00630244
0.00630454
0.00630447
0.00630604
0.00630261
0.00630299
0.00629952
0.00540307
0.00507219
0.00577855
0.0063001
0.00630207
0.00631184
0.00631295
0.006313
0.00631291
0.00631118
0.00631407
0.00631305
0.00631145
0.00631301
0.0063131
0.00631299
0.00631188
0.00630479
0.00630889
0.00631095
0.00630384
0.00628843
0.00631064
0.00630469
0.0062824
0.00630573
0.00631116
0.00630834
0.00630198
0.00631174
0.00630853
0.00631139
0.00630298
0.00630295
0.00630897
0.00628545
0.00629181
0.00628782
0.00628514
0.00626254
0.00624713
0.00630929
0.00629883
0.0063003
0.00630184
0.00629901
0.00630952
0.00628867
0.00629379
0.00629226
0.00628781
0.00630217
0.00629204
0.00630738
0.00630374
0.00630522
0.00630039
0.00630354
0.00630762
0.00629779
0.0062991
0.00629437
0.00629749
0.00630299
0.00630253
0.0063052
0.00630486
0.00630561
0.00629953
0.00629631
0.00629921
0.00629954
0.00630167
0.00630252
0.00631327
0.00631309
0.00631412
0.00631324
0.00631398
0.00630401
0.00630403
0.00630591
0.00630512
0.00630337
0.00630352
0.00622631
0.00618476
0.00630235
0.00630233
0.00630394
0.006314
0.0063133
0.00631414
0.00631312
0.00631336
0.00630351
0.00630334
0.00630695
0.00506179
0.00526547
0.00590827
0.00600184
0.00527718
0.00551947
0.00617673
0.00610122
0.00630535
0.00630479
0.00630413
0.00601321
0.00607174
0.00630402
0.00630318
0.00630348
0.00631531
0.00631519
0.00631423
0.00631425
0.0063152
0.00631531
0.00631311
0.0063135
0.00631323
0.00631403
0.00631333
0.00631364
0.00630798
0.00630915
0.00626784
0.00626926
0.00628128
0.00627816
0.00630168
0.00610131
0.00630364
0.00625794
0.00623097
0.00623493
0.0062596
0.00630289
0.00629289
0.00631243
0.00625099
0.00630609
0.00623831
0.00631221
0.00630763
0.00631325
0.00631348
0.00631292
0.0062985
0.00631235
0.00631244
0.00629482
0.00629387
0.00630892
0.00630849
0.00629216
0.0062934
0.00630282
0.00631071
0.00631108
0.00631022
0.00631058
0.00630272
0.00631046
0.00631171
0.00631208
0.00631121
0.00631158
0.00631002
0.00628858
0.00628894
0.00628495
0.00628474
0.00622562
0.00622881
0.00629725
0.00630885
0.00630919
0.00630841
0.00630874
0.00629717
0.00630081
0.00630975
0.0063101
0.0063093
0.00630964
0.00630065
0.00508066
0.0062911
0.0053064
0.00508231
0.0055672
0.00532108
0.00629182
0.00628408
0.00510631
0.006285
0.0062992
0.00629851
0.00630188
0.00630796
0.0063083
0.0063075
0.00630784
0.00630223
0.00576324
0.00588826
0.00629592
0.00578006
0.00558496
0.00594507
0.00580225
0.00629637
0.00554432
0.00574238
0.00630292
0.00618635
0.00623016
0.00610999
0.00617753
0.00630286
0.00608274
0.00606529
0.00608704
0.0052354
0.00607854
0.00605674
0.00540081
0.00625845
0.00626045
0.00631382
0.00630183
0.00630177
0.00630376
0.00630294
0.00630229
0.00630303
0.00569574
0.00629844
0.00630071
0.00631382
0.00630284
0.00630333
0.00630485
0.00523586
0.00525438
0.00494052
0.00605992
0.00605717
0.00529181
0.00535442
0.00625098
0.00625811
0.00449401
0.00631459
0.00631464
0.00631409
0.00631408
0.00631464
0.0063146
0.00631055
0.00631149
0.0063111
0.00630633
0.00630502
0.00631034
0.00630331
0.00630944
0.00630907
0.00630993
0.00630956
0.00630349
0.00625821
0.00627602
0.00628663
0.00626615
0.00596342
0.00590295
0.00630283
0.00626221
0.00627897
0.00628973
0.00628908
0.00535096
0.00631362
0.0063134
0.00631405
0.00631184
0.00630817
0.00630583
0.00631258
0.00631272
0.00631312
0.00631221
0.00631259
0.00631243
0.00630635
0.00631045
0.00631006
0.00631097
0.00631058
0.00630693
0.00629975
0.00612671
0.00622915
0.00606849
0.00608083
0.00629053
0.00623973
0.00625102
0.00630653
0.00628635
0.00629776
0.00630521
0.00631045
0.00631061
0.00630941
0.00630964
0.00630231
0.00630895
0.00630859
0.00630291
0.00628702
0.00605177
0.00599948
0.00628628
0.00605079
0.00606521
0.00598979
0.00599587
0.00628455
0.00624776
0.00623602
0.0062979
0.00630828
0.00630841
0.00630748
0.00630795
0.00629911
0.00630144
0.00630912
0.00630933
0.00630846
0.0063086
0.00629981
0.00630111
0.00622938
0.00624555
0.0062076
0.00619856
0.00629526
0.00630521
0.00630703
0.00630738
0.00630654
0.00630691
0.00630523
0.00629851
0.00604557
0.00596035
0.00613492
0.00610993
0.00629869
0.00554588
0.00558185
0.00629945
0.00616251
0.00614261
0.0055045
0.00553567
0.00603848
0.00597949
0.00631357
0.00631383
0.00631368
0.00589996
0.00621099
0.005928
0.00596177
0.00594713
0.00620563
0.00631372
0.00631356
0.00631389
0.00631335
0.00631362
0.0050884
0.00515464
0.00526647
0.00524537
0.00595306
0.00537141
0.0053471
0.00543681
0.0053786
0.00596499
0.0053411
0.00538786
0.00614872
0.00613601
0.00604223
0.00552969
0.00546891
0.00536015
0.0053919
0.00631269
0.00631318
0.00631344
0.00631276
0.00631309
0.00631248
0.00630648
0.00631014
0.00625975
0.00627455
0.00628567
0.00626783
0.006119
0.00625336
0.00624171
0.00626558
0.00625701
0.0061155
0.00621502
0.00620394
0.00623806
0.00622125
0.00624846
0.00605488
0.00609262
0.00598753
0.00603645
0.00624448
0.00587068
0.00588828
0.00627868
0.00631083
0.0063089
0.00631259
0.00631138
0.00628569
0.00629627
0.00629145
0.00630742
0.00629822
0.00631211
0.00631315
0.00631277
0.00631152
0.0063102
0.00631106
0.00630866
0.00631197
0.00630943
0.00631192
0.00631262
0.00630991
0.00631164
0.00631271
0.00631217
0.00631127
0.0060976
0.00611234
0.00629825
0.00594958
0.00588822
0.0061364
0.00596146
0.00580321
0.00574909
0.00586993
0.00582819
0.00629133
0.00608541
0.0060943
0.0062247
0.00620153
0.00628883
0.00624446
0.00617791
0.00615797
0.00619766
0.00618323
0.00630705
0.00625366
0.00626128
0.00628769
0.00629707
0.00631006
0.00631035
0.00630393
0.00630243
0.00630972
0.00630998
0.006068
0.00606102
0.00628748
0.00570804
0.00571331
0.00546188
0.00567745
0.00569704
0.00577237
0.00570902
0.00569718
0.0060299
0.00604614
0.00628586
0.00566341
0.00560799
0.00573729
0.00568007
0.0055015
0.00544791
0.00558599
0.00552892
0.00628462
0.00600422
0.00602332
0.00623757
0.00623331
0.00630812
0.00630824
0.00629771
0.00629832
0.00630798
0.00630808
0.00630887
0.00630906
0.0063013
0.00629998
0.00630865
0.00630882
0.00510826
0.00518192
0.00608473
0.00611798
0.0060407
0.00607283
0.00510469
0.00547056
0.00616191
0.00610769
0.00612704
0.00615364
0.00541917
0.00589172
0.00591222
0.00581539
0.00588397
0.00517733
0.00599706
0.0060317
0.0059232
0.00597878
0.00517788
0.00621522
0.0062254
0.00630072
0.00617323
0.00619326
0.00619877
0.00617223
0.00619298
0.00629604
0.00619249
0.00620668
0.00581522
0.00521471
0.00521541
0.00532703
0.00522541
0.00583319
0.00526813
0.0056189
0.00521596
0.00565188
0.00614522
0.00627527
0.00626821
0.00628364
0.00627762
0.00615108
0.00605278
0.00606368
0.00559865
0.00563931
0.00541727
0.0054912
0.00608049
0.00605233
0.0063145
0.00631464
0.00631628
0.00630321
0.00630298
0.00630212
0.00631427
0.0063143
0.00631396
0.00631391
0.0063143
0.00631428
0.0063153
0.00631525
0.0063143
0.00631201
0.00631162
0.00631086
0.00630611
0.00629828
0.00629721
0.00625118
0.00627876
0.00630798
0.00630761
0.00630313
0.00622928
0.00622398
0.00626434
0.00624914
0.00625746
0.00630307
0.00631238
0.00631254
0.00631214
0.0063031
0.00630606
0.00631158
0.00631279
0.00631235
0.00631279
0.00631032
0.0062869
0.00630173
0.00628371
0.00629608
0.00629467
0.00630499
0.0063063
0.00630638
0.0063021
0.00631081
0.00631098
0.00630892
0.00630291
0.00630846
0.0063081
0.00609518
0.00607399
0.00629046
0.00626062
0.0062362
0.00623433
0.00624552
0.00629865
0.0063052
0.00630524
0.00630171
0.00630613
0.00630621
0.00630528
0.00630532
0.00629922
0.00628232
0.0061276
0.00610579
0.00630062
0.00630734
0.00630741
0.0063051
0.00630603
0.00630641
0.00517699
0.00517891
0.00618393
0.00616847
0.00629948
0.00517678
0.00517626
0.00628054
0.0062841
0.00630222
0.00631333
0.00631326
0.00504845
0.00507427
0.00508905
0.00524879
0.00528981
0.00504325
0.00505834
0.00524592
0.00521185
0.00548619
0.00604608
0.00603535
0.00611293
0.00557881
0.00554009
0.00605017
0.00631472
0.00631467
0.00631413
0.00631283
0.00631302
0.00631318
0.00631331
0.00631205
0.00631227
0.00631353
0.00631378
0.00631363
0.00630364
0.00630309
0.00630716
0.00630969
0.00630775
0.00630671
0.00626394
0.00627069
0.00624216
0.00624608
0.00628332
0.00627428
0.00622541
0.00623422
0.00613283
0.00613488
0.0061795
0.00617323
0.00610151
0.0061392
0.00614392
0.00630324
0.00626076
0.00626979
0.00628781
0.00626452
0.00629581
0.00629204
0.00631026
0.00630882
0.0063028
0.00618155
0.00616121
0.00628233
0.00625407
0.00621405
0.00631339
0.00631324
0.00631261
0.00631253
0.00631117
0.00631191
0.00630287
0.00631085
0.00631158
0.00626388
0.00627804
0.00631004
0.00613549
0.0061112
0.00629093
0.0062946
0.00631151
0.00631167
0.00631108
0.00630907
0.00631115
0.00631133
0.00629007
0.00607149
0.00606818
0.00622555
0.00623028
0.00630571
0.00630577
0.00630096
0.00630039
0.00630558
0.00630565
0.00509919
0.00528794
0.00562558
0.00564625
0.00540608
0.00542309
0.00506065
0.00614321
0.00613171
0.0062832
0.00518394
0.00515533
0.00532991
0.00533274
0.00513157
0.00538805
0.00539634
0.00513367
0.00513962
0.0063072
0.00630727
0.0063008
0.00630285
0.00630706
0.00630713
0.00568556
0.00614313
0.00615434
0.00611959
0.00613134
0.00565236
0.00620664
0.00627976
0.00628527
0.00628395
0.00628197
0.00621339
0.00612449
0.00619609
0.00618758
0.00606271
0.00604993
0.00608429
0.00526031
0.00528319
0.00529715
0.005184
0.00609697
0.0056582
0.005599
0.00570959
0.00567255
0.00604766
0.00588389
0.00588801
0.00610288
0.00613499
0.00626663
0.00631374
0.00631382
0.00631362
0.00522843
0.00523185
0.00559553
0.00559171
0.00489347
0.00532759
0.00525113
0.00525251
0.00522533
0.00524026
0.00534547
0.0045134
0.00607336
0.00608025
0.00631437
0.00631433
0.00631396
0.00630035
0.00629933
0.00630621
0.00630306
0.00630645
0.00630881
0.00630535
0.00630599
0.00625507
0.00627737
0.00620451
0.00621046
0.00621039
0.0062041
0.00626511
0.00622011
0.00621779
0.00594967
0.00585765
0.00585711
0.00586977
0.00586732
0.00593247
0.00630759
0.00631008
0.00631023
0.00630961
0.00630993
0.00630694
0.00628501
0.00630297
0.00629334
0.00629006
0.00630221
0.00630647
0.00630656
0.00623583
0.00623712
0.00625656
0.00623999
0.00630513
0.00630516
0.00629824
0.00630599
0.00630606
0.00630158
0.00629955
0.00630537
0.00630542
0.00620839
0.00622823
0.00621974
0.00623534
0.00623266
0.00620668
0.00518272
0.00519164
0.00518428
0.00517905
0.00551537
0.00532475
0.00531552
0.00588745
0.00588591
0.00602041
0.00590846
0.00593263
0.00586461
0.00588366
0.00599952
0.00631351
0.00631342
0.00631348
0.00631347
0.00631375
0.00631379
0.00631388
0.00631359
0.00631367
0.00631365
0.00592156
0.00607337
0.0060636
0.00610041
0.00608639
0.00593345
0.00598362
0.00602784
0.00600844
0.00605574
0.00604567
0.0059685
0.00631365
0.00631372
0.00631361
0.00631285
0.00631233
0.00631344
0.00631331
0.00505
0.00521718
0.00509846
0.00509343
0.00526154
0.00525419
0.00551971
0.00553605
0.00535806
0.00504269
0.00503333
0.0053089
0.00512027
0.00511792
0.00511129
0.0054404
0.00514956
0.00508461
0.00605829
0.00607626
0.00615985
0.00601382
0.00601865
0.00600042
0.00600425
0.00612363
0.00603145
0.00603951
0.00536604
0.00519223
0.00520888
0.00517695
0.00517869
0.00537532
0.00631296
0.00631307
0.00631286
0.00631198
0.00631243
0.00631282
0.00629914
0.00630671
0.00630233
0.00630134
0.00630354
0.00630437
0.00630163
0.00630264
0.00626134
0.00627219
0.00621706
0.00621903
0.00621264
0.00621494
0.00628465
0.00624817
0.00624962
0.00621732
0.00622015
0.00627056
0.00621903
0.00614944
0.00613677
0.00610805
0.00616796
0.00616118
0.00621044
0.00614933
0.00614766
0.00616834
0.00615747
0.00620719
0.00623371
0.00617874
0.00618533
0.00615462
0.00616721
0.00622794
0.00614532
0.0060037
0.00612274
0.00611283
0.00586047
0.00586981
0.00627585
0.00629897
0.00629742
0.00627168
0.00629163
0.00630494
0.00630139
0.00621422
0.00619754
0.00626388
0.0062678
0.00629322
0.00624646
0.00623104
0.00630719
0.00630906
0.00631205
0.00631039
0.00630468
0.00629707
0.00630434
0.00631065
0.00631152
0.00631177
0.0063105
0.00631093
0.00630901
0.0063067
0.00630885
0.00631213
0.00631145
0.006311
0.0063123
0.00631166
0.00631235
0.00631033
0.0063106
0.00630961
0.00631078
0.00593436
0.00590961
0.00608589
0.00585489
0.00587738
0.00580739
0.00597266
0.00578194
0.00576399
0.00585454
0.00584205
0.00621281
0.00610461
0.00612961
0.00605709
0.00607955
0.00620612
0.00628382
0.0062451
0.0062575
0.00614502
0.00621641
0.00627163
0.00608839
0.00604402
0.00617269
0.00593095
0.00594869
0.0059027
0.00591643
0.00616695
0.00619386
0.00602217
0.00603803
0.00596964
0.00599417
0.00618867
0.00628969
0.0062961
0.00571835
0.00549121
0.00552262
0.00542658
0.00545721
0.00571739
0.00551997
0.00553687
0.00553361
0.00560381
0.00570834
0.00526283
0.00529159
0.0053208
0.00526777
0.00573331
0.00570486
0.00537376
0.00539885
0.00532475
0.00535135
0.00570085
0.00565029
0.00563418
0.00572466
0.00570038
0.00547776
0.00545689
0.00556781
0.00555326
0.00623011
0.00623172
0.00630112
0.00630584
0.00630591
0.00630547
0.00630552
0.00630015
0.0051121
0.00555224
0.00559582
0.005253
0.00506041
0.005454
0.00550052
0.00524462
0.00521346
0.00589795
0.00552158
0.0055233
0.00585029
0.00547736
0.00540302
0.005522
0.00551003
0.00587182
0.00531403
0.0052779
0.00533857
0.00537251
0.00515759
0.00518433
0.00526528
0.00621976
0.00625973
0.0062565
0.00626447
0.00626218
0.00622258
0.00617999
0.00618933
0.00618912
0.00617236
0.00617202
0.00617862
0.00619163
0.00624163
0.00623795
0.00625198
0.00624664
0.00619745
0.0052128
0.00534875
0.00536506
0.00532264
0.00533594
0.005214
0.00528953
0.00546262
0.00549607
0.00538968
0.0054242
0.00525193
0.00526142
0.0051116
0.00513179
0.00511237
0.00510855
0.00521385
0.00527585
0.00530484
0.0051744
0.00522495
0.00520382
0.00620895
0.00620341
0.00613771
0.0060514
0.00607645
0.00521288
0.00524781
0.00544646
0.00524086
0.00519817
0.00530325
0.00528175
0.00547249
0.00519282
0.0051902
0.00588335
0.00588255
0.00631903
0.00631903
0.00632014
0.00631901
0.00631901
0.00632013
0.00631901
0.00631901
0.00632013
0.00631903
0.00631905
0.00632015
0.00631682
0.0063168
0.00631792
0.00631678
0.00631676
0.00631846
0.00631673
0.00631671
0.00631844
0.00631671
0.00631675
0.00631845
0.00631678
0.00631682
0.00631849
0.00631686
0.00631688
0.00631796
0.00631464
0.00631459
0.00631624
0.00631455
0.00631444
0.00631618
0.00631555
0.00631553
0.00631644
0.00631548
0.00631551
0.00631641
0.00631564
0.00631568
0.00631622
0.00631468
0.00631474
0.0063158
0.00631249
0.00631243
0.00631405
0.00631346
0.00631345
0.00631399
0.00631382
0.0063138
0.00631408
0.0063134
0.00631352
0.00631432
0.00631258
0.00631264
0.00631368
0.00631037
0.00631033
0.0063119
0.00631134
0.00631134
0.00631186
0.00631171
0.00631171
0.00631196
0.0063114
0.00631149
0.00631224
0.00631055
0.00631059
0.00631161
0.00630826
0.00630825
0.00630981
0.00630927
0.00630929
0.0063098
0.00630971
0.00630971
0.00630996
0.00630952
0.00630955
0.00631027
0.00630855
0.00630854
0.00630956
0.00630614
0.00630615
0.00630772
0.00630719
0.00630723
0.00630774
0.00630771
0.00630772
0.00630797
0.00630761
0.00630758
0.00630832
0.00630652
0.00630647
0.00630751
0.006304
0.00630401
0.00630562
0.00630565
0.00630566
0.00630592
0.0063056
0.00630553
0.0063063
0.00630443
0.00630437
0.00630543
0.00630183
0.00630184
0.00630347
0.00630346
0.00630345
0.00630398
0.00630229
0.00630224
0.00630331
0.0062996
0.00629957
0.00630067
0.00629959
0.00629954
0.0063012
0.00630063
0.00629963
0.00630047
0.00533891
0.00623234
0.00623739
0.00630011
0.00630014
0.00630179
0.00630006
0.00630008
0.00630116
0.00629741
0.00629738
0.00629847
0.0062974
0.00629733
0.00629898
0.00629729
0.00570653
0.00568903
0.00602475
0.00629786
0.00629954
0.00629787
0.00629793
0.00629956
0.00629786
0.00629788
0.00629898
0.00629521
0.00629516
0.00629627
0.00629193
0.00598585
0.0057116
0.00616622
0.00629549
0.00629729
0.00629569
0.00629573
0.00629683
0.00631221
0.00631247
0.00631248
0.0063126
0.00631269
0.00631229
0.00631414
0.00631387
0.00631389
0.0063102
0.00631045
0.00631045
0.00631069
0.00631068
0.00631032
0.00631216
0.00631178
0.00631187
0.00630823
0.00630847
0.00630847
0.00630882
0.00630883
0.00630849
0.00631021
0.00630986
0.00630999
0.00630618
0.00630644
0.00630643
0.00630688
0.00630695
0.00630658
0.00630837
0.00630802
0.0063081
0.00630483
0.0063048
0.00630454
0.00630634
0.00630609
0.00630613
0.00630075
0.00630204
0.00630265
0.0048916
0.00551591
0.00552156
0.00586393
0.00586514
0.00453598
0.00630428
0.00630401
0.00630402
0.00631428
0.00631522
0.00631526
0.006314
0.006314
0.0063139
0.00631641
0.0063155
0.00631547
0.00631399
0.00631401
0.00631472
0.00631471
0.00631442
0.00631645
0.00631556
0.00631559
0.00631238
0.00631291
0.00631292
0.00631305
0.0063129
0.00631237
0.00631396
0.00631343
0.00631332
0.00631322
0.00631317
0.00631289
0.00631406
0.0063139
0.00631394
0.00631249
0.00631326
0.00631314
0.00631306
0.00631306
0.00631256
0.00631409
0.00631357
0.00631358
0.00631031
0.00631083
0.00631082
0.00631097
0.00631083
0.00631032
0.00631185
0.00631134
0.00631123
0.0063112
0.00631145
0.00631145
0.00630984
0.00631083
0.00631063
0.00631187
0.00631171
0.00631138
0.00631045
0.00630957
0.00631093
0.00631051
0.00631124
0.00631117
0.00631104
0.00631107
0.00631058
0.00631206
0.00631156
0.00631154
0.00630826
0.00630877
0.00630875
0.00630897
0.0063088
0.00630829
0.00630981
0.00630931
0.00630922
0.00630922
0.00630946
0.00630946
0.00630307
0.00630774
0.00630763
0.00630859
0.00630841
0.00630401
0.00630857
0.0063093
0.00630928
0.00630906
0.00630911
0.00630862
0.00631009
0.0063096
0.00630955
0.00630618
0.0063067
0.00630667
0.00630695
0.00630674
0.00630621
0.00630777
0.00630726
0.00630721
0.00630722
0.00630747
0.00630746
0.00630317
0.00630748
0.00630711
0.00630679
0.0063067
0.00630306
0.006289
0.0062561
0.00626045
0.00630657
0.00630732
0.00630736
0.00630706
0.00630713
0.00630662
0.00630813
0.00630763
0.00630756
0.00630217
0.00628069
0.00628558
0.00629436
0.00629521
0.00630267
0.00630451
0.00630503
0.00630534
0.006305
0.00630507
0.00630454
0.00630611
0.00630559
0.00630552
0.00630269
0.00630036
0.00630047
0.00629901
0.00629934
0.00630296
0.00629892
0.00629935
0.00630007
0.00536372
0.00628878
0.0062871
0.00605925
0.00606201
0.00510412
0.00629763
0.00629824
0.00571835
0.00630065
0.00630062
0.0062999
0.00630183
0.00630089
0.00630122
0.00631204
0.00631217
0.00631202
0.00631308
0.00631267
0.00631253
0.00631274
0.00631273
0.00631299
0.00631277
0.00631234
0.00631288
0.00631392
0.00631389
0.00631405
0.00631299
0.00631315
0.00631319
0.0063116
0.00631103
0.00631083
0.00631299
0.0063129
0.00631294
0.00631308
0.00631282
0.00631284
0.00631286
0.0063129
0.00631303
0.00631209
0.00631223
0.00631211
0.00630527
0.006309
0.00630879
0.00631041
0.00631018
0.00630823
0.0063107
0.0063107
0.00631095
0.00630273
0.00629078
0.00629397
0.00625849
0.00625962
0.00628907
0.00629605
0.00629753
0.00630538
0.00631116
0.0063108
0.00631092
0.00630799
0.00630949
0.00630971
0.00631123
0.00631182
0.00631196
0.00630986
0.00630999
0.00630866
0.00631163
0.00631165
0.00631128
0.00630295
0.00630696
0.00630688
0.00630753
0.00630743
0.00630293
0.00630872
0.00630872
0.00630897
0.006286
0.0062536
0.00625221
0.00626757
0.00626632
0.00629133
0.00628726
0.00625647
0.00625746
0.00625121
0.00625057
0.00628479
0.00630929
0.00630895
0.00630905
0.00630565
0.00630559
0.00630012
0.00630975
0.00630974
0.0063094
0.00628952
0.0062054
0.0061921
0.00625681
0.00625398