/*--------------------------------*- C++ -*----------------------------------*\
| =========                 |                                                 |
| \\      /  F ield         | OpenFOAM: The Open Source CFD Toolbox           |
|  \\    /   O peration     | Version:  5.x                                   |
|   \\  /    A nd           | Web:      www.OpenFOAM.org                      |
|    \\/     M anipulation  |                                                 |
\*---------------------------------------------------------------------------*/
FoamFile
{
    version     2.0;
    format      ascii;
    class       volScalarField;
    location    "600";
    object      YSat;
}
// * * * * * * * * * * * * * * * * * * * * * * * * * * * * * * * * * * * * * //

dimensions      [0 0 0 0 0 0 0];

internalField   nonuniform List<scalar> 
6584
(
0.00431405
0.00431405
0.00431405
0.00431405
0.00431405
0.00431405
0.00431405
0.00431405
0.00431405
0.00431405
0.00431405
0.00431405
0.00431405
0.00431405
0.00431405
0.00431405
0.00431405
0.00431405
0.00431405
0.00431405
0.00431405
0.00431405
0.00431405
0.00431405
0.00431405
0.00431405
0.00431405
0.00431405
0.00431405
0.00431405
0.00431405
0.00431405
0.00431405
0.00431405
0.00431405
0.00431405
0.00431405
0.00431405
0.00431405
0.00431405
0.00431405
0.00431405
0.00431405
0.00431405
0.00431405
0.00431405
0.00431405
0.00431405
0.00431405
0.00431405
0.00431405
0.00431405
0.00431405
0.00431405
0.00431405
0.00431405
0.00431405
0.00431405
0.00431405
0.00431405
0.00431405
0.00431405
0.00431405
0.00431405
0.00431405
0.00431405
0.00431405
0.00431405
0.00431405
0.00431405
0.00431405
0.00431405
0.00431405
0.00431405
0.00431405
0.00431405
0.00431405
0.00431405
0.00431405
0.00431405
0.00431405
0.00431405
0.00431405
0.00431405
0.00431405
0.00431405
0.00431405
0.00431405
0.00431405
0.00431405
0.00431405
0.00431405
0.00431405
0.00431405
0.00431405
0.00431405
0.00431405
0.00431405
0.00431405
0.00431405
0.00431405
0.00431405
0.00431405
0.00431405
0.00431405
0.00431405
0.00431405
0.00431405
0.00431405
0.00431405
0.00431405
0.00431405
0.00431405
0.00431405
0.00431405
0.00431405
0.00431405
0.00431405
0.00431405
0.00431405
0.00431405
0.00431405
0.00431405
0.00431405
0.00431405
0.00431405
0.00431405
0.00431405
0.00431405
0.00431405
0.00431405
0.00431405
0.00431405
0.00431405
0.00431405
0.00431405
0.00431405
0.00431405
0.00431405
0.00431405
0.00431405
0.00431405
0.00431405
0.00431405
0.00431405
0.00431405
0.00431405
0.00431405
0.00431405
0.00431405
0.00431405
0.00431405
0.00431405
0.00431405
0.00431405
0.00431405
0.00431405
0.00431405
0.00431405
0.00431405
0.00431405
0.00431405
0.00431405
0.00431405
0.00431405
0.00431405
0.00431405
0.00431405
0.00431405
0.00431405
0.00431405
0.00431405
0.00431405
0.00431405
0.00431405
0.00431405
0.00431405
0.00431405
0.00431405
0.00431405
0.00431405
0.00431405
0.00431405
0.00431405
0.00431405
0.00431405
0.00431405
0.00431405
0.00431405
0.00431405
0.00431405
0.00431405
0.00431405
0.00431405
0.00431405
0.00431405
0.00431405
0.00431405
0.00431405
0.00431405
0.00431405
0.00431405
0.00431405
0.00431405
0.00431405
0.00431405
0.00431405
0.00431405
0.00431405
0.00431405
0.00431405
0.00431405
0.00431405
0.00431405
0.00431405
0.00431405
0.00431405
0.00431405
0.00431405
0.00431405
0.00431405
0.00431405
0.00431405
0.00431405
0.00431405
0.00431405
0.00431405
0.00431405
0.00431405
0.00431405
0.00431405
0.00431405
0.00431405
0.00431405
0.00431405
0.00431405
0.00431405
0.00431405
0.00431405
0.00431405
0.00431405
0.00431405
0.00431405
0.00431405
0.00431405
0.00431405
0.00431405
0.00431405
0.00431405
0.00431405
0.00431405
0.00431405
0.00431405
0.00431405
0.00431405
0.00431405
0.00431405
0.00431405
0.00431405
0.00431405
0.00431405
0.00431405
0.00431405
0.00431405
0.00431405
0.00431405
0.00431405
0.00431405
0.00431405
0.00431405
0.00431405
0.00431405
0.00431405
0.00431405
0.00431405
0.00431405
0.00431405
0.00431405
0.00431405
0.00431405
0.00431405
0.00431405
0.00431405
0.00431405
0.00431405
0.00431405
0.00431405
0.00431405
0.00431405
0.00431405
0.00431405
0.00431405
0.00431405
0.00431405
0.00431405
0.00431405
0.00431405
0.00431405
0.00431405
0.00431405
0.00431405
0.00431405
0.00431405
0.00431405
0.00431405
0.00431405
0.00431405
0.00431405
0.00431405
0.00431405
0.00431405
0.00431405
0.00431405
0.00431405
0.00431405
0.00431405
0.00431405
0.00431405
0.00370041
0.00431405
0.00431405
0.00431405
0.00431405
0.00431405
0.00431405
0.00431405
0.00431405
0.00431405
0.00431405
0.00431405
0.00431405
0.00431405
0.00431405
0.00431405
0.00431405
0.00431405
0.00431405
0.00431405
0.00431405
0.00431405
0.00431405
0.00431404
0.0041436
0.00431405
0.00431405
0.00431405
0.00431405
0.00431405
0.00431405
0.00431405
0.00431405
0.00431405
0.00431405
0.00431405
0.00431405
0.00431405
0.00431405
0.00431405
0.00431405
0.00431405
0.00431405
0.00431405
0.00431405
0.00431405
0.00431405
0.00431403
0.00415805
0.00431405
0.00431405
0.00431405
0.00431405
0.00431405
0.00431405
0.00431405
0.00431405
0.00431405
0.00431405
0.00431405
0.00431405
0.00431405
0.00431405
0.00431405
0.00431405
0.00431405
0.00431405
0.00431405
0.00431405
0.00431405
0.00431405
0.00431113
0.00423902
0.00431405
0.00431405
0.00431405
0.00431405
0.00431405
0.00431405
0.00431405
0.00431405
0.00431405
0.00431405
0.00431405
0.00431405
0.00431405
0.00431405
0.00431405
0.00431405
0.00431405
0.00431405
0.00431405
0.00431405
0.00431405
0.00431405
0.00430942
0.00424094
0.00431405
0.00431405
0.00431405
0.00431405
0.00431405
0.00431405
0.00431405
0.00431405
0.00431405
0.00431405
0.00431405
0.00431405
0.00431405
0.00431405
0.00431405
0.00431405
0.00431405
0.00431405
0.00431405
0.00431405
0.00431405
0.00431356
0.00422482
0.00427872
0.00431404
0.00431405
0.00431405
0.00431405
0.00431405
0.00431405
0.00431405
0.00431405
0.00431405
0.00431405
0.00431405
0.00431405
0.00431405
0.00431405
0.00431405
0.00431405
0.00431405
0.00431405
0.00431405
0.00431405
0.00431404
0.00431315
0.00422519
0.00427898
0.00431404
0.00431405
0.00431405
0.00431405
0.00431405
0.00431405
0.00431405
0.00431405
0.00431405
0.00431405
0.00431405
0.00431405
0.00431405
0.00431405
0.00431405
0.00431405
0.00431405
0.00431405
0.00431405
0.00431405
0.00431404
0.00431276
0.00422553
0.00427921
0.00431404
0.00431405
0.00431405
0.00431405
0.00431405
0.00431405
0.00431405
0.00431405
0.00431405
0.00431405
0.00431405
0.00431405
0.00431405
0.00431405
0.00431405
0.00431405
0.00431405
0.00431405
0.00431405
0.00431405
0.00431403
0.00431239
0.00422583
0.0042794
0.00431403
0.00431405
0.00431405
0.00431405
0.00431405
0.00431405
0.00431405
0.00431405
0.00431405
0.00431405
0.00431405
0.00431405
0.00431405
0.00431405
0.00431405
0.00431405
0.00431405
0.00431405
0.00431405
0.00431405
0.00431402
0.00431205
0.00422612
0.00427956
0.00431403
0.00431405
0.00431405
0.00431405
0.00431405
0.00431405
0.00431405
0.00431405
0.00431405
0.00431405
0.00431405
0.00431405
0.00431405
0.00431405
0.00431405
0.00431405
0.00431405
0.00431405
0.00431405
0.00431405
0.00431402
0.00431172
0.00422638
0.00427971
0.00431402
0.00431405
0.00431405
0.00431405
0.00431405
0.00431405
0.00431405
0.00431405
0.00431405
0.00431405
0.00431405
0.00431405
0.00431405
0.00431405
0.00431405
0.00431405
0.00431405
0.00431405
0.00431405
0.00431405
0.00431401
0.00431141
0.00422662
0.00427984
0.00431402
0.00431405
0.00431405
0.00431405
0.00431405
0.00431405
0.00431405
0.00431405
0.00431405
0.00431405
0.00431405
0.00431405
0.00431405
0.00431405
0.00431405
0.00431405
0.00431405
0.00431405
0.00431405
0.00431405
0.004314
0.00431109
0.00422687
0.00427997
0.00431401
0.00431405
0.00431405
0.00431405
0.00431405
0.00431405
0.00431405
0.00431405
0.00431405
0.00431405
0.00431405
0.00431405
0.00431405
0.00431405
0.00431405
0.00431405
0.00431405
0.00431405
0.00431405
0.00431405
0.00431398
0.00431074
0.00422713
0.00428011
0.00431401
0.00431405
0.00431405
0.00431405
0.00431405
0.00431405
0.00431405
0.00431405
0.00431405
0.00431405
0.00431405
0.00431405
0.00431405
0.00431405
0.00431405
0.00431405
0.00431405
0.00431405
0.00431405
0.00431405
0.00431397
0.00431041
0.00422738
0.00428024
0.00431401
0.00431405
0.00431405
0.00431405
0.00431405
0.00431405
0.00431405
0.00431405
0.00431405
0.00431405
0.00431405
0.00431405
0.00431405
0.00431405
0.00431405
0.00431405
0.00431405
0.00431405
0.00431405
0.00431405
0.00431396
0.0043101
0.00422763
0.00428037
0.004314
0.00431405
0.00431405
0.00431405
0.00431405
0.00431405
0.00431405
0.00431405
0.00431405
0.00431405
0.00431405
0.00431405
0.00431405
0.00431405
0.00431405
0.00431405
0.00431405
0.00431405
0.00431405
0.00431405
0.00431394
0.00430979
0.00422787
0.00428048
0.004314
0.00431405
0.00431405
0.00431405
0.00431405
0.00431405
0.00431405
0.00431405
0.00431405
0.00431405
0.00431405
0.00431405
0.00431405
0.00431405
0.00431405
0.00431405
0.00431405
0.00431405
0.00431405
0.00431405
0.00431392
0.00430949
0.0042281
0.0042806
0.00431399
0.00431405
0.00431405
0.00431405
0.00431405
0.00431405
0.00431405
0.00431405
0.00431405
0.00431405
0.00431405
0.00431405
0.00431405
0.00431405
0.00431405
0.00431405
0.00431405
0.00431405
0.00431405
0.00431405
0.00431391
0.0043092
0.00422833
0.00428071
0.00431399
0.00431405
0.00431405
0.00431405
0.00431405
0.00431405
0.00431405
0.00431405
0.00431405
0.00431405
0.00431405
0.00431405
0.00431405
0.00431405
0.00431405
0.00431405
0.00431405
0.00431405
0.00431405
0.00431405
0.00431389
0.00430891
0.00422855
0.00428081
0.00431399
0.00431405
0.00431405
0.00431405
0.00431405
0.00431405
0.00431405
0.00431405
0.00431405
0.00431405
0.00431405
0.00431405
0.00431405
0.00431405
0.00431405
0.00431405
0.00431405
0.00431405
0.00431405
0.00431404
0.00431387
0.00430862
0.00422878
0.00428092
0.00431398
0.00431405
0.00431405
0.00431405
0.00431405
0.00431405
0.00431405
0.00431405
0.00431405
0.00431405
0.00431405
0.00431405
0.00431405
0.00431405
0.00431405
0.00431405
0.00431405
0.00431405
0.00431405
0.00431404
0.00431385
0.00430833
0.00422901
0.00428102
0.00431398
0.00431405
0.00431405
0.00431405
0.00431405
0.00431405
0.00431405
0.00431405
0.00431405
0.00431405
0.00431405
0.00431405
0.00431405
0.00431405
0.00431405
0.00431405
0.00431405
0.00431405
0.00431405
0.00431404
0.00431383
0.00430803
0.00422924
0.00428113
0.00431397
0.00431405
0.00431405
0.00431405
0.00431405
0.00431405
0.00431405
0.00431405
0.00431405
0.00431405
0.00431405
0.00431405
0.00431405
0.00431405
0.00431405
0.00431405
0.00431405
0.00431405
0.00431405
0.00431405
0.00431405
0.00431405
0.00431405
0.00431405
0.00431405
0.00431405
0.00431405
0.00362591
0.00367295
0.00431405
0.00431405
0.00431405
0.00431405
0.00431405
0.00431405
0.00431405
0.00431405
0.00431405
0.00431404
0.00431405
0.00431405
0.00431405
0.00431405
0.00431405
0.00431405
0.00431405
0.00431405
0.0043131
0.00431388
0.00431108
0.00431364
0.00431405
0.00431405
0.00431405
0.00431405
0.00431405
0.00431405
0.00431405
0.0043105
0.00431081
0.00427867
0.00429653
0.00431405
0.00431405
0.00431405
0.00431405
0.00431405
0.00431405
0.00431405
0.0043118
0.00431114
0.00430414
0.0042879
0.00431405
0.00431405
0.00431405
0.00431223
0.00431173
0.00431405
0.00431405
0.00431405
0.00431362
0.00431327
0.00431404
0.00380417
0.00362986
0.00401525
0.00431405
0.00431405
0.00431394
0.00431405
0.00431405
0.00431404
0.00431356
0.00431405
0.00431404
0.00431372
0.00431404
0.00431405
0.00431405
0.00431393
0.00431098
0.00431287
0.00431405
0.00430993
0.00430153
0.00431333
0.00431039
0.00429779
0.00431096
0.00431405
0.00431247
0.00430925
0.00431389
0.00431255
0.00431405
0.00431105
0.00431054
0.00431405
0.00430034
0.00430452
0.0043012
0.00430013
0.00428725
0.00427777
0.00431405
0.00430797
0.00430932
0.0043092
0.00430804
0.00431405
0.00430327
0.00430677
0.00430482
0.00430269
0.00431153
0.00430507
0.00431405
0.00431191
0.0043133
0.00430941
0.00431176
0.00431405
0.00430982
0.00431115
0.00430719
0.00430957
0.0043132
0.0043124
0.00431336
0.00431367
0.00431405
0.00431217
0.00431087
0.00431131
0.00431209
0.00431377
0.00431365
0.00431405
0.00431405
0.00431405
0.00431396
0.00431405
0.00431405
0.00431405
0.00431405
0.00431405
0.00431305
0.00431259
0.00426852
0.00424413
0.00431405
0.00431405
0.00431405
0.00431405
0.00431399
0.00431405
0.00431405
0.00431405
0.00431251
0.0043119
0.00431405
0.00362316
0.00372672
0.00407805
0.00413266
0.00373265
0.00386093
0.00423945
0.00419576
0.00431405
0.0043137
0.00431385
0.00413937
0.00417418
0.00431387
0.00431394
0.00431405
0.00431405
0.00431405
0.00431405
0.00431405
0.00431405
0.00431405
0.00431392
0.00431405
0.00431399
0.00431405
0.00431401
0.00431405
0.00431201
0.00431266
0.00428958
0.00429038
0.0042985
0.00429664
0.0043116
0.00419554
0.00431268
0.00428733
0.00427128
0.00427333
0.00428802
0.00431345
0.00430239
0.00431399
0.0042782
0.00431012
0.00427086
0.00431394
0.00431098
0.00431399
0.00431405
0.00431382
0.00430564
0.00431398
0.004314
0.00430496
0.00430444
0.00431255
0.00431233
0.00430327
0.00430396
0.00430948
0.00431401
0.00431403
0.004314
0.00431401
0.00430945
0.00431341
0.00431404
0.00431405
0.00431403
0.00431404
0.00431319
0.00430238
0.00430262
0.00429977
0.00429968
0.00426553
0.00426734
0.00430727
0.004314
0.00431399
0.004314
0.004314
0.00430726
0.00430883
0.00431399
0.00431399
0.00431399
0.00431399
0.00430877
0.00363288
0.0043049
0.00374918
0.00363479
0.00388757
0.00375668
0.0043054
0.00430023
0.00364719
0.00430084
0.00430955
0.0043091
0.00431052
0.00431401
0.004314
0.00431402
0.00431401
0.00431076
0.00399536
0.00406649
0.00430833
0.00400523
0.00389715
0.00409953
0.00401775
0.00430867
0.00387436
0.00398365
0.00431293
0.00424481
0.00427052
0.00420055
0.00423967
0.00431281
0.00418514
0.00417075
0.00418404
0.00370863
0.00417826
0.00416556
0.00381192
0.00428793
0.00428885
0.00431404
0.00431405
0.00431405
0.00431405
0.00431405
0.0043137
0.00431365
0.00396953
0.00431254
0.00431338
0.00431404
0.00431338
0.0043131
0.00431405
0.00370915
0.00371861
0.003562
0.00416814
0.00416694
0.003738
0.0037706
0.00428388
0.00428783
0.00335911
0.00431405
0.00431405
0.00431405
0.00431405
0.00431405
0.00431405
0.00431355
0.00431404
0.00431403
0.00431117
0.00431
0.00431322
0.00431047
0.004314
0.004314
0.004314
0.004314
0.00431051
0.00428409
0.00429419
0.00430176
0.00428949
0.0041179
0.00408388
0.0043135
0.00428958
0.00429971
0.00430707
0.0043072
0.00377499
0.00431405
0.00431403
0.00431405
0.00431384
0.00431172
0.00431045
0.00431404
0.00431405
0.00431405
0.00431405
0.00431405
0.00431403
0.00431168
0.00431401
0.004314
0.00431403
0.00431402
0.00431195
0.00430767
0.00420797
0.00426679
0.00417489
0.00418193
0.00430264
0.00427286
0.00427924
0.00431134
0.0043
0.00430639
0.00431075
0.00431376
0.00431378
0.00431356
0.00431359
0.00430934
0.004314
0.004314
0.00431072
0.00430134
0.00416469
0.00413494
0.00430041
0.00416476
0.00417302
0.00412949
0.00413314
0.0042997
0.00427853
0.00427141
0.00430753
0.00431356
0.00431354
0.0043135
0.00431367
0.00430853
0.00430907
0.00431352
0.00431355
0.00431353
0.00431352
0.00430841
0.00431081
0.00426891
0.00427843
0.00425589
0.00425074
0.00430706
0.00431301
0.00431402
0.00431402
0.00431403
0.00431403
0.00431309
0.00431048
0.00415836
0.0041084
0.00421182
0.0041967
0.00431067
0.00387319
0.00389318
0.0043117
0.00422866
0.0042165
0.0038506
0.00386758
0.0041605
0.00412698
0.00431403
0.00431404
0.00431404
0.00408213
0.0042595
0.00409778
0.00411682
0.00410851
0.00425635
0.00431405
0.00431401
0.00431405
0.00431391
0.00431404
0.00363629
0.00366993
0.00372532
0.00371414
0.00410407
0.00378008
0.00376752
0.00381469
0.0037838
0.00411104
0.00376577
0.00379046
0.00422318
0.00421582
0.00415657
0.00386478
0.00383194
0.00377352
0.0037901
0.00431378
0.00431403
0.00431404
0.00431395
0.00431402
0.00431369
0.00431123
0.00431313
0.00428496
0.00429337
0.00430117
0.0042905
0.00420558
0.00428339
0.00427649
0.00429068
0.00428557
0.00420359
0.00426079
0.00425426
0.00427433
0.00426444
0.00428166
0.0041697
0.00419135
0.00413137
0.00415918
0.00427929
0.00406585
0.00407561
0.00429423
0.00431301
0.004312
0.00431387
0.00431329
0.00429829
0.0043048
0.0043021
0.00431117
0.0043059
0.00431349
0.00431403
0.00431394
0.00431312
0.00431238
0.00431328
0.00431197
0.00431388
0.00431232
0.00431361
0.00431391
0.00431257
0.00431348
0.00431403
0.00431378
0.00431337
0.00419144
0.00419978
0.00430684
0.00410771
0.00407338
0.00421353
0.00411437
0.00402604
0.00399606
0.00406318
0.0040399
0.00430307
0.00418454
0.00418957
0.00426362
0.00425045
0.00430061
0.00427499
0.00423716
0.00422585
0.00424828
0.00424016
0.00431161
0.00428072
0.00428499
0.00430075
0.00430601
0.00431367
0.00431374
0.00431003
0.00430938
0.00431361
0.00431365
0.00417385
0.00416996
0.00430164
0.00397128
0.00397371
0.00383868
0.00395464
0.0039639
0.00400522
0.00397118
0.00396415
0.00415274
0.00416208
0.0043002
0.00394877
0.00391836
0.00398949
0.00395794
0.00386042
0.00383139
0.00390635
0.00387523
0.0042997
0.00413794
0.00414896
0.00427257
0.00426986
0.0043136
0.00431357
0.00430745
0.00430803
0.00431365
0.00431361
0.00431351
0.00431352
0.00430901
0.00430847
0.00431351
0.00431351
0.00364738
0.00368507
0.00418206
0.00420156
0.00415648
0.00417511
0.00364572
0.00383556
0.00422757
0.00419533
0.0042069
0.00422265
0.00380815
0.00407176
0.0040831
0.00402916
0.00406748
0.00368413
0.00413139
0.00415129
0.00408926
0.00412091
0.00368461
0.00426055
0.00426656
0.00431054
0.00423634
0.00424784
0.00425123
0.00423578
0.00424765
0.00430755
0.00424725
0.00425557
0.00402472
0.0036987
0.0036993
0.00375703
0.00370418
0.00403494
0.00372626
0.00391503
0.00369966
0.00393322
0.00422089
0.0042965
0.00429226
0.00430156
0.00429792
0.0042243
0.00416797
0.00417415
0.00390258
0.0039256
0.00380361
0.0038434
0.00418459
0.00416841
0.00431405
0.00431405
0.00431405
0.00431405
0.00431399
0.00431399
0.00431405
0.00431405
0.00431405
0.00431405
0.00431405
0.00431405
0.00431405
0.00431405
0.00431405
0.00431405
0.00431404
0.00431365
0.00431111
0.00430653
0.00430593
0.00428006
0.00429573
0.00431401
0.00431401
0.00431142
0.00426793
0.00426488
0.00428837
0.00428056
0.00428552
0.0043122
0.00431403
0.00431405
0.00431405
0.00430889
0.00431051
0.00431372
0.00431399
0.00431385
0.00431404
0.00431321
0.00429962
0.00430813
0.00429852
0.0043053
0.00430451
0.00431055
0.00431177
0.00431179
0.00430929
0.00431383
0.00431387
0.00431268
0.00431079
0.004314
0.004314
0.00418921
0.00417706
0.00430363
0.0042861
0.00427189
0.00427084
0.00427687
0.00430789
0.00431172
0.00431171
0.00430916
0.00431174
0.00431176
0.0043117
0.00431169
0.00430813
0.00429907
0.00420797
0.00419534
0.00430965
0.00431355
0.00431352
0.00431351
0.00431404
0.00431403
0.00367741
0.00367836
0.00424189
0.00423232
0.00431181
0.00367745
0.00367709
0.00430071
0.00430307
0.00431373
0.00431398
0.00431393
0.00361627
0.0036286
0.00363623
0.00371821
0.00373908
0.00361268
0.00362042
0.00371582
0.00369827
0.003843
0.00416427
0.00415818
0.0042025
0.0038915
0.0038704
0.00416129
0.00431405
0.00431405
0.00431405
0.00431379
0.00431391
0.00431399
0.00431402
0.00431355
0.00431364
0.00431405
0.00431405
0.00431404
0.00430947
0.00430918
0.00431156
0.00431294
0.00431181
0.00431123
0.00428734
0.00429118
0.00427568
0.004278
0.00429972
0.00429434
0.00426588
0.00427103
0.00421345
0.0042146
0.00424056
0.0042369
0.00419562
0.00421706
0.00421976
0.00431234
0.00428748
0.00429286
0.00429945
0.00428604
0.00430431
0.00430214
0.00431255
0.00431175
0.00430823
0.00423831
0.00422667
0.00429651
0.00428007
0.00425682
0.00431404
0.00431404
0.00431374
0.00431363
0.00431284
0.00431324
0.00430816
0.00431291
0.0043133
0.00428644
0.00429451
0.00431309
0.00421199
0.00419819
0.00430258
0.00430463
0.00431397
0.00431399
0.00431366
0.00431273
0.0043139
0.00431393
0.00430337
0.00417566
0.00417391
0.00426552
0.00426817
0.00431169
0.00431169
0.00430888
0.00430865
0.00431168
0.00431169
0.00364245
0.00373972
0.00392058
0.0039318
0.00380277
0.0038116
0.00362363
0.004217
0.00421034
0.00429965
0.00368881
0.00367385
0.00376594
0.00376719
0.00366029
0.00379368
0.00379782
0.00366252
0.00366535
0.0043136
0.00431357
0.00430979
0.00431122
0.00431365
0.00431363
0.00395235
0.00421647
0.00422319
0.00420241
0.00420942
0.00393398
0.00425668
0.00429943
0.00430256
0.00430204
0.0043008
0.00426064
0.0042089
0.00425023
0.00424527
0.00417369
0.00416643
0.00418587
0.0037212
0.00373283
0.00374025
0.00368174
0.00418937
0.0039355
0.00390262
0.00396443
0.00394354
0.00416008
0.00407348
0.00407573
0.00419726
0.00421582
0.00429259
0.00431403
0.00431403
0.004314
0.00370525
0.00370697
0.00390151
0.00389991
0.00354063
0.00375668
0.00371688
0.00371766
0.00370339
0.00371118
0.00376599
0.00336829
0.00418059
0.00418448
0.00431405
0.00431405
0.00431405
0.00430767
0.00430711
0.00431114
0.00430888
0.00431088
0.00431223
0.0043103
0.00431064
0.0042823
0.00429495
0.00425399
0.0042574
0.00425746
0.00425378
0.00428885
0.00426267
0.00426136
0.00411013
0.00405866
0.00405838
0.00406537
0.00406402
0.00410044
0.00431141
0.00431287
0.00431293
0.00431266
0.00431282
0.00431106
0.00429925
0.00430941
0.00430376
0.00430187
0.00430932
0.00431181
0.00431183
0.00427161
0.00427239
0.00428369
0.00427368
0.00431175
0.00431173
0.00430769
0.00431172
0.00431173
0.00430911
0.00430829
0.00431169
0.00431169
0.00425638
0.00426788
0.00426291
0.00427208
0.00427049
0.00425542
0.00368033
0.00368496
0.0036815
0.00367871
0.00385649
0.00375431
0.00374955
0.00407536
0.00407449
0.0041502
0.00408708
0.00410065
0.00406257
0.0040732
0.00413833
0.00431401
0.004314
0.00431402
0.00431398
0.00431404
0.00431404
0.00431405
0.00431402
0.00431403
0.00431401
0.00409418
0.00418011
0.00417451
0.00419565
0.00418759
0.00410087
0.00412904
0.00415408
0.00414306
0.00417001
0.00416425
0.00412053
0.00431402
0.00431404
0.00431403
0.00431371
0.00431344
0.00431398
0.00431394
0.00361694
0.00370199
0.00364114
0.00363873
0.00372268
0.00371878
0.00386005
0.00386887
0.00377322
0.00361219
0.00360755
0.00374894
0.00365127
0.00364998
0.0036468
0.00381844
0.00366631
0.00363333
0.00417131
0.00418158
0.00422963
0.00414605
0.00414877
0.00413849
0.00414064
0.00420867
0.00415598
0.00416059
0.00377653
0.00368617
0.00369482
0.00367815
0.00367912
0.00378135
0.00431394
0.00431397
0.00431385
0.00431343
0.00431371
0.0043139
0.00430682
0.00431133
0.00430876
0.00430821
0.0043093
0.00430976
0.00430825
0.00430881
0.00428585
0.00429202
0.00426114
0.00426225
0.00425864
0.00425994
0.00430054
0.00427925
0.00428013
0.00426111
0.00426279
0.00429213
0.00426222
0.00422307
0.00421575
0.00419935
0.00423382
0.00422988
0.0042581
0.00422275
0.00422182
0.00423366
0.00422742
0.00425618
0.00427176
0.00423984
0.00424369
0.00422586
0.00423315
0.00426837
0.00422054
0.00414054
0.00420853
0.0042028
0.00406014
0.00406533
0.00429249
0.0043061
0.00430522
0.00429018
0.00430173
0.00430952
0.00430748
0.00425707
0.00424747
0.00428604
0.00428828
0.00430309
0.00427569
0.00426677
0.00431058
0.00431164
0.00431339
0.00431234
0.00430919
0.00430472
0.00430895
0.00431307
0.00431357
0.00431368
0.00431305
0.00431327
0.00431215
0.00431078
0.00431201
0.0043137
0.0043133
0.00431307
0.00431373
0.00431339
0.00431379
0.00431278
0.00431286
0.00431231
0.00431301
0.00409918
0.00408533
0.00418471
0.00405498
0.00406746
0.00402872
0.00412066
0.00401426
0.00400432
0.0040546
0.00404763
0.00425682
0.00419477
0.00420898
0.0041679
0.00418058
0.00425303
0.00429774
0.00427524
0.00428238
0.00421772
0.0042587
0.0042907
0.00418526
0.00416016
0.00423421
0.00409724
0.00410713
0.00408153
0.00408916
0.00423096
0.00424616
0.00414829
0.00415718
0.00411883
0.00413256
0.00424323
0.00430189
0.00430547
0.00397681
0.00385352
0.0038705
0.00381879
0.00383524
0.00397612
0.0038696
0.00387831
0.00387672
0.00391465
0.00396997
0.00373159
0.00374676
0.00376147
0.00373396
0.00398364
0.00396872
0.00379047
0.00380391
0.00376429
0.00377845
0.00396635
0.00394152
0.00393265
0.00398248
0.00396912
0.00384761
0.00383633
0.00389642
0.00388844
0.0042682
0.00426897
0.00430894
0.0043117
0.00431171
0.00431168
0.00431168
0.00430854
0.00364918
0.00388072
0.00390438
0.0037217
0.00362336
0.00382795
0.00385282
0.00372061
0.00370426
0.00407519
0.00386677
0.00386793
0.00404868
0.00384394
0.00380455
0.00386746
0.00386124
0.00406072
0.00375718
0.00373812
0.00376801
0.0037857
0.0036738
0.00368814
0.00372984
0.00426322
0.0042865
0.00428458
0.00428933
0.00428796
0.00426489
0.00424022
0.00424559
0.00424561
0.00423593
0.00423577
0.0042395
0.00424678
0.00427581
0.00427363
0.00428191
0.00427876
0.00425019
0.00369779
0.00376876
0.00377729
0.00375521
0.0037621
0.0036985
0.00373742
0.00382927
0.00384729
0.0037903
0.00380868
0.0037179
0.00372285
0.00364647
0.00365669
0.00364705
0.00364501
0.00369865
0.00373087
0.00374596
0.00367846
0.00370446
0.00369356
0.00425777
0.00425452
0.00421653
0.00416721
0.00418142
0.00369601
0.00371426
0.00381927
0.00371091
0.00368899
0.00374322
0.00373208
0.00383329
0.00368612
0.00368466
0.00407311
0.00407264
0.00431405
0.00431405
0.00431405
0.00431405
0.00431405
0.00431405
0.00431405
0.00431405
0.00431405
0.00431405
0.00431405
0.00431405
0.00431405
0.00431405
0.00431405
0.00431405
0.00431405
0.00431405
0.00431405
0.00431405
0.00431405
0.00431405
0.00431405
0.00431405
0.00431405
0.00431405
0.00431405
0.00431405
0.00431405
0.00431405
0.00431405
0.00431405
0.00431405
0.00431405
0.00431405
0.00431405
0.00431405
0.00431405
0.00431405
0.00431405
0.00431405
0.00431405
0.00431405
0.00431405
0.00431405
0.00431405
0.00431405
0.00431405
0.00431405
0.00431405
0.00431405
0.00431405
0.00431405
0.00431405
0.00431405
0.00431405
0.00431405
0.00431405
0.00431405
0.00431405
0.00431405
0.00431405
0.00431405
0.00431405
0.00431405
0.00431405
0.00431405
0.00431405
0.00431405
0.00431405
0.00431405
0.00431405
0.00431405
0.00431405
0.00431405
0.00431405
0.00431405
0.00431405
0.00431405
0.00431405
0.00431405
0.00431405
0.00431405
0.00431405
0.00431405
0.00431404
0.00431404
0.00431405
0.00431405
0.00431405
0.00431405
0.00431405
0.00431405
0.00431405
0.00431405
0.00431405
0.00431405
0.00431405
0.00431405
0.00431405
0.00431404
0.00431404
0.00431405
0.00431405
0.00431405
0.00431405
0.00431405
0.00431405
0.00431405
0.00431405
0.00431405
0.00431405
0.00431404
0.00431404
0.00431405
0.00431405
0.00431405
0.00431405
0.00431405
0.00431405
0.00431405
0.00431405
0.00431405
0.00431405
0.00431405
0.00431405
0.00431405
0.00431405
0.00431405
0.00431405
0.00431405
0.00431405
0.00431405
0.00431405
0.00431405
0.00431405
0.0043135
0.0043135
0.0037784
0.00427319
0.00427597
0.00431405
0.00431405
0.00431405
0.00431405
0.00431405
0.00431405
0.00431405
0.00431405
0.00431405
0.00431405
0.00431405
0.00431405
0.00431404
0.00397112
0.00396021
0.00415485
0.00431405
0.00431405
0.00431405
0.00431405
0.00431405
0.00431405
0.00431405
0.00431405
0.00431405
0.00431404
0.00431405
0.00431217
0.00413151
0.00397431
0.00423791
0.004314
0.00431405
0.00431405
0.00431405
0.00431405
0.00431405
0.00431405
0.00431405
0.00431405
0.00431405
0.00431405
0.00431405
0.00431405
0.00431405
0.00431404
0.00431404
0.00431405
0.00431405
0.00431404
0.00431403
0.00431405
0.00431405
0.00431405
0.00431404
0.00431404
0.00431405
0.00431405
0.00431403
0.00431403
0.00431403
0.00431403
0.00431405
0.00431404
0.00431404
0.00431405
0.00431405
0.00431404
0.00431404
0.00431403
0.00431404
0.00431405
0.00431405
0.00431405
0.00431405
0.00431404
0.00431405
0.00431405
0.0043135
0.00431372
0.00431405
0.00353999
0.00385855
0.00386187
0.00406233
0.00406297
0.00337894
0.00431405
0.00431405
0.00431405
0.00431405
0.00431405
0.00431405
0.00431405
0.00431405
0.00431404
0.00431405
0.00431405
0.00431405
0.00431405
0.00431405
0.00431405
0.00431405
0.00431405
0.00431405
0.00431405
0.00431405
0.00431405
0.00431405
0.00431405
0.00431405
0.00431405
0.00431405
0.00431405
0.00431405
0.00431405
0.00431405
0.00431404
0.00431401
0.00431405
0.00431405
0.00431405
0.00431405
0.00431405
0.00431405
0.00431405
0.00431405
0.00431405
0.00431405
0.00431405
0.00431405
0.00431405
0.00431405
0.00431405
0.00431405
0.00431405
0.00431405
0.00431405
0.00431405
0.00431405
0.00431405
0.00431405
0.00431405
0.00431327
0.00431384
0.0043138
0.00431401
0.00431399
0.00431382
0.00431318
0.00431271
0.00431349
0.00431405
0.00431405
0.00431405
0.00431405
0.00431405
0.00431405
0.00431405
0.00431405
0.00431405
0.00431405
0.00431405
0.00431405
0.00431405
0.00431405
0.00431405
0.00431405
0.00431405
0.00431405
0.00431404
0.00431404
0.00431405
0.00431047
0.00431318
0.00431318
0.00431325
0.00431322
0.00431067
0.00431405
0.00431405
0.00431405
0.00431405
0.00431405
0.00431405
0.00431405
0.00431405
0.00431405
0.00431405
0.00431405
0.00431405
0.00431405
0.00431405
0.00431405
0.00431405
0.00431405
0.00431405
0.00431404
0.00431404
0.00431405
0.00431151
0.00431401
0.00431401
0.00431333
0.00431335
0.00431123
0.00430322
0.00428401
0.00428658
0.00431405
0.00431405
0.00431405
0.00431405
0.00431405
0.00431405
0.00431405
0.00431405
0.00431405
0.00431204
0.00429943
0.00430241
0.00430699
0.00430753
0.0043119
0.00431405
0.00431405
0.00431405
0.00431405
0.00431405
0.00431405
0.00431405
0.00431405
0.00431405
0.00431358
0.00431223
0.00431237
0.00431095
0.00431123
0.00431334
0.00431373
0.0043135
0.00431405
0.00378219
0.0043072
0.00430671
0.00416832
0.00417042
0.00364767
0.00431273
0.00431259
0.00398196
0.00431405
0.00431395
0.004314
0.004314
0.00431395
0.00431405
0.00431398
0.00431403
0.00431402
0.00431405
0.00431405
0.00431404
0.00431405
0.00431405
0.00431405
0.00431403
0.00431382
0.00431401
0.00431405
0.00431405
0.00431405
0.00431403
0.00431404
0.00431405
0.00431377
0.00431345
0.00431337
0.00431404
0.00431403
0.00431404
0.00431405
0.00431405
0.00431405
0.00431405
0.00431405
0.00431405
0.00431402
0.00431403
0.00431399
0.00431119
0.00431335
0.00431329
0.00431374
0.00431368
0.00431256
0.00431405
0.00431404
0.00431405
0.00430933
0.00430242
0.00430423
0.00428418
0.0042848
0.00430187
0.00430539
0.00430621
0.00431075
0.00431404
0.00431404
0.00431405
0.0043123
0.00431317
0.00431326
0.00431371
0.00431401
0.00431402
0.00431332
0.00431336
0.0043126
0.00431405
0.00431405
0.00431404
0.00431096
0.00431329
0.00431331
0.00431319
0.0043132
0.0043106
0.00431405
0.00431404
0.00431404
0.00430069
0.00428181
0.00428098
0.0042903
0.00428954
0.0043042
0.00430092
0.00428307
0.00428361
0.00428038
0.00427998
0.00429989
0.00431403
0.00431403
0.00431405
0.00431245
0.00431238
0.00430918