/*--------------------------------*- C++ -*----------------------------------*\
| =========                 |                                                 |
| \\      /  F ield         | OpenFOAM: The Open Source CFD Toolbox           |
|  \\    /   O peration     | Version:  5.x                                   |
|   \\  /    A nd           | Web:      www.OpenFOAM.org                      |
|    \\/     M anipulation  |                                                 |
\*---------------------------------------------------------------------------*/
FoamFile
{
    version     2.0;
    format      ascii;
    class       volScalarField;
    location    "200";
    object      p;
}
// * * * * * * * * * * * * * * * * * * * * * * * * * * * * * * * * * * * * * //

dimensions      [0 2 -2 0 0 0 0];

internalField   nonuniform List<scalar> 
6584
(
32.7099
31.6746
30.7953
30.3836
30.3648
30.8663
31.863
33.39
35.1052
36.789
37.4283
35.9295
31.4611
24.1469
15.0584
5.54217
-3.33203
-11.2328
-17.9647
-23.6429
-28.3737
-32.3916
-35.6562
-38.6451
32.434
31.4758
30.5409
30.1154
30.0532
30.5502
31.5746
33.2626
35.2347
37.3748
38.4868
37.332
32.8022
25.0207
15.3651
5.25426
-3.91455
-11.9334
-18.6369
-24.241
-28.8667
-32.828
-35.9872
-39.0625
31.8388
30.8984
29.8587
29.3561
29.1811
29.6374
30.731
32.864
35.4
38.1965
41.7803
42.7145
39.1041
30.536
19.0978
4.16539
-5.70125
-13.9703
-20.5496
-25.8942
-30.2274
-33.9727
-36.9121
-39.9552
31.0578
30.0543
28.8585
28.1924
27.8061
28.0926
29.1991
31.762
35.8771
40.3876
47.1376
51.5467
48.6944
36.8914
21.1875
6.51778
-8.8349
-17.3535
-23.5807
-28.4079
-32.253
-35.6113
-38.2345
-41.1029
30.1529
29.0091
27.5994
26.6491
25.9021
25.7525
26.547
29.1083
33.2158
41.7339
53.3523
65.06
64.3588
45.3953
21.3718
2.37976
-10.5674
-22.6687
-27.9894
-31.7689
-34.8603
-37.6245
-39.834
-42.3932
29.1778
27.8194
26.1379
24.7607
23.4531
22.37
22.3023
23.5824
28.7608
38.0547
55.5585
87.049
100.213
63.6576
16.5995
-7.48197
-19.9967
-29.7264
-33.5618
-35.8375
-37.9168
-39.8864
-41.5942
-43.7193
28.2092
26.5782
24.5911
22.6789
20.67
18.3445
16.8519
16.7939
17.83
24.0817
46.1801
104.761
191.676
70.3562
2.79897
-27.1692
-33.9765
-38.9197
-40.1052
-40.3689
-41.1852
-42.1965
-43.3477
-44.9417
27.3321
25.4039
23.1211
20.6441
17.8742
14.1801
10.6046
8.32625
2.66138
-2.93178
-0.106743
29.1769
-8.77925
-52.7074
-58.5261
-52.5864
-49.2055
-46.8988
-44.8657
-44.2935
-44.2881
-44.8901
-45.909
26.6233
24.4191
21.9053
18.9493
15.5254
10.6905
5.09565
0.0261213
-12.6433
-33.7344
-65.2329
-146.267
-231.281
-131.809
-93.1139
-71.3508
-58.417
-52.6282
-48.5678
-46.758
-45.8568
-46.0071
-46.4818
26.1359
23.7244
21.097
17.8689
14.1034
8.7797
2.09543
-4.86481
-20.8138
-48.9623
-95.6597
-202.415
-337.8
-181.053
-113.975
-83.2275
-63.9004
-55.8519
-50.6789
-48.1076
-46.628
-46.5143
-46.5565
25.8863
23.3686
20.7689
17.5364
13.8418
8.84136
2.42486
-4.6755
-18.5814
-41.6412
-78.8782
-151.425
-299.103
-175.206
-112.149
-83.8541
-64.0157
-55.76
-50.7396
-48.065
-46.4445
-46.3054
-46.0887
25.8495
23.3329
20.8837
17.884
14.6112
10.5513
5.50139
-0.157729
-8.48047
-19.4683
-34.3856
-51.0684
-184.088
-128.673
-91.6658
-74.16
-59.0862
-52.56
-48.8071
-46.6613
-45.3156
-45.3843
-45.1037
25.9672
23.5396
21.3124
18.6838
16.0105
13.107
9.8344
6.32907
3.81056
4.2099
9.08388
33.7251
-60.2859
-70.8296
-63.8364
-58.9584
-51.0087
-47.3047
-45.3794
-44.1942
-43.4285
-43.8592
-43.6901
26.1669
23.8813
21.8882
19.6555
17.5705
15.6927
13.923
13.9718
13.2999
20.4351
32.4151
70.3387
151.286
17.464
-26.2872
-39.2465
-43.5271
-42.0901
-41.3004
-41.1764
-41.1008
-41.0361
-41.9048
-41.9737
26.3798
24.2535
22.4598
20.5618
18.9241
17.7146
16.8791
17.5145
18.77
25.7033
36.5134
55.4584
61.5909
27.175
-7.08207
-22.9915
-30.5635
-33.8751
-35.5572
-36.8529
-37.8007
-38.4051
-39.7095
-40.0831
26.5528
24.5764
22.9249
21.2657
19.9023
19.0326
18.5661
19.5005
20.7891
25.4995
33.2342
38.8028
33.6694
16.0413
-0.265376
-14.0693
-23.5766
-27.6348
-30.6787
-32.8608
-34.608
-35.7787
-37.454
-38.1527
26.6531
24.8025
23.2336
21.7208
20.4787
19.7285
19.2281
20.1106
20.8103
22.9276
26.0794
26.0867
22.3395
11.9972
0.54414
-9.48024
-18.1199
-22.9233
-26.67
-29.3905
-31.6946
-33.2859
-35.2538
-36.2582
26.6658
24.9112
23.3741
21.9334
20.6971
19.909
19.1898
19.4553
19.9298
19.5781
21.1012
21.8532
11.1879
7.83491
-2.19016
-8.04707
-14.3861
-19.522
-23.4756
-26.493
-29.1361
-31.0221
-33.1908
-34.4621
26.5892
24.9023
23.3592
21.9388
20.6377
19.7341
18.7342
18.5144
17.7784
18.842
11.1286
18.4209
13.3404
-0.668279
-0.210553
-7.52523
-12.5858
-17.2759
-21.0578
-24.1583
-26.9555
-29.0296
-31.3174
-32.809
26.4307
24.7876
23.2148
21.7857
20.3846
19.3602
18.0449
17.6197
15.745
17.073
11.0741
14.4756
10.8237
0.737449
-0.128186
-7.37642
-11.2415
-15.6849
-19.2037
-22.2907
-25.1207
-27.3065
-29.651
-31.3171
26.2023
24.5851
22.9696
21.5192
20.0031
18.8818
17.2634
16.7286
14.2407
15.0561
10.0982
10.7094
7.63342
0.759588
-0.741736
-7.15197
-10.2485
-14.5191
-17.7502
-20.7917
-23.5826
-25.8321
-28.1885
-29.989
25.9175
24.3137
22.6501
21.1757
19.5431
18.3482
16.4764
15.8261
13.036
13.3067
8.86923
8.45417
5.63642
0.189076
-1.39251
-6.98247
-9.60331
-13.6628
-16.611
-19.5887
-22.2969
-24.579
-26.9168
-28.8184
25.5899
23.9917
22.2797
20.7833
19.0427
17.791
15.7275
14.9598
12.039
11.8979
7.90973
6.93075
4.31027
-0.251665
-1.92034
-6.86682
-9.18376
-13.0172
-15.7168
-18.6202
-21.2232
-23.5176
-25.8174
-27.7932
25.2324
23.635
21.8778
20.3632
18.5293
17.2324
15.0344
14.1566
11.2065
10.736
7.11475
5.76526
3.29093
-0.626225
-2.36496
-6.78202
-8.90143
-12.5155
-15.0093
-17.8337
-20.3255
-22.6192
-24.8702
-26.8987
24.8559
23.2569
21.4598
19.9307
18.0207
16.6864
14.4014
13.4213
10.5009
9.76333
6.44282
4.86692
2.48582
-0.961954
-2.74455
-6.71942
-8.71011
-12.117
-14.4444
-17.189
-19.5725
-21.8567
-24.0541
-26.1187
24.4702
22.8682
21.0374
19.4968
17.5281
16.1617
13.8272
12.7534
9.89569
8.9451
5.85976
4.15106
1.84366
-1.24136
-3.0614
-6.67209
-8.58028
-11.7953
-13.9903
-16.655
-18.9379
-21.2063
-23.3497
-25.4373
24.0829
22.4774
20.6193
19.0694
17.0577
15.6626
13.3073
12.1494
9.37146
8.25753
5.35589
3.5815
1.35834
-1.47108
-3.32487
-6.63688
-8.49272
-11.5315
-13.6219
-16.2083
-18.401
-20.6493
-22.7406
-24.8397
23.7003
22.0908
20.2115
18.6534
16.6129
15.1915
12.8365
11.6047
8.91185
7.675
4.93002
3.12777
0.962798
-1.69612
-3.54756
-6.60864
-8.42891
-11.3076
-13.3165
-15.8273
-17.9415
-20.1661
-22.2094
-24.3109
23.3273
21.713
19.8181
18.2518
16.1948
14.7484
12.4091
11.1137
8.5045
7.17263
4.56001
2.74358
0.627918
-1.88693
-3.73144
-6.58595
-8.3808
-11.1152
-13.0597
-15.4975
-17.5437
-19.7415
-21.7413
-23.8384
22.9675
21.3473
19.4419
17.8666
15.8027
14.3323
12.0189
10.6683
8.14141
6.73534
4.23519
2.41438
0.341769
-2.04923
-3.88528
-6.56668
-8.3423
-10.9467
-12.84
-15.2071
-17.1949
-19.363
-21.3236
-23.4102
22.6234
20.9957
19.0836
17.4981
15.4351
13.9416
11.6594
10.26
7.81314
6.34925
3.94617
2.1283
0.0942589
-2.19089
-4.01612
-6.54925
-8.30923
-10.7959
-12.6476
-14.9464
-16.8841
-19.0198
-20.9454
-23.016
22.2973
20.6596
18.7446
17.1459
15.0908
13.5731
11.3282
9.88493
7.51436
6.004
3.6853
1.87494
-0.125152
-2.31912
-4.12964
-6.53295
-8.27895
-10.6579
-12.4757
-14.7077
-16.6025
-18.7028
-20.5974
-22.6467
21.9889
20.3369
18.4225
16.8065
14.7648
13.2191
11.0192
9.53395
7.23851
5.68889
3.44643
1.64532
-0.322595
-2.43625
-4.22933
-6.51643
-8.2503
-10.5283
-12.3188
-14.4841
-16.3422
-18.4034
-20.2704
-22.2928
21.7069
20.0349
18.125
16.4855
14.4638
12.8856
10.7383
9.20986
6.99111
5.40448
3.22333
1.43124
-0.506984
-2.55678
-4.31946
-6.49798
-8.22149
-10.4029
-12.1732
-14.2712
-16.0998
-18.1181
-19.9615
-21.9511
21.4217
19.7153
17.8185
16.1388
14.1552
12.5241
10.4521
8.85985
6.74049
5.10537
3.01305
1.22435
-0.675773
-2.65395
-4.40508
-6.47306
-8.20031
-10.2749
-12.0371
-14.0552
-15.8626
-17.8259
-19.6501
-21.5942
21.2574
19.516
17.6375
15.9172
13.9772
12.2938
10.2986
8.65321
6.62886
4.95789
2.79629
1.01913
-0.866592
-2.90107
-4.47126
-6.4294
-8.1582
-10.1439
-11.9128
-13.8645
-15.6668
-17.5827
-19.3994
-21.3018
-131.121
-225.628
1.53873
-201.432
-362.104
-251.916
-162.367
-334.776
-368.232
-63.6231
-209.409
-321.388
25.2443
-71.3032
-192.147
70.1504
169.666
164.099
24.7547
-55.4331
51.2745
191.326
30.8202
92.2241
-50.7797
-114.678
22.916
-162.798
107.999
-208.022
-126.581
-51.3823
-92.7328
-181.798
-128.579
-180.342
-261.192
-219.88
-451.695
-362.861
-332.331
-199.047
-149.554
-86.8911
-149.879
-182.702
-194.951
-271.1
-285.369
-496.858
-507.059
-310.204
-205.056
-207.026
-46.442
-61.4599
-140.079
-115.169
-138.769
-202.413
-328.506
-420.508
-199.854
-155.288
-196.408
-146.857
-229.218
-74.7159
-85.7009
-138.301
35.7217
-40.1322
61.0325
66.6992
154.27
64.1887
40.705
28.6825
-211.699
-120.386
-72.0018
-133.269
-228.116
91.1806
-114.587
-355.281
-187.222
-135.069
-178.536
-345.529
-284.26
-265.176
-187.948
-275.121
-294.796
-236.168
-274.438
-501.68
-456.192
-329.197
-441.367
-496.759
-352.07
-437.304
-313.652
-210.679
-265.027
-188.751
-274.766
-215.667
-294.153
-278.93
-425.09
-492.552
-364.659
-490.413
-414.715
-500.003
-494.138
-369.945
-133.697
-67.1341
-210.094
-143.423
-235.037
-322.549
-259.326
-319.898
-234.535
-409.603
-325.698
-275.698
7.55724
51.5143
-58.0809
0.375035
-51.9241
-135.289
-223.547
-145.218
-139.25
98.9172
115.559
56.4973
95.9886
88.3292
43.0782
-48.138
-100.732
80.7568
-46.1881
253.588
-0.425061
20.3327
-50.0243
-15.1795
-2.11914
-58.196
16.9974
-33.9486
14.0067
-28.5645
-69.136
183.412
-75.3552
89.6898
-151.017
-100.703
-66.6599
-129.494
-102.322
-104.107
-65.5261
43.6656
65.5183
-60.1476
-23.802
-41.0033
-89.2806
-121.975
-133.743
-54.6141
68.4448
95.0039
-43.536
24.9825
-12.3069
314.366
200.272
120.904
139.594
209.395
317.739
-83.5973
-52.8875
-93.3514
229.405
-55.3619
-13.177
-417.959
-409.184
-512.606
-511.638
-369.529
-376.266
-180.898
-148.994
-184.084
71.4915
24.0671
-35.2238
14.074
-5.09252
-207.532
-184.055
-251.604
-212.656
-254.774
-196.864
-201.219
-84.8526
-36.1606
-103.437
-196.614
-287.921
-278.589
-287.515
-287.436
-255.207
-256.726
-481.56
-480.931
-476.294
-405.173
-382.61
-425.276
-411.023
-478.396
-400.184
-333.939
-294.775
-374.353
-345.11
-406.411
-251.256
-246.228
-294.841
-292.539
-461.789
-464.743
-462.797
-402.494
-420.012
-373.182
-395.512
-458.958
-507.149
-433.106
-428.404
-424.672
-432.473
-507.439
-108.962
-105.968
-109.526
-147.93
-65.8262
-104.361
-96.0105
-182.578
-152.407
-172.53
-276.26
-282.514
-370.004
-338.101
-365.169
-300.284
-328.708
-364.419
17.2796
41.2066
-31.4622
-24.4785
-60.4778
11.2595
-19.8527
-23.1917
-18.878
13.2835
-87.5231
-89.9342
-42.0184
-143.645
-95.8563
-100.036
-94.3559
128.57
144.461
189.755
98.489
122.805
191.582
113.214
76.2163
462.485
29.3374
57.1191
28.1477
54.953
83.8753
54.8037
100.232
77.7264
87.2092
272.655
46.6348
4.81665
-4.22559
60.4402
69.0708
227.96
146.733
142.572
73.2386
84.8367
123.897
120.955
193.802
473.286
324.685
214.646
291.181
362.488
486.352
-247.236
-205.603
-222.605
-441.436
-388.992
-384.746
-283.045
-237.939
-230.749
-241.413
-241.631
-284.967
-506.094
-508.661
-346.381
-402.396
92.8762
78.4044
6.00071
20.585
61.081
110.234
90.8847
103.577
-5.38498
-61.6304
171.087
-327.968
-357.432
-384.596
-256.962
-210.01
-144.807
-279.977
-227.796
-278.736
-278.26
-236.49
-242.912
-224.603
-236.208
-275.594
-281.684
-304.837
-296.583
-321.161
-320.264
-291.528
-294.083
-288.456
-266.827
-495.748
-466.801
-457.031
-427.354
-418.955
-461.866
-453.515
-490.41
-224.9
-211.434
-243.644
-265.955
-285.291
-302.493
-296.406
-325.717
-322.417
-306.598
-317.848
-285.68
-440.975
-482.113
-479.837
-445.711
-454.026
-405.115
-408.152
-432.233
-503.915
-468.194
-462.022
-458.542
-463.813
-502.252
-252.429
-260.522
-241.415
-330.606
-317.695
-307.111
-280.413
-261.096
-290.522
-221.166
-250.845
-268.85
27.6638
37.0139
15.0748
61.8101
43.4023
33.7448
140.09
148.207
75.1248
89.1268
68.212
128.554
137.999
112.866
98.179
65.9051
352.323
114.849
26.1917
-5.75114
-1.68763
26.4268
-10.1032
-13.1338
55.9334
44.8247
258.436
-7.33218
17.2235
-88.1717
-80.4168
52.7816
58.0571
52.9661
58.0537
51.2012
69.1229
60.533
55.6376
-43.8075
-38.1947
-61.2768
-68.2974
79.2804
83.4767
72.292
89.2563
104.234
-154.404
-130.423
-52.7869
-210.094
-152.48
-177.593
-437.728
-390.897
-508.299
-512.514
-351.692
-396.454
-172.44
-169.847
-188.388
-146.553
-164.156
-164.808
-218.948
-237.744
-194.305
-211.737
51.8515
68.4158
86.0634
33.2857
60.5778
45.8602
66.1301
36.3811
-231.049
-201.918
-223.322
-164.907
-193.632
-223.001
-248.316
-259.016
-229.163
-244.427
-154.236
-117.124
-155.075
-170.292
-184.824
-329.398
-349.631
-320.42
-330.329
-281.109
-228.151
-322.111
-295.252
-241.218
-277.283
-319.052
-313.875
-308.227
-282.108
-311.973
-317.9
-307.161
-308.078
-326.435
-324.538
-317.104
-323.364
-291.785
-318.519
-314.227
-280.325
-290.428
-262.589
-275.929
-299.354
-304.593
-292.663
-298.909
-265.842
-287.197
-280.96
-495.257
-467.206
-441.455
-429.333
-462.052
-488.414
-452.768
-442.693
-266.456
-280.396
-261.386
-289.919
-275.751
-308.64
-294.591
-252.859
-233.257
-270.506
-257.472
-326.208
-325.356
-295.059
-329.921
-333.173
-326.57
-331.306
-323.39
-310.526
-330.162
-326.215
-289
-320.216
-324.733
-446.527
-474.815
-430.597
-440.542
-474.494
-440.27
-413.769
-425.337
-470.376
-467.398
-506.126
-504.347
-467.251
-468.34
-125.435
-124.05
-121.904
-106.771
-143.034
-127.184
-131.795
-81.9826
-79.5689
-68.1763
-101.566
-84.9612
-87.7709
-205.991
-189.64
-227.073
-211.528
-167.196
-163.272
-148.121
-184.455
-168.362
-174.766
-285.081
-267.735
-258.949
-268.456
-284.431
-243.028
-260.874
-290.447
-301.038
-310.801
-288.799
28.5129
33.5159
24.2139
48.7737
37.247
32.0505
50.3299
-4.24245
19.4531
0.581919
-124.012
-122.99
-140.486
-95.7475
-116.966
-117.026
-116.191
-123.065
152.045
169.291
109.948
124.479
147.696
119.324
15.8079
-28.6426
14.1671
-0.669115
37.2789
65.949
635.428
468.463
387.563
497.264
543.648
656.488
81.5544
171.38
117.75
-177.913
-201.583
-241.59
-447.595
-449.968
-454.828
-502.796
-507.003
-178.135
-157.205
-175.934
-421.524
-415.722
-415.036
-235.553
-216.656
-211.865
-180.989
-139.28
-171.272
-252.913
-239.587
-218.713
-216.703
-263.386
-229.673
-242.309
-267.917
-256.618
-497.89
-460.972
-465.483
-460.483
-481.338
-478.818
-493.954
-410.924
-402.532
-425.934
-235.611
-204.169
-186.241
-227.622
-243.62
-229.367
-430.337
-427.802
-424.207
-489.675
-487.192
-470.542
-473.842
-501.442
-485.512
-483.733
-477.416
-480.735
-498.123
-201.115
-208.854
-222.687
-392.814
-381.364
-393.539
-190.18
-180.639
-210.826
146.593
147.612
115.446
96.3829
79.8822
146.233
146.702
71.8823
99.9843
67.8805
-34.1638
-13.2998
-99.193
-64.6895
-69.9529
-71.0667
-54.7664
-53.9166
-59.3033
-22.42
-27.2158
-28.7111
-87.9169
-82.0025
-82.952
101.995
87.7658
82.6201
198.984
313.23
263.519
-106.32
-123.916
-104.088
-72.8779
-225.467
-206.319
-27.4189
49.6365
68.3961
-429.49
-432.021
-425.047
-402.028
-416.272
-422.709
-516.04
-512.324
-376.014
-369.625
-362.986
-383.671
-388.453
-381.635
-184.666
-189.677
-148.367
-154.214
-154.191
-194.404
-199.19
-205.673
-210.058
-193.553
-216.002
-243.564
-244.276
-250.191
-188.99
-198.977
-221.443
-271.269
-276.555
-254.655
-257.432
-254.666
-60.5233
-106.104
-138.89
-126.343
-118.567
-130.82
-181.02
-258.22
-247.302
-278.852
-271.12
-244.334
-280.388
-280.991
-484.793
-480.328
-370.83
-358.133
-380.918
-422.384
-393.334
-382.709
-234.624
-248.264
-261.585
-456.202
-466.833
-490.809
-490.768
-507.284
-508.442
-490.777
-490.684
-113.835
-114.884
-113.811
-108.283
-147.56
-142.594
-143.633
-188.065
-203.658
-192.597
-199.61
-194.588
-229.497
-225.414
-157.107
-157.563
-152.498
-189.963
-185.426
-359.008
-369.941
-387.114
-348.637
-338.821
-348.818
-38.9294
-37.8451
-28.7119
-58.6483
-48.0213
-44.2972
-68.9619
-73.2892
-89.1619
-47.8641
-60.8455
-62.0172
-137.303
-136.238
-142.207
-102.362
-94.9641
-139.54
172.286
173.963
183.863
120.947
112.515
120.624
107.09
134.502
124.444
116.976
180.567
151.57
91.8252
108.334
96.0819
192.166
376.66
100.829
63.0415
65.9076
175.75
177.487
200.972
76.8292
76.5268
72.0905
85.2331
80.7837
80.6682
196.769
162.65
154.403
344.114
489.736
441.462
-445.828
-446.965
-444.384
-391.597
-393.361
-387.117
-405.709
-394.806
-506.124
-506.622
-351.284
-355.322
-336.562
-344.002
-408.581
-408.29
-402.014
86.5688
90.831
97.3232
80.6222
85.504
81.111
-365.977
-364.37
-355.479
-380.586
-372.7
-375.603
-495.456
-463.77
-466.637
-467.202
-491.77
-476.719
-474.711
-436.705
-431.25
-436.763
-488.707
-463.132
-467.172
-484.451
-488.152
-486.658
-502.293
-500.85
-483.471
-485.368
-325.017
-325.986
-329.372
-315.797
-320.815
-321.186
149.469
152.106
138.677
142.299
132.231
138.196
134.329
118.386
111.292
107.579
112.524
117.828
101.959
106.084
102.932
51.0951
28.5556
17.4069
84.8964
297.362
255.027
326.492
138.538
171.312
221.185
7.00407
5.36425
-3.033
22.2795
14.0492
15.8356
-25.0229
-24.303
-32.4595
-11.09
-18.4722
-17.7146
74.5755
92.2956
33.5568
-65.3015
-96.8937
-23.0517
-29.5033
-94.3121
-76.4554
-75.2776
-82.0669
54.1375
55.8893
47.95
50.575
53.4511
-43.093
-48.5608
-49.3599
-26.1403
-21.2293
-32.1456
-33.0734
-30.7845
-37.5873
-58.9486
-53.5054
-54.944
-51.9211
-59.5936
-39.1283
-45.5229
-75.8591
-75.0618
-67.596
93.9386
94.8853
89.9374
105.924
100.196
98.9275
-162.179
-133.225
-129.036
-197.745
-205.961
-185.702
-433.471
-432.011
-437.972
-443.525
-414.143
-411.814
-425.047
-418.188
-512.777
-514.25
-368.19
-373.672
-359.181
-363.425
-357.071
-363.946
-358.87
-397.044
-392.462
-390.327
-382.569
-170.578
-178.8
-159.334
-160.002
-165.728
-226.046
-226.641
-219.041
-237.94
-233.595
-232.386
-200.016
-200.437
-195.109
-212.141
-204.383
-205.284
-205.766
42.1135
38.3035
29.8494
55.9834
45.9532
-221.847
-231.046
-238.338
-236.968
-227.013
-210.594
-220.292
-265.408
-267.376
-273.713
-269.912
-255.205
-254.409
-262.572
-157.058
-141.199
-152.497
-115.363
-192.364
-181.535
-173.036
-339.432
-322.615
-311.694
-345.334
-335.289
-348.792
-352.709
-340.539
-262.869
-265.087
-283.532
-248.42
-263.591
-246.562
-310.362
-296.165
-302.668
-306.785
-315.692
-318.695
-308.52
-312.167
-312.354
-310.717
-309.421
-325.242
-323.902
-318.123
-320.41
-285.679
-291.389
-285.588
-292.944
-292.425
-288.574
-266.177
-279.304
-276.972
-285.74
-282.325
-270.423
-282.795
-284.769
-300.507
-302.765
-301.893
-308.282
-305.202
-302.365
-295.094
-298.569
-295.42
-303.082
-303.413
-297.855
-489.085
-474.37
-285.81
-287.365
-289.795
-276.223
-282.714
-281.167
-304.012
-292.45
-296.588
-298.23
-246.95
-248.642
-255.321
-235.361
-241.44
-240.133
-265.84
-266.178
-270.535
-259.492
-262.516
-261.542
-330.405
-332.029
-329.334
-332.494
-317.994
-313.688
-327.303
-325.933
-450.712
-470.051
-507.522
-490.699
-489.573
-487.548
-489.481
-506.921
-118.822
-124.502
-119.442
-120.191
-138.382
-137.047
-130.629
-212.041
-205.315
-200.384
-205.735
-211.688
-222.208
-226.915
-229.75
-217.361
-222.178
-216.798
-222.325
-218.551
-168.526
-162.937
-161.985
-180.596
-173.14
-279.813
-276.373
-282.34
-263.855
-270.273
-274.259
-275.668
-280.356
-246.808
-248.445
-242.344
-254.183
-302.89
-302.099
-309.448
-287.884
-294.603
-296.047
30.1966
29.1753
32.6205
22.0545
25.8061
27.3794
46.4297
42.8823
45.3528
36.1854
39.8041
41.2956
45.6455
-6.52368
-1.67653
-16.3894
-11.2942
14.6247
13.242
17.5597
3.4217
9.91856
8.72113
-123.419
-130.125
-130.962
-109.268
-130.367
156.246
161.936
115.286
120.722
112.469
130.004
124.941
119.817
128.86
134.934
136.978
125.269
56.062
73.6275
59.6097
80.7708
90.8109
67.1409
89.3621
70.2279
56.769
59.7726
34.3702
33.3549
32.3708
43.0518
46.4414
51.4541
88.3489
78.0636
108.165
173.245
101.621
173.298
97.0678
76.1169
72.0916
21.7578
30.462
10.1579
-6.34303
2.7988
12.1465
11.6109
38.0762
15.3027
41.4922
87.408
101.758
166.108
146.571
275.34
199.808
159.888
70.8411
36.9684
47.7277
-34.7955
-36.7168
-18.8841
-19.1752
-41.698
-0.84389
-17.1269
-21.0729
0.904898
4.51434
7.38779
37.3357
-95.4424
-88.7689
-36.4123
-113.189
-83.9243
-59.2051
-44.1299
-76.8268
-53.3637
-77.3808
-96.515
-81.9467
-159.592
-179.742
-165.646
-287.605
-224.185
-178.498
-174.134
-125.496
-107.199
-47.9185
-73.392
-79.3924
-95.6468
-116.252
-117.17
-201.867
-223.881
-224.484
-339.318
-270.87
-262.868
-181.935
-138.684
-136.334
-31.565
-40.8552
-66.97
-69.1913
-80.6841
-93.1764
-139.901
-151.675
-165.034
-260.166
-220.949
-245.691
-142.696
-120.517
-132.909
-7.07701
-2.31788
-30.8802
-38.6977
-38.8466
-52.6628
-135.919
-126.25
-163.268
-84.9324
-84.7806
-103.7
13.3748
23.8707
5.80735
-20.6497
-41.0372
-62.3992
-35.0695
-48.7044
-65.8765
24.0353
29.8714
26.2779
37.4875
55.1687
60.2485
68.5665
85.0262
100.158
115.516
110.691
118.412
28.6311
-1.37218
-19.0858
-13.8484
-23.4688
-34.5313
26.0745
30.4663
31.0669
35.5333
40.1819
50.8301
42.0885
42.0634
65.4437
39.4919
29.1919
37.5732
21.314
7.95088
0.924663
-2.03098
-11.0903
-16.1497
29.4144
29.3227
34.039
29.5491
31.8207
36.6765
26.8786
20.6127
27.0615
13.7832
8.61755
9.52662
-149.12
-129.734
-113.569
-195.825
-219.015
-266.267
17.9396
-19.1503
-31.1031
-223.253
-220.231
-198.492
-353.461
-392.785
-407.592
-279.962
-317.836
-275.112
-177.78
-189.573
-172.263
-346.693
-383.811
-362.138
-410.525
-416.351
-371.707
-66.3797
-80.0407
-76.4275
-225.71
-244.596
-217.484
-353.73
-328.497
-306.876
-87.8047
-86.5526
-68.887
-200.416
-180.762
-174.33
99.7856
91.0228
59.106
188.153
172.997
159.109
155.232
155.422
185.628
-51.154
-33.6489
-40.0013
105.998
166.803
94.9586
745.171
634.982
641.227
162.047
194.708
272.463
755.017
783.408
52.9843
76.6769
51.958
142.711
167.695
89.4711
-64.0081
-43.3028
-34.3534
-61.175
-51.2812
-77.6546
5.96843
-22.4882
-40.7658
-129.781
-141.283
-198.8
131.866
87.34
70.6576
-163.625
-106.921
-125.167
-101.565
-107.198
-138.846
-45.1315
-75.1354
-76.2312
-114.219
-107.296
-86.5061
-168.283
-130.695
-138.664
-100.065
-117.83
-161.235
-201.413
-191.562
-170.751
-256.927
-243.414
-247.984
-205.309
-213.247
-226.448
-372.174
-381.415
-370.432
-260.986
-232.841
-301.981
-186.391
-213.402
-228.439
-167.901
-193.087
-169.905
-103.716
-111.595
-92.5402
-172.179
-133.984
-123.771
-141.791
-140.166
-177.489
-216.207
-221.124
-199.225
-276.148
-258.891
-254.604
-269.072
-269.289
-286.027
-255.173
-266.262
-334.847
-209.872
-239.432
-232.373
-237.77
-241.436
-210.791
-52.3228
-66.8525
-58.1725
-96.3169
-77.1695
-59.1933
-110.303
-94.4781
-107.959
-123.434
-137.72
-127.685
-166.448
-148.774
-126.261
-194.028
-186.033
-194.922
-334.872
-342.024
-334.358
-176.185
-208.87
-245.721
-170.952
-188.69
-169.388
-220.945
-206.138
-184.956
-158.318
-163.566
-146.007
-231.782
-226.022
-223.786
-86.3053
-108.061
-120.37
-102.974
-107.488
-86.8947
-148.881
-127.734
-120.676
26.5167
34.003
43.8807
-37.5813
-25.0787
-28.3453
66.6515
79.2526
65.6828
92.1263
84.4862
73.628
135.339
116.265
117.446
66.8488
73.2508
89.554
41.0342
62.9892
51.9059
70.9933
65.0944
40.0655
-202.546
-187.202
-196.776
-87.0304
-129.103
-168.356
-93.9811
-107.377
-81.8305
-152.952
-183.024
-156.291
59.5126
64.6505
104.195
-130.958
-106.873
-91.9818
-346.88
-355.951
-364.103
-196.174
-213.331
-204.148
-144.61
-181.466
-167.32
-207.371
-193.536
-167.042
-312.406
-297.424
-316.164
-282.673
-267.319
-268.527
-251.902
-255.606
-268.997
-194.164
-215.634
-209.343
-278.221
-284.715
-282.343
-304.367
-303.459
-292.99
-280.406
-278.1
-271.127
-365.308
-387.255
-342.474
-446.261
-439.952
-433.649
-374.33
-344.509
-329.447
-431.209
-424.978
-432.955
-295.645
-328.395
-357.496
-219.074
-210.164
-202.353
-249.501
-244.059
-258.304
-181.245
-200.155
-209.101
-272.66
-281.255
-285.051
-219.933
-224.352
-220.076
-295.901
-305.916
-304.966
-288.876
-291.973
-280.63
-406.037
-390.671
-356.79
-409.432
-411.963
-419.441
-372.307
-415.864
-410.281
-124.05
-125.998
-141.069
-68.799
-77.7115
-76.1713
-203.157
-213.378
-215.581
-146.221
-161.484
-152.975
-240.373
-242.95
-237.411
-327.438
-322.103
-317.515
-282.79
-254.475
-242.663
-307.265
-296.743
-306.932
-230.157
-241.172
-245.976
-404.444
-400.074
-403.843
-317.541
-328.343
-343.157
-291.567
-319.366
-292.386
14.5458
17.4538
10.224
55.1174
49.1607
45.645
-48.9499
-48.8531
-58.8652
2.7875
-4.99176
-7.16029
-63.7927
-62.8688
-50.1788
-140.095
-125.81
-123.802
-212.318
-208.358
-219.305
-140.212
-170.222
-179.928
-156.724
-161.517
-142.57
109.764
134.439
120.737
133.074
136.42
109.827
63.3318
67.3784
61.0142
72.0737
106.72
111.454
-53.3745
-22.9018
-22.1556
-29.1258
-23.3412
-72.8314
50.3122
13.5923
-1.85491
288.053
232.477
209.495
-7.13212
-7.58923
7.2425
-41.2481
-23.8844
-17.1772
-13.0907
-25.6457
-26.7126
-24.9122
-23.6776
-10.0474
-53.6361
-38.2343
-32.8544
9.50958
11.8964
19.8508
-32.8764
-26.0083
-26.9313
-8.51602
-22.9812
-9.97252
139.102
151.496
204.095
-113.103
-82.8555
-47.8159
-14.8304
-26.1215
36.3859
-122.474
-50.5478
-51.7665
-65.6377
-60.7295
-103.168
-92.8388
-86.6542
-67.2472
-117.926
-94.7204
-101.792
-89.4106
-94.4664
-108.952
47.0934
49.1277
46.0956
67.0037
63.6988
61.8826
-48.0823
-46.8834
-39.9606
-123.697
-104.994
-104.822
-99.5259
-99.4284
-130.143
-63.7844
-89.4793
-88.2716
72.1931
73.5825
70.1805
97.164
92.8086
90.4407
-10.2401
-26.2244
-45.8559
8.00367
-8.11858
-0.0568085
-25.5866
-17.3341
-2.34107
271.623
318.77
427.894
189.84
279.552
248.964
203.193
278.434
180.79
164.916
199.824
169.719
260.365
306.616
206.283
436.033
347.117
283.17
-49.6192
-120.515
-92.2014
111.126
111.998
163.856
-40.4387
-6.60033
-17.45
28.1238
38.0221
-7.42305
-187.738
-169.313
-169.897
-193.439
-197.42
-194.963
64.5194
69.615
75.7874
27.2969
34.834
31.0846
-14.71
-21.7339
-34.7455
4.59526
-8.59191
-7.67199
-16.6417
-12.5578
-0.140512
-211.426
-190.581
-169.639
-208.365
-234.77
-217.388
-184.474
-167.581
-178.981
-67.411
-89.5959
-104.562
-65.4565
-77.2567
-47.777
-301.012
-311.966
-300.222
-265.509
-278.033
-290.114
-295.927
-294.362
-285.101
-289.681
-298.371
-296.977
-262.787
-259.932
-250.87
-260.803
-267.767
-265.103
-461.298
-458.51
-473.573
-398.209
-416.937
-424.481
-401.544
-408.384
-390.648
-421.108
-442.447
-447.19
-431.003
-437.069
-416.555
-481.273
-466.421
-463.629
-389.667
-381.551
-393.507
-321.684
-340.074
-352.337
-312.835
-327.045
-308.842
-365.246
-384.131
-393.149
-363.783
-374.426
-355.724
-412.43
-402.166
-394.255
-256.134
-260.316
-254.118
-243.106
-247.305
-251.524
-305.86
-306.212
-294.31
-292.427
-303.482
-304.647
-446.735
-450.328
-466.176
-408.796
-430.898
-423.439
-443.837
-437.828
-414.863
-380.587
-397.1
-387.131
-415.283
-406.384
-388.35
-453.701
-438.676
-442.88
-432.413
-456.467
-457.57
-451.16
-454.316
-431.004
-428.193
-453.073
-449.044
-457.399
-455.957
-430.999
-106.939
-121.405
-114.668
-71.5119
-71.1672
-65.7595
-102.972
-97.653
-99.1492
-85.9122
-87.4588
-97.7269
-162.619
-166.716
-182.775
-279.091
-273.717
-270.959
-288.411
-290.856
-284.674
-365.691
-370.99
-375.755
-347.278
-358.881
-349.089
-378.027
-368.597
-356.529
-309.841
-318.989
-308.58
-339.244
-329.287
-319.437
-359.257
-354.318
-359.201
21.1718
22.8468
18.9972
43.307
40.5275
38.5534
-30.4464
-39.3449
-40.0424
-29.128
-30.226
-25.4225
-60.8272
-55.439
-55.1085
-1.04835
-2.36696
5.53687
-19.9486
-11.0208
-5.59248
-15.0304
-13.2902
-21.8584
-13.9658
-12.4908
-17.4565
14.7778
10.5385
9.25708
-87.6424
-75.6747
-75.6105
-83.4554
-83.7969
-89.787
-43.0621
-50.1688
-48.9175
-95.9262
-102.591
-102.593
-112.529
-111.856
-100.014
133.898
145.536
136.991
161.765
148.733
139.009
103.214
105.396
101.254
103.331
114.218
136.77
81.2481
86.9352
83.092
51.4099
40.3722
46.0196
20.3205
31.2912
48.0413
74.8703
65.23
73.1065
46.7018
56.2502
64.526
95.2029
103.22
109.73
80.4389
94.3035
86.9738
107.753
95.9424
82.8287
30.5295
26.1836
36.7545
2.80958
14.8848
24.6169
6.21929
10.1466
-1.16469
204.805
217.725
266.266
149.375
166.594
165.257
151.757
161.454
148.386
127.73
140.133
134.759
141.733
144.905
128.007
249.907
189.366
188.219
431.282
468.66
588.84
322.466
386.247
375.791
328.227
415.051
301.638
321.556
365.318
332.46
412.731
479.182
369.055
605.454
524.18
461.221
-233.116
-238.617
-252.36
-213.109
-225.056
-219.277
-234.439
-229.642
-216.066
-377.397
-389.661
-399.519
-265.369
-262.623
-280.146
-237.406
-250.897
-253.061
-243.746
-247.371
-232.578
-243.406
-256.552
-256.002
-255.128
-255.853
-240.876
-285.88
-268.655
-267.506
-353.974
-348.854
-340.985
11.9975
23.4182
16.6628
37.5251
29.5634
17.3251
52.4
41.3287
49.3429
104.585
114.163
127.579
97.1069
106.183
97.787
115.125
108.121
99.2025
-13.2983
24.8489
27.0003
26.894
26.4203
-20.6749
121.881
75.478
61.1582
-339.631
-348.013
-339.143
-239.916
-217.48
-233.303
-187.834
-201.885
-223.731
-155.194
-179.511
-168.194
-264.232
-280.925
-297.215
-244.023
-263.432
-247.338
-298.929
-279.881
-260.634
-263.795
-265.861
-280.661
-240.448
-252.69
-250.278
-255.582
-254.024
-239.884
-230.259
-242.076
-238.117
-248.158
-244.97
-231.403
-272.452
-258.683
-261.559
-288.873
-286.689
-278.784
-302.566
-294.752
-296.436
-290.989
-292.905
-299.19
-320.512
-309.312
-310.017
-308.219
-308.947
-320.567
-293.514
-302.932
-301.878
-291.892
-287.004
-289.061
-283.182
-285.118
-289.997
-270.295
-276.285
-274.082
-447.3
-443.396
-450.982
-420.9
-432.249
-437.02
-457.989
-471.791
-474.425
-467.079
-469.727
-457.545
-221.952
-233.978
-238.852
-222.192
-228.032
-215.33
-251.202
-238.045
-231.75
-273.029
-276.852
-268.168
-290.213
-282.884
-279.297
-290.926
-287.088
-296.745
-306.816
-306.349
-295.033
-325.618
-312.865
-313.163
-310.9
-311.994
-324.013
-310.356
-297.445
-294.301
-303.674
-300.697
-314.171
-284.416
-295.191
-297.689
-447.738
-462.671
-459.244
-469.115
-466.227
-452.529
-419.375
-416.498
-403.445
-426.004
-419.16
-423.733
-465.142
-479.7
-481.419
-476.356
-478.495
-465.511
-459.569
-475.027
-472.457
-479.34
-477.688
-463.56
-255.321
-249.009
-246.539
-253.262
-250.451
-257.098
-238.924
-244.299
-246.738
-312.335
-316.343
-310.82
-275.016
-286.95
-291.996
-271.088
-277.501
-266.992
-298.152
-287.659
-280.873
-230.174
-235.7
-225.552
-256.515
-246.112
-240.551
-257.7
-252.471
-263.579
31.1319
24.3777
21.185
29.708
27.1866
33.6422
13.0064
20.2729
26.3091
55.4286