/*--------------------------------*- C++ -*----------------------------------*\
| =========                 |                                                 |
| \\      /  F ield         | OpenFOAM: The Open Source CFD Toolbox           |
|  \\    /   O peration     | Version:  5.x                                   |
|   \\  /    A nd           | Web:      www.OpenFOAM.org                      |
|    \\/     M anipulation  |                                                 |
\*---------------------------------------------------------------------------*/
FoamFile
{
    version     2.0;
    format      ascii;
    class       volScalarField;
    location    "200";
    object      p_rgh;
}
// * * * * * * * * * * * * * * * * * * * * * * * * * * * * * * * * * * * * * //

dimensions      [0 2 -2 0 0 0 0];

internalField   nonuniform List<scalar> 
6584
(
11.7163
12.5059
13.452
14.8656
16.6723
18.9995
21.8221
25.1747
28.7154
32.2247
34.6894
35.0162
32.3733
26.8846
19.6216
11.9309
4.88232
-1.19283
-6.09879
-9.95078
-12.8553
-15.0472
-16.4863
-17.6505
11.4387
12.3027
13.1918
14.5914
16.3544
18.6781
21.5307
25.046
28.8439
32.8094
35.7468
36.4174
33.7132
27.7572
19.9273
11.6425
4.30049
-1.89114
-6.76685
-10.5436
-13.3425
-15.4777
-16.8125
-18.0669
10.8427
11.7217
12.5026
13.8235
15.4733
17.7563
20.6803
24.6443
29.0077
33.174
38.5831
41.3427
39.5578
32.8153
23.2028
10.5567
2.52106
-3.91889
-8.67032
-12.1881
-14.6956
-16.6167
-17.7351
-18.959
10.0614
10.8765
11.4996
12.654
14.0909
16.2027
19.1394
23.535
29.481
35.3641
43.9394
50.1738
49.147
39.1703
25.2985
12.4609
-0.598297
-7.2897
-11.6914
-14.6936
-16.7152
-18.2526
-19.0567
-20.1065
9.15638
9.83097
10.2397
11.1082
12.1817
13.8555
16.4768
20.8652
26.3531
36.7066
50.152
63.6859
64.8102
47.6819
25.5017
8.34445
-2.77522
-12.5949
-16.0921
-18.0487
-19.3195
-20.2648
-20.6558
-21.3967
8.18122
8.64098
8.77776
9.2188
9.7299
10.4672
12.2214
14.8692
21.8746
32.9984
52.1146
85.4442
100.436
65.7366
20.7504
-1.50372
-12.1954
-19.6455
-21.6589
-22.1143
-22.3749
-22.5261
-22.4158
-22.7227
7.2125
7.39951
7.23052
7.13641
6.94578
6.4388
6.76604
8.07483
10.9319
19.0039
42.6987
103.013
191.784
72.4594
6.73548
-21.1819
-26.168
-28.8337
-28.1993
-26.6444
-25.6426
-24.8358
-24.169
-23.945
6.33537
6.22516
5.76027
5.10124
4.1494
2.27325
0.515923
-0.397548
-4.24185
-8.01515
-3.59854
27.3897
-6.76591
-48.7628
-52.5349
-44.7743
-39.1182
-34.9921
-31.1406
-28.7505
-26.9271
-25.7112
-24.9122
5.62649
5.24027
4.54432
3.40624
1.80027
-1.21667
-4.99353
-8.69964
-19.5486
-38.8187
-68.7258
-148.057
-229.264
-127.865
-87.1243
-63.5409
-48.3322
-40.7227
-34.8427
-31.2147
-28.4957
-26.8282
-25.485
5.13913
4.5455
3.73599
2.32587
0.378233
-3.12757
-7.99389
-13.5903
-27.7176
-54.045
-99.1513
-204.206
-335.783
-177.11
-107.989
-75.4213
-53.82
-43.95
-36.9555
-32.5645
-29.2669
-27.3353
-25.5597
4.8896
4.18982
3.40808
1.99359
0.116859
-3.06556
-7.66393
-13.3998
-25.4828
-46.721
-82.3666
-153.213
-297.089
-171.268
-106.168
-76.0534
-53.941
-43.8636
-37.0206
-32.5236
-29.0834
-27.1265
-25.0919
4.85276
4.1543
3.52314
2.34145
0.886623
-1.35516
-4.58645
-8.88028
-15.3795
-24.545
-37.8701
-52.8515
-182.082
-124.745
-85.6927
-66.3669
-49.0188
-40.6703
-35.0944
-31.1245
-27.956
-26.2055
-24.107
4.97054
4.36102
3.95194
3.14138
2.28623
1.20081
-0.252667
-2.39202
-3.08658
-0.864213
5.60308
31.9469
-58.2912
-66.9132
-57.8735
-51.1747
-40.9505
-35.4234
-31.6744
-28.6638
-26.0719
-24.6807
-22.6934
5.17029
4.70278
4.52782
4.11335
3.84645
3.78692
3.83679
5.70848
6.40436
15.3657
28.9441
68.5932
151.313
19.5444
-22.3869
-33.2986
-35.7554
-32.0435
-29.4293
-27.4804
-25.5768
-23.6839
-22.7283
-20.9772
5.38317
5.0751
5.09961
5.01992
5.2005
5.80968
6.79547
9.25798
11.8824
20.6545
33.0693
53.8401
61.8022
29.2259
-2.97546
-17.0585
-22.3489
-23.8355
-23.6919
-23.1628
-22.2824
-21.0592
-20.5384
-19.0882
5.55621
5.39823
5.56505
5.72426
6.17943
7.12914
8.48632
11.2538
13.9193
20.4599
30.0206
37.1875
33.8828
18.3122
3.83612
-8.14011
-15.3651
-17.5978
-18.8165
-19.171
-19.0924
-18.437
-18.2872
-17.1597
5.65662
5.62448
5.87414
6.18003
6.7569
7.82725
9.1534
11.8698
14.4019
17.8889
22.8668
24.7008
22.7811
14.2678
4.64409
-3.55363
-9.91197
-12.8905
-14.8111
-15.7043
-16.1817
-15.9465
-16.0873
-15.2656
5.66936
5.73351
6.01512
6.39338
6.97669
8.01118
9.12075
11.2191
13.5226
14.9968
17.8891
20.4679
11.63
10.1049
2.36355
-1.66696
-6.18016
-9.49103
-11.6186
-12.8093
-13.6261
-13.6854
-14.027
-13.4708
5.59289
5.72485
6.00079
6.39964
6.91854
7.83982
8.67033
10.2811
11.372
14.2616
8.37429
17.4932
14.2395
2.05754
4.34175
-1.14672
-4.38143
-7.24614
-9.20211
-10.4763
-11.4472
-11.6945
-12.1557
-11.8187
5.43453
5.6105
5.85693
6.24734
6.66662
7.46848
7.98418
9.38779
9.33909
12.4931
8.32038
13.5482
11.7226
3.46267
4.42315
-0.999081
-3.03835
-5.65618
-7.3492
-8.61003
-9.6136
-9.97276
-10.4909
-10.3277
5.20619
5.4083
5.61237
5.98175
6.2863
6.99189
7.20467
8.49753
7.83506
10.4764
7.34455
9.78187
8.53201
3.48422
3.80884
-0.775515
-2.04619
-4.49116
-5.89658
-7.11204
-8.07652
-8.49947
-9.02963
-9.0002
4.9215
5.13733
5.29353
5.63912
5.8274
6.45955
6.41875
7.59558
6.63086
8.72711
6.1156
7.52648
6.53467
2.91324
3.15748
-0.606653
-1.4017
-3.63549
-4.75806
-5.90977
-6.79156
-7.24724
-7.75893
-7.83006
4.59407
4.81565
4.9237
5.24755
5.3281
5.90339
5.67062
6.73004
5.63428
7.31836
5.15603
6.0029
5.20826
2.47213
2.62922
-0.491494
-0.982685
-2.99046
-3.86443
-4.94182
-5.71856
-6.18668
-6.66046
-6.80532
4.23663
4.45929
4.52238
4.82824
4.81571
5.34578
4.97832
5.9275
4.80214
6.15672
4.36097
4.83725
4.18869
2.09728
2.18425
-0.407101
-0.700774
-2.48917
-3.15735
-4.1559
-4.82143
-5.28895
-5.71391
-5.91124
3.86029
4.08152
4.10489
4.39653
4.30808
4.8007
4.34606
5.19292
4.09713
5.18431
3.68898
3.93877
3.38338
1.7613
1.80438
-0.344804
-0.509809
-2.09107
-2.59283
-3.51153
-4.06882
-4.52697
-4.89842
-5.13154
3.47464
3.69316
3.68301
3.96341
3.81634
4.27681
3.77243
4.52558
3.49252
4.36642
3.10638
3.22319
2.74141
1.48194
1.48752
-0.297524
-0.38003
-1.76943
-2.1387
-2.9775
-3.43443
-3.87703
-4.19452
-4.45038
3.08747
3.30263
3.26536
3.53664
3.34687
3.77858
3.25316
3.92211
2.96891
3.67991
2.60365
2.65467
2.25702
1.25311
1.2249
-0.261483
-0.291669
-1.50479
-1.76948
-2.5301
-2.89707
-3.31958
-3.58513
-3.85263
2.70499
2.91629
2.85806
3.1213
2.90289
3.30815
2.78291
3.37799
2.51031
3.09885
2.17924
2.20243
1.86296
1.02954
1.00366
-0.231813
-0.226455
-1.27952
-1.46275
-2.14786
-2.43626
-2.83509
-3.0527
-3.3233
2.33207
2.53877
2.46517
2.72035
2.4855
2.86577
2.35612
2.88792
2.1044
2.59792
1.81072
1.81971
1.52956
0.84022
0.821244
-0.207688
-0.176933
-1.0857
-1.20457
-1.81673
-2.03724
-2.40934
-2.58344
-2.85016
1.97233
2.17337
2.08933
2.33571
2.09409
2.45037
1.96686
2.44392
1.74275
2.16208
1.48737
1.49199
1.24489
0.679382
0.66888
-0.186972
-0.137012
-0.915846
-0.983459
-1.52492
-1.68712
-2.02962
-2.16454
-2.4214
1.62828
1.82198
1.73151
1.96771
1.72723
2.06096
1.60914
2.03716
1.41594
1.77748
1.19983
1.2074
0.998861
0.539196
0.539489
-0.168086
-0.102504
-0.763601
-0.789734
-1.26289
-1.375
-1.68507
-1.78509
-2.02657
1.30233
1.48611
1.39281
1.61604
1.38428
1.69465
1.2797
1.66354
1.11861
1.43368
0.940436
0.955521
0.78093
0.41245
0.427443
-0.150351
-0.0707935
-0.624147
-0.61646
-1.02287
-1.09202
-1.36678
-1.43575
-1.65661
0.993934
1.16361
1.07107
1.2775
1.06064
1.34337
0.972541
1.31405
0.844214
1.12006
0.703028
0.727386
0.584968
0.296795
0.329203
-0.132365
-0.0407173
-0.493214
-0.458141
-0.797871
-0.830439
-1.0661
-1.10749
-1.30207
0.712038
0.861787
0.773891
0.957888
0.762484
1.01253
0.693521
0.991461
0.598269
0.83711
0.481418
0.514784
0.402062
0.17774
0.240554
-0.112456
-0.0104605
-0.366379
-0.311175
-0.58362
-0.586683
-0.779416
-0.797302
-0.959755
0.426906
0.542339
0.467676
0.61257
0.456507
0.653556
0.409112
0.642928
0.349132
0.539461
0.272615
0.309377
0.234757
0.082054
0.156418
-0.0860873
0.0121771
-0.236887
-0.173585
-0.366249
-0.348107
-0.48587
-0.484572
-0.602198
0.262648
0.343244
0.286981
0.391925
0.280238
0.425506
0.257517
0.437807
0.238947
0.393461
0.0573303
0.105638
0.0454185
-0.16359
0.0917038
-0.0409504
0.0557286
-0.104479
-0.0478756
-0.174109
-0.15094
-0.24139
-0.232578
-0.309105
-132.911
-223.837
3.32466
-203.222
-360.313
-250.125
-164.155
-332.987
-366.441
-65.4069
-207.627
-319.599
23.4656
-69.5316
-190.366
68.3905
169.576
164.125
26.5053
-53.6632
49.4886
191.205
32.6043
93.9757
-54.2726
-116.695
20.9017
-161.86
108.931
-206.005
-123.09
-47.8924
-96.2249
-183.815
-130.596
-182.133
-262.247
-220.934
-450.723
-361.893
-330.313
-195.558
-146.063
-90.3805
-151.893
-184.718
-196.741
-272.152
-286.423
-495.88
-506.08
-308.19
-201.571
-203.537
-49.9276
-63.4701
-142.093
-116.956
-139.82
-203.466
-327.545
-419.536
-197.846
-151.81
-192.924
-145.922
-228.252
-72.7194
-82.2346
-134.825
36.6453
-39.2029
59.4131
66.5654
154.182
64.2841
42.2959
30.4271
-212.753
-121.439
-73.7916
-134.208
-229.056
90.2463
-115.526
-354.313
-186.255
-133.279
-177.484
-344.504
-285.313
-266.231
-189.738
-276.091
-295.764
-237.108
-275.408
-500.703
-455.216
-327.406
-440.336
-495.728
-351.045
-436.276
-311.861
-211.731
-266.079
-190.54
-275.731
-216.635
-295.12
-279.894
-424.115
-491.575
-362.869
-489.383
-413.686
-498.971
-493.107
-368.154
-134.635
-68.0703
-211.062
-144.361
-234.071
-321.586
-257.541
-318.876
-233.484
-408.575
-324.678
-273.912
6.62352
50.5828
-59.0168
-0.558958
-50.9941
-134.355
-222.497
-144.171
-137.473
97.9887
114.674
55.5661
95.0599
89.2273
44.0009
-49.9275
-101.784
79.7085
-45.6956
254.087
-3.90667
18.3274
-52.0338
-16.9607
-3.16586
-59.2448
17.5021
-33.4419
15.9824
-25.114
-65.6733
182.908
-75.861
90.7358
-149.965
-98.9141
-67.7089
-130.545
-104.107
-104.619
-66.0406
43.1555
65.0112
-60.6574
-24.3128
-40.4963
-88.7738
-120.199
-132.697
-53.5721
67.937
94.4963
-42.4948
26.0175
-10.5436
314.301
199.424
119.971
140.525
210.241
317.802
-83.0956
-51.9512
-92.7959
229.963
-54.8073
-12.2416
-416.997
-408.217
-511.62
-510.652
-368.561
-375.303
-179.962
-148.435
-183.12
71.9965
24.5723
-34.6595
14.6364
-4.1656
-208.047
-184.995
-252.18
-213.224
-255.355
-197.804
-201.784
-85.4169
-37.0983
-103.942
-197.122
-286.955
-277.622
-288.481
-288.401
-256.175
-257.695
-480.601
-479.975
-475.281
-403.778
-381.215
-423.88
-409.628
-477.381
-399.161
-332.544
-293.381
-372.958
-343.715
-405.39
-252.225
-247.196
-295.808
-293.506
-460.834
-463.785
-461.782
-401.1
-418.617
-371.788
-394.119
-457.947
-506.111
-431.71
-427.008
-423.277
-431.077
-506.401
-109.479
-106.905
-110.096
-148.494
-66.396
-104.927
-96.9475
-183.516
-152.976
-173.467
-275.293
-281.548
-368.983
-336.709
-363.775
-298.893
-327.315
-363.395
16.7691
40.6973
-32.3973
-25.0456
-61.0446
10.6922
-20.4194
-24.1265
-19.3875
12.7727
-86.5912
-89.3721
-41.454
-143.09
-95.297
-99.1031
-93.8581
128.092
143.985
189.634
97.9814
122.326
191.687
113.687
76.721
462.743
25.86
55.0113
26.1431
53.1767
82.7773
53.7037
100.322
78.5117
88.0446
272.39
45.5907
3.77023
-6.00623
60.1655
68.8048
227.864
146.272
142.141
72.9657
84.5516
124.33
121.417
193.85
473.214
324.235
214.144
291.678
362.935
486.418
-248.29
-206.997
-223.999
-440.476
-388.181
-383.782
-284.098
-239.332
-232.142
-242.807
-243.025
-286.02
-505.111
-507.677
-345.417
-401.436
93.1494
78.6744
6.92677
21.1474
61.6701
109.407
90.0609
103.439
-6.32212
-62.1948
170.525
-327.004
-356.648
-383.79
-255.909
-208.617
-143.414
-278.583
-226.402
-277.684
-279.312
-237.884
-244.306
-225.997
-237.602
-276.646
-282.651
-305.623
-297.389
-321.951
-321.051
-292.495
-294.889
-289.258
-267.797
-494.777
-465.841
-456.01
-426.159
-417.785
-460.667
-452.318
-489.385
-226.294
-212.827
-244.698
-266.923
-286.091
-303.274
-297.373
-326.508
-323.208
-307.378
-318.631
-286.646
-440.016
-481.144
-478.813
-444.515
-452.828
-403.947
-406.958
-431.213
-502.879
-466.994
-460.823
-457.344
-462.613
-501.216
-251.463
-259.732
-240.618
-329.799
-316.895
-306.144
-279.362
-259.706
-289.131
-219.778
-249.455
-267.798
26.731
36.4476
14.5076
61.2173
42.8077
32.8123
139.813
147.934
74.1948
88.5344
67.6189
128.268
137.72
113.143
98.4491
66.405
352.635
115.35
26.4792
-5.24469
-1.35136
26.7529
-9.75806
-12.626
55.429
44.4943
258.108
-7.66699
16.72
-88.6713
-80.9224
52.4869
57.7772
52.4575
57.7193
50.8565
68.7949
60.2027
55.1299
-44.3059
-38.6945
-60.7715
-67.7947
78.7715
83.1365
71.9585
88.9751
103.962
-153.844
-129.687
-52.0525
-209.357
-151.744
-177.022
-436.771
-389.931
-507.315
-511.529
-350.725
-395.498
-171.861
-169.112
-187.653
-145.818
-163.42
-164.229
-218.218
-237.001
-193.568
-211.007
52.3565
68.7468
86.3951
33.6199
60.9063
46.365
66.397
36.6674
-231.606
-202.655
-224.061
-165.647
-194.369
-223.555
-249.05
-259.758
-229.902
-245.159
-154.805
-117.864
-155.814
-170.803
-185.338
-328.606
-348.851
-319.456
-329.591
-280.373
-227.412
-321.38
-294.515
-240.251
-276.49
-318.264
-314.657
-309.009
-283.074
-312.694
-318.625
-307.915
-308.802
-327.167
-325.272
-317.831
-324.095
-292.751
-319.306
-315.01
-281.056
-291.159
-263.333
-276.665
-300.1
-305.347
-293.397
-299.652
-266.812
-287.997
-281.753
-494.289
-466.254
-440.26
-428.138
-461.038
-487.391
-451.571
-441.498
-267.258
-281.199
-262.355
-290.671
-276.498
-309.361
-295.338
-253.589
-233.987
-271.249
-258.205
-326.997
-326.147
-296.026
-330.657
-333.908
-327.305
-332.041
-324.117
-311.248
-330.895
-326.944
-289.966
-321.002
-325.522
-445.576
-473.849
-429.403
-439.346
-473.472
-439.257
-412.576
-424.144
-469.175
-466.198
-505.089
-503.311
-466.051
-467.14
-125.958
-124.61
-122.641
-107.51
-143.771
-127.92
-132.348
-82.5483
-80.3072
-68.8868
-102.305
-85.699
-88.3321
-206.733
-190.374
-227.809
-212.272
-167.778
-164.011
-148.859
-185.187
-169.098
-175.345
-284.279
-266.941
-257.983
-267.719
-283.675
-242.284
-260.142
-289.693
-300.072
-310.008
-288.008
28.0066
33.1871
23.8684
48.4307
36.9222
31.5446
50.0326
-4.74607
19.1024
0.0773795
-123.447
-122.254
-139.751
-95.0128
-116.231
-116.465
-115.685
-122.551
151.773
169.017
109.674
124.193
147.966
119.602
17.8198
-25.1537
17.6481
1.09171
38.3685
67.0217
635.386
468.215
387.299
497.514
543.888
656.521
83.3307
172.46
118.794
-179.307
-202.977
-242.644
-446.627
-449.053
-453.908
-501.815
-506.022
-179.527
-158.596
-176.986
-420.605
-414.808
-414.069
-234.756
-215.866
-210.9
-182.042
-140.673
-172.666
-253.711
-240.381
-219.652
-215.907
-262.593
-228.705
-243.278
-268.711
-257.418
-496.914
-460.048
-464.555
-459.505
-480.252
-477.733
-492.925
-409.756
-401.365
-424.914
-236.664
-205.561
-187.633
-228.412
-244.41
-230.334
-429.361
-426.876
-423.283
-488.701
-486.164
-469.457
-472.757
-500.409
-484.424
-482.646
-476.329
-479.647
-497.09
-202.055
-209.654
-223.481
-391.794
-380.199
-392.371
-189.131
-179.252
-209.438
146.428
147.45
114.855
95.7908
78.9525
146.061
146.534
72.4709
100.569
68.7996
-33.6729
-12.8535
-99.6986
-65.1516
-70.4207
-71.5845
-55.2712
-54.3661
-59.7592
-22.8762
-27.6712
-29.2203
-87.4578
-81.5497
-82.4462
101.663
87.4278
82.1115
199.905
313.798
264.076
-105.813
-123.365
-103.474
-72.263
-224.842
-205.702
-26.6845
50.3707
68.9547
-428.589
-431.127
-424.09
-401.06
-415.359
-421.796
-515.054
-511.338
-375.099
-368.708
-362.016
-382.713
-387.558
-380.732
-184.05
-189.054
-147.75
-153.593
-153.626
-193.774
-198.555
-204.708
-209.268
-192.76
-216.522
-244.134
-244.9
-250.819
-189.614
-199.6
-222.011
-271.896
-277.187
-255.282
-258.047
-255.244
-61.233
-106.844
-139.458
-126.848
-119.01
-131.263
-181.524
-257.584
-246.669
-279.643
-271.912
-245.303
-281.025
-281.633
-483.83
-479.374
-369.663
-356.965
-379.894
-421.366
-392.168
-381.543
-235.592
-249.057
-262.384
-455.25
-465.872
-489.718
-489.677
-506.247
-507.404
-489.686
-489.593
-114.358
-115.457
-114.438
-108.908
-148.179
-143.209
-144.192
-188.858
-204.456
-193.537
-200.233
-195.206
-230.137
-226.058
-157.682
-158.191
-153.122
-190.576
-186.036
-357.843
-368.777
-386.097
-347.613
-337.654
-347.651
-39.4901
-38.5529
-29.4207
-59.3574
-48.7289
-44.857
-68.4001
-72.5833
-88.427
-47.1583
-60.1397
-61.4542
-136.744
-135.619
-141.59
-101.868
-94.5046
-139.019
172.163
173.805
183.7
120.763
112.007
120.284
106.756
134.165
124.103
116.496
180.714
151.727
92.1555
108.668
96.5861
191.892
376.448
100.546
62.7716
65.6411
175.491
177.253
200.907
76.5435
76.2866
71.8537
85.0002
80.5461
80.3808
196.767
162.893
154.665
344.604
490.04
441.776
-444.924
-446.055
-443.42
-390.787
-392.513
-386.259
-404.864
-393.963
-505.142
-505.64
-350.44
-354.472
-335.724
-343.163
-407.617
-407.381
-401.11
86.8462
91.0565
97.5412
80.8542
85.7357
81.3899
-365.186
-363.523
-354.636
-379.729
-371.848
-374.804
-494.483
-462.796
-465.708
-466.277
-490.743
-475.635
-473.629
-435.782
-430.322
-435.79
-487.734
-462.051
-466.089
-483.425
-487.062
-485.569
-501.258
-499.815
-482.382
-484.279
-324.208
-325.13
-328.528
-314.943
-319.959
-320.38
149.312
151.951
138.497
142.123
131.947
137.967
134.096
118.562
111.467
107.852
112.737
118.051
102.17
106.293
103.202
51.5336
28.9967
17.9052
85.2906
297.683
255.408
326.87
138.924
171.692
221.518
7.33245
5.75069
-2.64201
22.6669
14.4345
16.159
-24.6693
-23.9119
-32.0713
-10.6936
-18.0732
-17.3622
74.2478
91.907
33.17
-65.69
-97.292
-23.4303
-29.8827
-94.8133
-76.9725
-75.7491
-82.5359
53.8472
55.6042
47.5516
50.1773
53.1087
-43.532
-49.0043
-49.8605
-26.5494
-21.6348
-32.5522
-33.578
-31.228
-38.0248
-58.5039
-53.0521
-54.4363
-51.515
-59.1869
-38.7355
-45.1233
-75.356
-74.6158
-67.1545
93.6615
94.663
89.7097
105.71
99.9789
98.6539
-161.562
-132.611
-128.485
-197.169
-205.345
-185.08
-432.607
-431.056
-437.076
-442.625
-413.286
-410.963
-424.181
-417.325
-511.792
-513.265
-367.324
-372.803
-358.325
-362.564
-356.102
-363.032
-357.961
-396.145
-391.566
-389.371
-381.703
-169.962
-178.187
-158.761
-159.377
-165.102
-225.312
-225.963
-218.37
-237.247
-232.91
-231.647
-199.279
-199.755
-194.427
-211.473
-203.711
-204.551
-205.132
42.4459
38.693
30.2391
56.2552
46.2324
-222.367
-231.662
-238.957
-237.531
-227.572
-211.214
-220.909
-266.023
-267.997
-274.398
-270.593
-255.944
-255.019
-263.184
-157.516
-141.649
-153.004
-115.766
-192.871
-182.003
-173.502
-338.639
-321.767
-310.845
-344.491
-334.443
-348.008
-351.964
-339.794
-262.134
-264.412
-282.851
-247.737
-262.915
-245.825
-309.636
-295.477
-301.979
-306.057
-316.414
-319.419
-309.269
-312.871
-313.058
-311.415
-310.154
-325.975
-324.636
-318.851
-321.139
-286.407
-292.058
-286.257
-293.619
-293.096
-289.302
-266.922
-279.995
-277.661
-286.417
-283.014
-271.166
-283.439
-285.409
-301.256
-303.462
-302.587
-308.984
-305.902
-303.116
-295.831
-299.252
-296.098
-303.772
-304.1
-298.595
-488.12
-473.418
-286.561
-288.065
-290.497
-276.916
-283.411
-281.916
-304.734
-293.152
-297.284
-298.962
-247.677
-249.312
-255.995
-236.028
-242.107
-240.86
-266.58
-266.864
-271.225
-260.17
-263.198
-262.279
-331.14
-332.764
-330.069
-333.23
-318.719
-314.411
-328.035
-326.664
-449.762
-469.087
-506.485
-489.608
-488.483
-486.458
-488.39
-505.884
-119.348
-125.122
-120.067
-120.763
-138.936
-137.661
-131.244
-212.674
-205.943
-201.123
-206.417
-212.374
-222.95
-227.604
-230.426
-218.051
-222.87
-217.543
-222.967
-219.189
-169.154
-163.567
-162.565
-181.205
-173.756
-279.012
-275.517
-281.486
-263.003
-269.419
-273.461
-274.923
-279.605
-246.074
-247.749
-241.647
-253.454
-302.102
-301.253
-308.599
-287.033
-293.756
-295.261
29.8625
28.7858
32.2348
21.6563
25.4121
27.0395
46.0993
42.4912
44.9565
35.8014
39.4183
40.9718
45.3516
-6.91173
-2.06017
-16.7893
-11.6881
14.2705
12.8418
17.1586
3.03955
9.53026
8.36949
-122.797
-129.503
-130.395
-108.769
-129.846
156.093
161.783
115.007
120.503
112.256
129.77
124.709
119.533
128.673
134.75
137.142
125.44
52.8571
71.5677
57.323
79.1677
90.577
66.6795
89.5846
71.8325
58.1347
61.8433
37.5913
36.5648
27.2991
39.1182
42.3007
47.9793
86.2587
76.0006
106.54
173.124
101.387
173.405
98.7001
77.7318
74.1854
25.236
33.9215
14.0919
-1.27112
7.86418
7.06547
7.66613
34.1384
11.8125
39.479
85.3064
99.9845
165.032
145.518
275.46
200.648
160.716
72.8438
39.5402
50.2926
-30.8514
-31.6362
-13.8076
-24.2597
-45.6455
-4.79014
-20.6196
-24.1111
-2.13245
2.72607
5.82657
35.7755
-93.4269
-86.0726
-33.7174
-109.244
-78.8431
-54.1238
-49.2136
-80.7733
-57.3112
-80.8735
-99.5535
-84.9852
-161.383
-181.306
-167.21
-285.587
-221.488
-175.801
-170.19
-120.417
-102.119
-52.9998
-77.3358
-83.3384
-99.1378
-119.289
-120.208
-203.657
-225.445
-226.048
-337.301
-268.175
-260.171
-177.997
-133.609
-131.257
-36.6433
-44.7953
-70.9129
-72.6788
-83.7173
-96.2107
-141.688
-153.236
-166.595
-258.154
-218.259
-242.999
-138.765
-115.45
-127.838
-12.1523
-6.25443
-34.8194
-40.4803
-40.4029
-54.2197
-133.917
-123.57
-160.585
-81.0126
-79.7225
-98.6373
8.30178
19.9373
1.87153
-18.6614
-38.4838
-59.8418
-31.1645
-43.6587
-60.8241
18.9744
25.7308
22.1242
34.0422
53.093
58.1568
66.8311
83.9745
99.1032
115.546
111.067
118.829
30.6833
2.05462
-15.6404
-9.73414
-18.4426
-29.494
21.0327
26.3386
26.9356
32.3189
38.1092
48.7553
40.4726
41.819
65.1968
39.7052
30.7786
39.1635
23.358
11.1383
4.3471
2.07205
-6.07205
-11.1296
26.2014
27.023
31.7387
28.163
31.3484
36.4325
27.3204
21.9685
28.6472
16.0536
11.8035
12.7122
-150.684
-131.298
-115.36
-194.035
-217.508
-264.759
19.4981
-17.5904
-29.3161
-224.817
-221.795
-200.283
-351.67
-391.276
-406.084
-278.454
-316.328
-273.321
-179.342
-191.136
-174.051
-344.904
-382.304
-360.631
-409.016
-414.842
-369.916
-67.9372
-81.5988
-78.2119
-223.926
-243.094
-215.927
-352.224
-326.992
-305.088
-86.0315
-85.0041
-67.3401
-198.859
-179.207
-172.55
98.7242
89.9254
57.3303
188.089
172.793
158.906
155.385
155.594
185.623
-49.6088
-32.1058
-38.2335
104.951
165.719
93.1819
745.125
634.86
641.088
161.229
193.869
272.337
755.127
783.442
54.7662
78.2305
53.5141
143.773
168.767
91.2435
-67.0467
-46.3413
-37.8463
-63.1918
-53.8655
-80.2391
3.38566
-25.072
-42.7821
-128.844
-140.489
-198.005
132.684
88.1593
71.591
-160.928
-104.224
-123.151
-98.0745
-104.161
-135.808
-42.096
-72.099
-72.7407
-117.257
-110.335
-89.9986
-170.3
-133.279
-141.248
-102.65
-120.415
-163.253
-202.977
-193.126
-172.542
-257.982
-244.582
-249.152
-206.477
-214.415
-227.502
-371.262
-380.507
-369.466
-258.29
-230.144
-299.963
-182.901
-210.365
-225.403
-164.864
-190.05
-166.415
-106.751
-114.631
-96.0304
-174.194
-136.566
-126.352
-144.375
-142.749
-179.505
-217.771
-222.687
-201.015
-277.2
-260.057
-255.771
-270.24
-270.456
-287.081
-252.48
-263.567
-332.831
-206.385
-236.398
-229.34
-234.735
-238.401
-207.303
-55.3541
-69.8848
-61.6591
-98.3289
-79.7479
-61.7705
-112.883
-97.0576
-109.971
-124.994
-139.28
-129.471
-167.499
-150.165
-127.651
-195.193
-187.199
-195.975
-333.912
-341.125
-333.457
-173.5
-206.181
-243.71
-167.472
-185.662
-166.363
-217.915
-203.109
-181.474
-157.383
-162.772
-145.214
-230.873
-225.113
-222.821
-83.7442
-105.496
-118.368
-99.5041
-104.471
-83.8814
-145.859
-124.714
-117.203
27.441
34.8159
44.6928
-36.7639
-24.2619
-27.4168
65.4886
78.2018
64.0623
91.9891
83.6635
72.8081
134.91
115.838
117.361
67.6327
74.0326
89.6459
42.6302
64.0033
53.0349
72.0571
66.1177
41.7901
-203.6
-188.369
-197.944
-88.4233
-130.496
-169.41
-95.7711
-108.94
-83.3935
-153.892
-183.82
-157.088
58.5771
63.8289
103.375
-131.783
-107.698
-92.9205
-345.912
-355.041
-363.191
-195.264
-212.421
-203.181
-143.047
-179.903
-165.53
-206.319
-192.37
-165.877
-311.238
-296.257
-315.111
-283.726
-268.486
-269.695
-253.07
-256.773
-270.05
-195.955
-217.198
-210.907
-279.191
-285.628
-283.257
-305.275
-304.368
-293.957
-281.32
-279.015
-272.098
-363.799
-385.746
-340.683
-445.231
-438.867
-432.564
-373.307
-343.342
-328.28
-430.124
-423.895
-431.93
-293.854
-326.887
-355.988
-220.127
-211.33
-203.519
-250.668
-245.226
-259.358
-183.034
-201.718
-210.664
-273.626
-282.162
-285.956
-220.842
-225.261
-221.043
-296.868
-306.825
-305.875
-289.781
-292.878
-281.595
-404.529
-389.163
-355
-408.347
-410.879
-418.411
-370.516
-414.355
-408.773
-124.988
-126.793
-141.864
-69.6223
-78.535
-77.1078
-204.125
-214.289
-216.492
-147.017
-162.28
-153.914
-239.408
-242.042
-236.502
-326.533
-321.193
-316.549
-281.286
-252.973
-240.879
-306.242
-295.578
-305.767
-228.993
-240.008
-244.926
-403.42
-398.993
-402.759
-316.376
-327.178
-342.134
-289.78
-317.861
-290.882
13.6124
16.6331
9.4029
54.2986
48.3415
44.7132
-49.8855
-49.6753
-59.688
1.96623
-5.81315
-8.09454
-62.862
-62.0503
-49.3608
-139.302
-125.017
-122.868
-211.268
-207.196
-218.142
-138.829
-168.836
-178.879
-154.946
-159.963
-141.017
108.837
133.85
120.146
132.529
135.838
108.905
62.401
66.5602
60.1957
72.9903
107.299
112.01
-54.9371
-24.4638
-23.9445
-30.1771
-24.7329
-74.2241
48.9792
12.2581
-2.90561
288.492
232.917
209.995
-9.13922
-10.1631
4.6698
-43.8242
-26.4593
-19.1849
-14.6457
-27.2014
-28.4945
-25.9598
-25.0073
-11.3764
-54.967
-39.5646
-33.9023
10.0141
12.3418
20.297
-32.4277
-25.5575
-26.4238
-5.97322
-20.4324
-7.98683
138.597
151.049
203.649
-113.551
-83.301
-48.3206
-13.7812
-24.7316
37.7735
-121.082
-49.1573
-50.7165
-63.8499
-59.1686
-101.606
-93.8888
-88.0429
-68.5787
-119.316
-96.1094
-102.842
-91.1955
-96.0251
-110.511
46.5833
48.674
45.6418
66.5551
63.2509
61.3758
-47.5743
-46.4314
-39.5114
-122.146
-103.444
-103.047
-98.4812
-98.0472
-128.76
-62.462
-88.0988
-87.2276
71.6846
73.1309
69.7304
96.7137
92.358
89.9329
-9.20147
-24.9055
-44.5351
9.31854
-6.80166
0.980965
-23.821
-15.7931
-0.802201
271.191
318.328
427.825
188.92
278.988
248.416
202.605
277.863
179.867
165.844
200.637
170.535
260.917
307.177
207.199
436.097
347.558
283.606
-48.8263
-119.721
-91.2644
111.686
112.702
164.559
-39.8236
-5.98473
-16.8949
29.0583
38.8425
-6.60204
-186.945
-168.52
-168.962
-192.475
-196.512
-194.055
65.0245
70.0634
76.2355
27.7442
35.2815
31.5899
-14.1456
-21.029
-34.0401
5.29868
-7.88774
-7.10831
-15.7139
-11.7418
0.674713
-212.223
-191.377
-170.579
-209.304
-235.563
-218.184
-185.039
-168.204
-179.605
-68.0339
-90.2191
-105.126
-66.3948
-78.0814
-48.601
-300.104
-311.059
-299.256
-264.543
-277.125
-289.206
-296.833
-295.267
-286.066
-290.647
-299.277
-297.882
-263.697
-260.842
-251.839
-261.772
-268.678
-266.013
-460.224
-457.437
-472.562
-396.814
-415.656
-423.2
-400.262
-407.102
-389.253
-419.712
-441.165
-445.907
-429.722
-435.788
-415.16
-480.255
-465.344
-462.553
-388.585
-380.469
-392.482
-320.289
-338.793
-351.055
-311.554
-325.764
-307.447
-363.851
-382.849
-391.867
-362.502
-373.145
-354.329
-411.412
-401.088
-393.176
-257.048
-261.23
-255.087
-244.075
-248.217
-252.436
-306.768
-307.121
-295.277
-293.393
-304.389
-305.555
-445.66
-449.252
-465.159
-407.401
-429.617
-422.159
-442.554
-436.547
-413.468
-379.193
-395.819
-385.85
-414.003
-405.104
-386.957
-452.692
-437.605
-441.807
-431.017
-455.184
-456.286
-449.877
-453.032
-429.608
-426.797
-451.79
-447.761
-456.115
-454.673
-429.603
-107.763
-122.2
-115.606
-72.0833
-71.7937
-66.3853
-103.596
-98.2742
-99.7111
-86.8489
-88.2821
-98.5507
-163.557
-167.51
-183.567
-278.181
-272.806
-269.992
-287.447
-289.95
-283.765
-364.612
-369.912
-374.736
-345.885
-357.601
-347.81
-376.746
-367.317
-355.136
-308.449
-317.71
-307.301
-337.965
-328.008
-318.045
-358.232
-353.236
-358.12
20.6627
22.3954
18.5433
42.8547
40.0781
38.0456
-31.2685
-40.1669
-40.9777
-29.6938
-30.8492
-26.0465
-61.4513
-56.0612
-55.6721
-1.61251
-3.07518
4.82837
-20.6574
-11.729
-6.15618
-15.965
-14.1118
-22.6803
-14.4729
-12.9395
-17.9095
14.3227
10.085
8.74744
-86.8228
-74.8556
-74.6792
-82.8928
-83.1766
-89.1673
-42.4408
-49.5474
-48.3528
-95.308
-101.974
-102.037
-111.596
-111.036
-99.1947
133.421
145.203
136.655
161.433
148.401
138.532
102.707
104.945
100.804
103.807
114.553
137.1
81.6959
87.3828
83.5965
49.2944
37.8027
43.4539
17.7488
28.7205
46.0383
73.7717
63.9056
71.7828
45.376
54.9252
63.4268
95.5227
103.539
109.818
81.2362
94.8581
87.5245
108.301
96.5126
83.6461
29.4843
24.8565
35.428
1.48119
13.557
23.5715
4.43925
8.59284
-2.71907
204.656
217.593
266.194
148.929
166.272
164.939
151.44
161.135
147.951
128.173
140.449
135.055
142.055
145.24
128.46
249.914
189.476
188.35
431.08
468.419
588.802
322.007
385.913
375.464
327.902
414.738
301.172
322.051
365.753
332.896
413.056
479.482
369.509
605.488
524.418
461.419
-234.284
-239.785
-253.414
-214.503
-226.337
-220.558
-235.72
-230.923
-217.46
-376.433
-388.756
-398.615
-266.536
-263.79
-281.198
-238.799
-252.177
-254.341
-245.026
-248.652
-233.971
-244.8
-257.832
-257.283
-256.409
-257.133
-242.27
-286.933
-269.822
-268.673
-353.069
-347.953
-340.023
12.8119
24.2318
17.588
38.1148
30.2654
18.0278
53.1007
42.03
49.9323
103.759
113.565
127.036
96.5113
105.586
96.9622
114.984
107.752
98.8352
-14.1216
24.0263
26.0639
26.3308
25.7121
-21.3839
121.175
74.7706
60.5948
-338.727
-347.107
-338.178
-238.75
-216.314
-232.25
-186.441
-200.605
-222.451
-153.915
-178.232
-166.801
-262.838
-279.644
-295.934
-242.743
-262.152
-245.944
-297.877
-278.714
-259.468
-264.962
-267.029
-281.714
-241.842
-253.971
-251.559
-256.863
-255.305
-241.279
-231.653
-243.357
-239.398
-249.439
-246.251
-232.797
-273.504
-259.85
-262.726
-289.781
-287.599
-279.752
-303.36
-295.603
-297.283
-291.848
-293.761
-299.991
-321.301
-310.161
-310.866
-309.067
-309.795
-321.356
-294.481
-303.84
-302.785
-292.697
-287.864
-289.921
-284.04
-285.977
-290.801
-271.266
-277.2
-274.996
-446.221
-442.314
-449.955
-419.703
-431.109
-435.882
-456.791
-470.65
-473.282
-465.939
-468.586
-456.348
-223.346
-235.258
-240.132
-223.471
-229.312
-216.723
-252.256
-239.212
-232.917
-273.94
-277.761
-269.135
-291.005
-283.735
-280.152
-291.769
-287.934
-297.53
-307.725
-307.258
-296.001
-326.409
-313.715
-314.013
-311.749
-312.844
-324.804
-311.137
-298.288
-295.144
-304.518
-301.541
-314.953
-285.381
-296.096
-298.594
-446.541
-461.531
-458.105
-467.973
-465.086
-451.332
-418.238
-415.359
-402.249
-424.978
-418.079
-422.655
-463.942
-478.556
-480.274
-475.213
-477.351
-464.312
-458.37
-473.884
-471.314
-478.195
-476.544
-462.361
-254.413
-248.101
-245.573
-252.472
-249.602
-256.248
-238.071
-243.448
-245.944
-311.368
-315.432
-309.91
-273.852
-285.786
-290.945
-269.697
-276.223
-265.715
-296.874
-286.381
-279.482
-228.785
-234.424
-224.276