/*--------------------------------*- C++ -*----------------------------------*\
| =========                 |                                                 |
| \\      /  F ield         | OpenFOAM: The Open Source CFD Toolbox           |
|  \\    /   O peration     | Version:  5.x                                   |
|   \\  /    A nd           | Web:      www.OpenFOAM.org                      |
|    \\/     M anipulation  |                                                 |
\*---------------------------------------------------------------------------*/
FoamFile
{
    version     2.0;
    format      ascii;
    class       surfaceScalarField;
    location    "200";
    object      phi;
}
// * * * * * * * * * * * * * * * * * * * * * * * * * * * * * * * * * * * * * //

dimensions      [0 3 -1 0 0 0 0];

internalField   nonuniform List<scalar> 
13181
(
0.000396219
0.412047
0.000383782
0.412527
0.000334937
0.412541
0.000281182
0.412546
0.000193378
0.412603
-0.000143846
0.41283
-0.000356447
0.412712
-0.000395396
0.41254
-0.000351172
0.412455
-0.000149697
0.412298
0.000234601
0.412117
0.000732579
0.412001
0.00120323
0.412029
0.00150112
0.412204
0.0015716
0.412429
0.00145109
0.41262
0.00120731
0.412745
0.000899714
0.412807
0.000397341
0.412995
-3.71528e-05
0.412949
-0.000599826
0.413055
-0.000830306
0.412723
-0.000877139
0.412562
0.411542
0.000567403
0.411354
0.00159913
0.411496
0.00161853
0.412522
0.0015984
0.412566
0.00133009
0.412871
0.000466567
0.413693
-0.000667879
0.413846
-0.00104081
0.412913
-0.0010175
0.412432
-0.000626718
0.205948
0.205959
0.00014943
0.205668
0.205673
0.00119717
0.205468
0.205486
0.00219062
0.205497
0.205538
0.00281264
0.205765
0.205816
0.00294758
0.206121
0.206172
0.00235233
0.413215
0.00140474
0.413693
0.00045001
0.413762
-0.000564989
0.41401
-0.000917737
0.413302
-0.000941534
0.413079
-0.000988769
0.41277
-1.91961e-06
0.411575
0.411357
-0.000156971
0.411306
-9.87254e-06
0.411349
0.000893697
0.411618
0.000815952
0.412644
0.00087347
0.412814
0.000938956
0.413628
-0.000539204
0.415324
-0.00152918
0.413903
-0.000833376
0.412773
-0.00103751
0.205818
-0.000703257
0.205447
-0.000312582
0.000533484
1.30558e-05
0.205117
0.000337354
-0.000727354
0.205121
0.00110289
-0.00143262
0.205511
0.00168684
-0.00182973
0.206102
0.00184888
0.00182088
0.207393
-0.00140975
-0.00192809
0.207339
0.00016593
0.415348
-0.000366745
0.414294
-0.000283254
0.413926
-0.000336514
0.413356
-0.000402192
0.413145
0.000377774
0.41199
0.000409209
0.411544
0.41147
-0.000417229
0.411442
-0.000537004
0.411468
-0.000542521
0.411624
9.18405e-05
0.41201
-9.44091e-05
0.413
-6.29847e-05
0.413596
-0.000246615
0.415508
-0.00116241
0.414819
-0.00150858
0.207763
-0.00163033
0.206987
0.205625
-0.00136807
-0.205766
0.204865
-0.00086395
-0.205179
0.00117773
0.000378773
0.203999
0.000262836
-0.20464
-0.00100409
0.203869
0.00173107
-0.204596
-0.00228717
0.205261
0.00225874
-0.205233
-0.00152543
0.207413
0.000607485
-0.206495
-1.23654e-05
0.207501
-9.52092e-05
0.00143266
0.207472
-0.000563618
-5.19751e-05
0.207059
0.00118379
0.414543
0.000837342
0.414273
0.000364518
0.413828
0.000879935
0.412629
0.000837887
0.412032
0.000585927
0.411796
0.41166
-0.000496735
0.411593
-0.000690129
0.411662
-0.00091537
0.411849
-0.00097814
0.412073
-0.000656749
0.412678
-0.000774953
0.413715
0.00076331
0.41397
0.00102606
0.206571
0.000504685
0.207481
0.209008
-0.000219085
0.206022
-0.00144869
-0.20569
0.00111654
0.20487
-0.00189772
-0.204616
0.0016434
0.00124835
-0.000120211
-0.203148
0.100997
0.101023
-0.00131028
0.00275136
-0.202872
0.100716
0.100715
-0.00325227
0.00168799
-0.206024
0.103519
0.104069
-0.00222451
0.207319
0.00234187
-0.207436
-0.00201786
0.207769
0.00206796
-0.207819
-0.00201278
0.207496
0.00198823
0.00238942
0.415743
-0.00193003
-0.00165959
0.00151875
0.415144
0.00160888
0.413738
0.00135903
0.412879
0.000975141
0.412416
0.00069187
0.412079
0.411878
-0.000543525
0.411741
-0.00074654
0.411865
-0.00101007
0.412113
-0.00137901
0.412441
-0.00156996
0.412869
-0.00164137
0.413786
-0.00103623
0.414766
-0.00140096
0.20697
-0.00143509
0.207292
0.000260795
-0.208744
0.00119184
0.206371
0.00109447
-0.206472
-0.00099288
-0.102893
-7.40001e-05
0.103152
-0.000185092
-0.100479
0.000713012
0.100603
-0.000837573
-0.0996906
-0.000753584
0.0991148
0.00132933
-0.103011
-0.00109118
0.101709
0.00239355
-0.00177707
0.00459978
-0.207557
-0.0019519
0.103152
0.103534
-0.0044937
0.20838
0.00390754
-0.207794
-0.00323274
-0.207934
0.208512
0.00265461
0.00309762
0.417338
-0.00245521
-0.00223732
0.00250289
0.415738
0.00198677
0.414254
0.00142828
0.413438
0.00103742
0.412807
0.000734462
0.412382
0.412099
-0.000573557
0.411895
-0.000785356
0.412077
-0.00103249
0.41236
-0.001367
0.412776
-0.00185061
0.413353
-0.00227874
0.414214
-0.00148842
0.415447
-0.00147127
-0.207352
0.207761
-0.00189772
-0.207342
0.20798
-0.0030538
0.00241577
-0.206862
0.207943
0.0038918
-0.0023492
-0.00262364
-0.102665
0.00242063
0.102726
-0.00248227
-0.0502238
0.000912535
0.0500676
-0.000756257
-0.000331339
-0.0475945
0.0473506
0.000575233
-0.00198117
-0.102414
0.00394364
-0.00136065
0.0503175
0.0514943
-0.00464999
-0.103744
0.104259
0.00413505
-0.00632309
-0.209398
0.210654
0.00506743
-0.00403979
-0.209185
0.210024
0.00320143
0.00362447
0.418743
-0.00251135
-0.00251817
0.00273363
0.416629
0.00189637
0.415092
0.00133018
0.414004
0.000939785
0.413197
0.000657333
0.412664
0.412245
-0.000540244
0.412015
-0.000737383
0.412274
-0.000956697
0.412579
-0.00129046
0.41311
-0.00172619
0.413789
-0.00235025
0.414838
-0.00140024
0.416113
-0.00161646
-0.208183
0.20862
-0.00183644
-0.208793
0.209562
-0.0031852
0.00241561
-0.209413
0.210981
0.00426614
-0.00286592
-0.00296883
-0.104323
0.00407691
0.105205
-0.00495888
-0.0510734
0.00449942
0.0516934
-0.00511941
-0.00639739
-0.0518724
0.0524729
0.00579682
-0.00663626
-0.106233
0.107192
0.00567704
-0.00752174
-0.212326
0.213988
0.00586036
-0.00461687
-0.211038
0.211946
0.00370854
0.00353298
0.42087
-0.00270397
-0.00295624
0.00215962
0.418002
0.00148845
0.415763
0.00103119
0.414461
0.000745752
0.413483
0.000570503
0.412839
0.41236
-0.000493885
0.412116
-0.000612134
0.412392
-0.000775012
0.412742
-0.000967153
0.413302
-0.00122321
0.414045
-0.0015676
0.415183
-0.00118148
0.416666
-0.000939457
-0.20869
0.209018
-0.00150939
-0.210465
0.211013
-0.00265491
0.00210648
-0.212456
0.213445
0.00335409
-0.00231451
-0.00202864
-0.107624
0.00326616
0.108211
-0.00385327
-0.0554183
0.00344244
0.0557493
-0.00377349
-0.00560863
-0.0569565
0.0574484
0.00511665
-0.00530334
-0.10992
0.110734
0.00448994
-0.00549268
-0.215571
0.216798
0.00426579
-0.0033217
-0.212771
0.21341
0.00268234
0.0027266
0.421873
-0.00162655
-0.00210261
0.0015189
0.41921
0.000838134
0.416444
0.000598948
0.4147
0.000447273
0.413635
0.000346302
0.41294
0.412354
-0.000401418
0.41217
-0.00049977
0.41249
-0.000570924
0.412813
-0.00066666
0.413398
-0.000704603
0.414083
-0.000728741
0.415207
-0.000476129
0.416627
-0.00021355
-0.209309
0.209598
-0.000765218
-0.211312
0.211358
-0.000876747
0.000830886
-0.213923
0.213856
0.000861168
-0.000568503
-0.000225059
-0.109128
0.000679906
0.109131
-0.000683505
-0.0568014
0.000422965
0.0567865
-0.000408027
-0.00141346
-0.0593922
0.0594504
0.00135523
-0.00160439
-0.112234
0.112409
0.00142897
-0.00163539
-0.217553
0.217765
0.00142279
-0.00125621
-0.213848
0.214037
0.00106683
0.0012033
0.42191
-0.000389172
-0.000850701
0.00117212
0.419241
0.000335396
0.41728
4.53612e-05
0.41499
0.000101437
0.413579
0.00011706
0.412925
0.412265
-0.000323931
0.412207
-0.000360939
0.412527
-0.000370247
0.412822
-0.000314672
0.413342
-0.000250132
0.414018
3.05531e-05
0.414926
0.000151796
0.416241
0.00026497
-0.209672
0.20966
0.000163511
-0.21117
0.210778
0.000810253
-0.000418127
-0.213302
0.212408
-0.0014261
0.00102796
0.00129191
-0.108357
-0.00163585
0.107902
0.00209108
-0.0556021
-0.002085
0.055334
0.00235318
0.00254926
-0.0584072
0.0581178
-0.00225989
0.00215978
-0.111913
0.111495
-0.00174224
0.0021908
-0.217462
0.216749
-0.00147801
0.000894458
-0.213933
0.213605
-0.000566529
-0.00034278
0.42114
0.000724344
0.000387855
0.000184574
0.418714
0.000456922
0.417008
-0.000503827
0.415951
-0.000311392
0.413386
-0.000135001
0.412748
0.412098
-0.000231766
0.412213
-0.000199206
0.412495
-0.000147835
0.412771
-2.79858e-05
0.413222
0.000224857
0.413765
0.000690317
0.414461
0.000546998
0.415744
0.000640158
-0.209406
0.209136
0.000816719
-0.210271
0.209715
0.00177875
-0.00122262
-0.211308
0.210189
-0.00257082
0.00182503
0.00186441
-0.106285
-0.00266663
0.105733
0.00321846
-0.0532983
-0.0028545
0.0530166
0.00313616
0.00434734
-0.0556628
0.0552981
-0.0039827
0.0042969
-0.10969
0.109012
-0.00361936
0.00464796
-0.215637
0.21429
-0.00330086
0.00240996
-0.213079
0.212447
-0.00177858
-0.00140088
0.419758
0.00147298
0.00130984
-0.000574336
0.417887
-3.84599e-05
0.416472
0.000183362
0.415729
-0.000675519
0.414245
-0.000403879
0.412477
0.411847
-0.00015886
0.412202
-9.94532e-05
0.412435
-1.84976e-05
0.41269
0.000159186
0.413045
0.000424195
0.4135
0.000903428
0.413981
0.000781577
0.415083
0.000783285
-0.208822
0.208522
0.00108176
-0.20916
0.20867
0.0019147
-0.00142436
-0.209146
0.208296
-0.00255344
0.00175617
0.00164758
-0.104279
-0.00240724
0.103907
0.00277888
-0.0514044
-0.00222259
0.0512592
0.00236775
0.00417662
-0.052674
0.0523249
-0.00382758
0.0044033
-0.107004
0.106416
-0.00381586
0.00499738
-0.212798
0.211568
-0.00376697
0.00287177
-0.211791
0.211154
-0.00223507
-0.00183496
0.418312
0.00163916
0.00164249
-0.000919934
0.416972
-0.000297373
0.415849
-0.000244124
0.415676
-0.000820397
0.414821
-0.000644067
0.4123
0.411535
-8.77738e-05
0.412166
-4.39639e-05
0.412392
6.06351e-05
0.412586
0.000206634
0.412899
0.000438706
0.413268
0.000778835
0.413641
0.00119844
0.414663
0.00113964
0.416008
0.00071287
-0.20828
-0.208382
-0.208288
0.208063
0.00136465
-0.207681
0.208183
0.000810094
-0.0013119
-0.103556
0.000288813
0.104797
-0.0015307
-0.0520376
0.00217528
0.0512636
-0.00140133
-0.018596
0.000604232
0.0186726
-0.000680912
0.0014386
-0.0509043
0.102393
-0.00300665
0.0012218
-0.0511423
-0.105162
0.00304255
0.104981
-0.00286205
0.003725
-0.21063
0.209921
-0.00301608
0.00242285
-0.210686
0.210553
-0.00229017
-0.00172219
0.417222
0.00131155
0.0014998
-0.000931142
0.416181
-0.000366077
0.415284
-0.000947513
0.416257
0.000220188
0.413654
-0.000728461
0.413249
0.411302
-8.58985e-05
0.412159
-5.05769e-05
0.412356
1.24919e-05
0.412522
9.97376e-05
0.412811
0.000264221
0.413104
0.000387169
0.413518
-4.912e-05
0.4151
-0.000769807
0.418474
-0.00174553
-0.208596
0.209493
-0.00166683
-0.208804
0.208024
-0.000915173
0.00169555
-0.103476
-0.000263038
0.10335
0.000389063
-0.102952
0.000165341
0.103241
-0.000454868
-0.0419437
0.00160469
0.0854648
-0.00238798
-0.0427378
-0.103605
0.00272463
0.103326
-0.00244591
-0.208765
0.00295527
0.209273
-0.00536869
0.00190625
0.00498101
-0.209544
0.209038
-0.0044753
-0.00541693
0.417199
0.00270149
0.00410407
-0.211286
-0.207302
-0.0042485
0.416054
-0.00338682
0.41532
-0.00260411
0.414502
-0.000189085
0.413842
0.000212282
0.413252
0.000519567
0.412942
0.412453
-8.16487e-05
0.412166
-8.70602e-05
0.412362
-7.6037e-05
0.412511
-3.58506e-05
0.412771
-1.5614e-05
0.413084
-0.000195624
0.413698
-0.00141703
0.416321
-0.0017203
0.418758
1.86884e-05
-0.209412
0.208176
-0.000484606
-0.207536
0.207573
9.7051e-05
-0.000134013
-0.207198
0.207607
-0.000552336
0.000143381
-0.103782
0.000602432
0.103768
-0.000587739
-0.087102
0.00109838
0.0876143
-0.00161066
-0.103269
0.00167813
0.207227
-0.00378818
-0.103489
0.00164029
-0.20888
0.00416131
0.208596
-0.00387744
-0.208726
0.00365725
0.208456
-0.00338741
-0.00399731
0.415573
0.00262313
0.00300021
-0.00272052
0.414777
-0.00229408
0.414893
-0.00206621
0.414274
-0.00182524
0.413601
-0.00153351
0.41296
-0.0011145
0.412523
0.412079
-0.000114937
0.412213
-0.00012035
0.412367
-0.000141832
0.412533
-0.000171542
0.412801
-0.000244008
0.413156
-0.000821639
0.414276
-0.00165046
0.41715
-0.00039102
0.417499
-0.000185846
0.416179
-0.208175
-0.207927
-0.00028212
-0.207735
0.207877
-0.000327843
-0.207952
0.208244
-0.00080973
0.000517133
-0.205582
0.00113743
0.205617
-0.00117204
-0.180229
0.00178434
0.181231
-0.00278704
-0.207565
0.00283522
0.207627
-0.00289718
-0.208354
0.00283273
0.20822
-0.00269841
-0.208269
0.0026444
0.208119
-0.00249465
-0.00397788
0.415061
0.00219582
0.00229423
-0.00326351
0.414063
-0.00253695
0.414167
-0.00178128
0.413518
-0.0011148
0.412935
-0.000843349
0.412689
-0.000775681
0.412455
0.412128
-0.00013539
0.412277
-0.000186423
0.412418
-0.000261021
0.412608
-0.000331887
0.412872
-0.000573188
0.413397
-0.00163083
0.415333
-0.00165866
0.417178
-0.000748175
0.416589
-0.00104993
0.416481
-0.000641415
0.416691
-0.208083
-0.208288
-0.000728509
-0.208499
0.208825
-0.000966921
-0.205487
0.00125351
0.204931
-0.000697485
-0.182196
0.0015488
0.183417
-0.0027701
-0.207697
0.00208976
0.207784
-0.00217654
-0.00401912
0.415903
-0.208165
-0.208023
0.00209782
0.00220644
-0.00381005
0.415662
-0.207981
-0.207889
-0.00345159
0.414703
-0.00313658
0.413748
-0.00249475
0.413525
-0.00193794
0.412961
-0.00148037
0.412477
-0.00110673
0.412315
-0.000578921
0.411927
0.412428
-0.000161147
0.412357
-0.000255703
0.412513
-0.000333544
0.412685
-0.000436553
0.412975
-0.000627209
0.413588
-0.00143372
0.41614
-0.00111576
0.41686
-0.000795821
0.416269
-0.00121472
0.4169
-0.0017223
0.417199
-0.0019789
0.419044
-0.20929
-0.209497
-0.00274557
0.396674
-0.202913
-0.192994
-0.00362771
0.384746
-0.185944
-0.197919
-0.00344549
0.416232
-0.207986
-0.208428
-0.00337395
0.415831
-0.00328272
0.41557
-0.00302065
0.414441
-0.00276996
0.413497
-0.00230813
0.413063
-0.00191201
0.412565
-0.00163553
0.412201
-0.00118196
0.411862
-0.000806808
0.411552
0.412535
-0.00018889
0.412451
-0.000278491
0.412602
-0.000399237
0.412806
-0.00052576
0.413101
-0.000720479
0.413783
-0.00118867
0.416608
-0.00102493
0.416696
-0.000939279
0.416183
-0.00124016
0.417201
-0.0016521
0.417611
-0.00187835
0.41927
-0.00233723
0.397133
-0.0028465
0.385255
-0.00284232
0.416228
-0.00290918
0.415898
-0.00284978
0.415511
-0.00267085
0.414262
-0.00246553
0.413292
-0.00213349
0.412731
-0.00181309
0.412245
-0.00153034
0.411918
-0.00119397
0.411525
-0.000882163
0.41124
0.412585
-0.000216388
0.412556
-0.000342502
0.412728
-0.000478338
0.412942
-0.0006211
0.413244
-0.000764309
0.413926
-0.000950619
0.416795
-0.000966999
0.416712
-0.00101375
0.41623
-0.00125766
0.417445
-0.00162238
0.417975
-0.00177267
0.419421
-0.00208398
0.397444
-0.00243146
0.385603
-0.00241065
0.416207
-0.0025315
0.416019
-0.00248947
0.415469
-0.0023681
0.41414
-0.00222172
0.413145
-0.00197788
0.412487
-0.00171808
0.411985
-0.00146551
0.411666
-0.0011738
0.411234
-0.000900687
0.410967
0.412622
-0.000242248
0.412669
-0.000378721
0.412865
-0.000502336
0.413066
-0.00065564
0.413397
-0.000807446
0.414078
-0.000886031
0.416873
-0.000989263
0.416815
-0.00119435
0.416435
-0.00125555
0.417506
-0.0015668
0.418287
-0.00169705
0.419551
-0.0018879
0.397635
-0.0021116
0.385826
-0.00210608
0.416201
-0.00221739
0.41613
-0.00219098
0.415443
-0.00211534
0.414065
-0.0020157
0.413046
-0.00180024
0.412272
-0.00163342
0.411818
-0.00138007
0.411412
-0.00114982
0.411003
-0.000934207
0.410752
0.412621
-0.000288302
0.412811
-0.000386786
0.412963
-0.000539529
0.413218
-0.000676416
0.413534
-0.000831345
0.414233
-0.000910865
0.416953
-0.00101499
0.41692
-0.00120674
0.416627
-0.00123465
0.417534
-0.00150066
0.418553
-0.00161411
0.419664
-0.00172838
0.397749
-0.00186719
0.385965
-0.00185996
0.416194
-0.00196036
0.416231
-0.00194335
0.415426
-0.00189575
0.414017
-0.0018
0.41295
-0.00166873
0.41214
-0.00151742
0.411667
-0.00130036
0.411195
-0.00110346
0.410807
-0.000896555
0.410545
0.412646
-0.000286461
0.412934
-0.000434661
0.413112
-0.000568225
0.413352
-0.000708212
0.413674
-0.000862526
0.414387
-0.000917487
0.417008
-0.00102123
0.417023
-0.00119797
0.416803
-0.00131603
0.417652
-0.00143921
0.418676
-0.00153116
0.419756
-0.00159562
0.397814
-0.00167686
0.386046
-0.00166038
0.416178
-0.00174837
0.416319
-0.00173899
0.415416
-0.00170954
0.413988
-0.00163845
0.412879
-0.00151481
0.412017
-0.00139302
0.411545
-0.00125097
0.411053
-0.00108189
0.410637
-0.000924575
0.410387
0.412628
-0.000304434
0.413059
-0.000432483
0.41324
-0.000589743
0.413509
-0.00073057
0.413815
-0.00085935
0.414516
-0.000910565
0.417059
-0.00101637
0.417129
-0.00117789
0.416965
-0.00132819
0.417802
-0.00137559
0.418723
-0.00145212
0.419833
-0.00147318
0.397835
-0.00152684
0.3861
-0.00148348
0.416134
-0.00156947
0.416405
-0.00156628
0.415413
-0.00155468
0.413976
-0.00150428
0.412829
-0.00142616
0.411939
-0.00132767
0.411447
-0.00116554
0.410891
-0.00101976
0.410492
-0.000885565
0.410253
0.41263
-0.000319729
0.413184
-0.000448578
0.413368
-0.000582581
0.413643
-0.000722692
0.413955
-0.000869967
0.414663
-0.000916529
0.417105
-0.0010002
0.417213
-0.0011495
0.417114
-0.00128664
0.41794
-0.00157782
0.419014
-0.001568
0.419823
-0.00153607
0.397803
-0.00152295
0.386087
-0.00146674
0.416078
-0.00152296
0.416461
-0.00152215
0.415412
-0.00152829
0.413982
-0.00150535
0.412806
-0.00149006
0.411923
-0.0012978
0.411254
-0.00115633
0.410749
-0.00100733
0.410343
-0.000870405
0.410116
0.412627
-0.000332522
0.413308
-0.000460952
0.413497
-0.000570599
0.413753
-0.00073161
0.414116
-0.000851446
0.414783
-0.000915588
0.41717
-0.000980687
0.417278
-0.00111865
0.417252
-0.00135719
0.418178
-0.00161306
0.41927
-0.00165888
0.419869
-0.00164782
0.397792
-0.00166207
0.386101
-0.00161386
0.41603
-0.00166983
0.416517
-0.0016709
0.415413
-0.00167123
0.413983
-0.00161685
0.412751
-0.00157047
0.411877
-0.00150364
0.411187
-0.0014005
0.410646
-0.00131152
0.410254
-0.00119092
0.409996
0.41228
-0.000342921
0.413431
-0.000470144
0.413624
-0.000599958
0.413883
-0.000713394
0.41423
-0.000828349
0.414898
-0.000887388
0.417229
-0.000960165
0.417351
-0.00119707
0.417489
-0.00140575
0.418387
-0.00156745
0.419432
-0.00159671
0.419898
-0.0015787
0.397774
-0.00157935
0.386102
-0.00151243
0.415963
-0.00156268
0.416567
-0.00156806
0.415419
-0.00157249
0.413987
-0.00154559
0.412724
-0.00148771
0.411819
-0.00143204
0.411132
-0.00136465
0.410579
-0.0012659
0.410155
-0.00118112
0.409911
0.411924
-0.000351099
0.413552
-0.000453968
0.413727
-0.000580939
0.41401
-0.000691853
0.414341
-0.0008247
0.415031
-0.000879001
0.417283
-0.0010445
0.417516
-0.00127531
0.41772
-0.00137707
0.418488
-0.0015228
0.419578
-0.00154618
0.419921
-0.00152046
0.397748
-0.00151013
0.386091
-0.00143267
0.415886
-0.00147681
0.416611
-0.00148382
0.415426
-0.00149096
0.413994
-0.00146764
0.412701
-0.00144051
0.411792
-0.00137124
0.411063
-0.00129241
0.4105
-0.00124844
0.410111
-0.00115247
0.409815
0.411577
-0.000334503
0.413648
-0.000480653
0.413873
-0.00058204
0.414111
-0.000713085
0.414472
-0.000796447
0.415114
-0.000982415
0.417469
-0.00116246
0.417696
-0.00125485
0.417812
-0.00135105
0.418585
-0.0014884
0.419715
-0.00149795
0.419931
-0.00147214
0.397722
-0.00145245
0.386072
-0.00136274
0.415796
-0.00140677
0.416655
-0.00141287
0.415432
-0.00142423
0.414006
-0.00140328
0.41268
-0.00138281
0.411772
-0.00132053
0.411
-0.00127284
0.410452
-0.00119216
0.41003
-0.00112757
0.40975
0.411238
-0.000361004
0.413764
-0.000459907
0.413972
-0.00055852
0.41421
-0.000687267
0.4146
-0.000925808
0.415353
-0.00122136
0.417764
-0.00114719
0.417622
-0.00123382
0.417899
-0.00132372
0.418675
-0.00145722
0.419849
-0.00146061
0.419934
-0.0014328
0.397694
-0.00141109
0.38605
-0.00131011
0.415695
-0.00134594
0.416691
-0.00135787
0.415444
-0.00137075
0.414018
-0.00135121
0.41266
-0.00131345
0.411734
-0.00130147
0.410988
-0.0012384
0.410389
-0.00118653
0.409978
-0.00112917
0.409693
0.410883
-0.000340059
0.413854
-0.000459847
0.414092
-0.000578524
0.414328
-0.000660173
0.414682
-0.00134933
0.416042
-0.00118828
0.417603
-0.00113528
0.417569
-0.00121763
0.417981
-0.0013046
0.418762
-0.0014314
0.419975
-0.00142708
0.41993
-0.00140156
0.397669
-0.00137597
0.386024
-0.00126668
0.415586
-0.00130209
0.416727
-0.00131269
0.415454
-0.00132667
0.414032
-0.00131011
0.412644
-0.0012988
0.411722
-0.00124635
0.410936
-0.00123366
0.410377
-0.00116435
0.409909
-0.00111276
0.409641
0.410533
-0.00036199
0.413965
-0.000435237
0.414165
-0.000551728
0.414445
-0.00104049
0.415171
-0.00136423
0.416365
-0.00120142
0.417441
-0.0011224
0.41749
-0.00120206
0.418061
-0.00128676
0.418846
-0.00141093
0.4201
-0.00139696
0.419916
-0.00137788
0.39765
-0.0013549
0.386002
-0.00123379
0.415464
-0.00126714
0.41676
-0.0012808
0.415468
-0.00129572
0.414047
-0.00127902
0.412627
-0.00127104
0.411714
-0.00124423
0.410909
-0.00119124
0.410324
-0.00114812
0.409866
-0.00107875
0.409572
0.410209
-0.000336028
0.414052
-0.000454072
0.414283
-0.000546069
0.414537
-0.00114837
0.415773
-0.00131093
0.416528
-0.0011705
0.4173
-0.00111341
0.417433
-0.00118991
0.418137
-0.00127228
0.418929
-0.0013944
0.420222
-0.00137633
0.419898
-0.00136088
0.397634
-0.0013399
0.385981
-0.00121163
0.415336
-0.00124336
0.416792
-0.00125673
0.415481
-0.0012726
0.414063
-0.00125695
0.412612
-0.00125193
0.411709
-0.00122728
0.410884
-0.00120048
0.410297
-0.00113769
0.409803
-0.00109428
0.409529
0.409865
-0.000329116
0.414136
-0.000425793
0.41438
-0.000515568
0.414627
-0.000984405
0.416242
-0.00123415
0.416778
-0.00118763
0.417254
-0.00110322
0.417349
-0.00118513
0.418219
-0.00126357
0.419007
-0.00138508
0.420343
-0.00135884
0.419872
-0.00135194
0.397627
-0.00133435
0.385963
-0.00120013
0.415202
-0.00123253
0.416824
-0.00124132
0.41549
-0.00126211
0.414084
-0.00126592
0.412615
-0.00124198
0.411686
-0.00121797
0.41086
-0.00117246
0.410251
-0.00115573
0.409786
-0.00109339
0.409466
0.409522
-0.000342104
-0.000440993
-0.000506517
-0.000752101
-0.000908125
-0.00118442
-0.00109879
-0.00118265
-0.00125077
-0.00136454
-0.00134335
-0.00134138
-0.00132394
-0.00120876
-0.00123295
-0.00123506
-0.00125661
-0.00123615
-0.00123793
-0.00121397
-0.00119421
-0.0011337
-0.00111923
0.00379049
-0.00416886
-0.0550399
0.0572098
0.00599574
-0.0565943
-0.00325673
-0.00335455
-0.0514007
-0.00706447
0.0520678
0.000815555
-0.000838063
-0.0567789
0.0598598
0.00199045
-0.059737
-0.00099754
-0.00111567
0.0577523
-0.00303199
-0.00311909
-0.00185773
0.00211338
-0.0558578
0.0586611
-0.00216674
-0.0589838
0.00128567
0.00120376
0.0599216
-0.000678453
-0.000796857
-0.0028474
0.00313238
-0.0535832
0.0556025
-0.00425956
-0.0560082
0.00466521
0.0583179
0.00148245
0.00141004
-0.00234744
0.00253234
-0.0515893
0.0523319
-0.00430373
-0.0527272
0.00469904
0.00478032
0.0551695
0.00231673
-0.00306092
-0.0512934
-0.000691318
0.020816
0.000415231
-0.0103702
-0.0101697
-0.000863831
-0.00886264
-0.0095608
0.0504552
-0.0022479
-0.0504123
0.00220502
0.00450296
0.0520055
0.00427675
-0.00475963
-0.0505905
-0.0473758
0.000207807
0.0468366
0.00589938
-0.0508397
-0.00646042
-0.0499388
-0.00222483
0.0501824
0.0037514
-0.00448978
-0.106886
0.0551711
-0.0548326
0.00345194
-0.0515431
0.00401864
0.0520239
0.0137474
0.00552415
-0.0271467
0.0138018
-0.00293047
-0.00299617
0.00490172
-0.0239679
-0.00531588
0.0243821
0.00544667
-0.0564074
0.110515
0.00596708
-0.10942
-0.00706179
-0.105922
-0.00777434
0.10706
0.00137067
-0.00152117
-0.108977
0.0564793
-0.0564545
0.000790767
0.0031346
0.0554789
0.0564515
0.00236065
-0.00254812
-0.056264
0.0289122
-0.000795535
-0.0288575
0.00148428
-0.000743403
-0.0284626
-0.00249823
0.00240719
0.0285536
0.0145342
0.000493578
-0.0149148
-0.000112936
-0.0146613
0.00231766
-0.00253703
0.0148807
0.00187469
-0.0592764
0.113233
0.00263697
-0.112864
-0.00300636
-0.00628062
0.111492
-0.00115316
0.00153333
-0.108737
0.0554689
-0.0556957
-0.00163089
0.000422669
0.0564796
0.0564873
-0.000686191
0.000820983
-0.0566221
0.0294491
0.000527349
-0.0295275
-0.000721707
0.000272706
-0.0294793
-0.000175345
0.000252629
0.0294658
-6.38104e-05
0.0133596
4.75655e-05
-0.0133486
-5.85317e-05
-0.0135203
7.5359e-05
0.0135308
-8.57741e-05
-0.00189835
-0.0586756
0.11268
-0.0013025
-0.113094
0.0017167
-0.00176667
0.113395
-0.00255256
0.00310972
-0.106842
0.0533582
-0.053624
-0.00258156
-0.00184547
0.0552293
0.054465
-0.00258167
0.00287943
-0.0547628
0.00203668
0.0274063
-0.0275182
-0.00192486
-0.0283402
0.000867624
-0.00160162
0.0281817
0.000892461
0.0141999
-0.00171038
-0.0145537
0.0020642
-0.0137372
-0.000325267
2.46579e-05
0.0140378
-0.00386113
-0.0560612
0.109918
-0.00388505
-0.110728
0.00469501
0.00269974
0.11214
0.0248343
-0.00321663
-0.0249258
0.00166944
0.00163875
-0.01297
-0.00154793
0.00157403
0.0129439
-0.00394466
-0.0530331
0.106708
-0.00453802
-0.107465
0.0052958
0.00511079
0.109104
0.0228597
-0.00241531
-0.0229583
0.00251392
-0.0238507
-0.00300567
0.00313668
0.0237197
-6.05787e-05
-0.000283522
-0.102608
-0.000862619
0.0452045
-0.0449549
0.000613067
0.000430286
0.0209899
-0.00123643
-0.0415699
-0.00295611
0.102569
-0.103055
0.00344243
0.00125414
0.0506397
-0.00256696
-0.0284212
0.00252554
-0.00371697
-0.0272258
0.00348479
0.027458
-0.0535726
0.00456977
0.0541058
-0.005103
-0.0273064
0.027576
-0.00201257
-0.00197401
0.0285369
-0.0286205
-0.00125567
-0.00122769
0.00379723
-0.0245452
0.0248834
-0.0041354
0.00383349
-0.00407393
-0.0270659
0.00206288
-0.0147589
-0.00196532
0.00275574
-0.00283484
0.0138266
-0.0544729
0.00681085
-0.00755872
0.0552207
-0.0274083
-0.00272369
0.0277461
0.00514163
0.0147433
0.00206929
-0.0147497
-0.000118212
-0.0294984
0.000381438
-0.000244151
-0.000809798
0.00143374
0.0291426
-0.000854339
0.00197403
0.0566033
-0.00212586
-0.0143984
0.014517
-0.000928456
0.0150152
-0.000137225
-0.0149962
0.014346
0.0143548
-0.00127456
-0.00138757
-0.000812397
-0.0143815
2.42794e-06
-0.0136025
7.97147e-05
0.000776469
-0.000311449
0.0140692
-0.0589987
0.00366425
0.0593056
-0.00193123
-0.00203993
-0.0146803
0.0143914
0.00106536
0.0148484
0.000131049
-0.0149771
0.0149062
0.00215467
0.00083144
-0.0150181
0.00419497
-0.0586454
-0.00222032
-0.00232789
0.000880778
-0.0284895
-0.00152506
0.000793635
0.000490062
-0.000925986
0.0291666
0.000718449
-0.00101204
0.0563003
0.00119903
-0.0150852
0.0148943
0.00068099
0.0141007
0.000959868
-0.0141798
0.0149597
-0.000119876
0.000509317
-0.0150672
-0.000602703
-0.013371
0.000236526
1.65203e-05
0.0133591
-1.59702e-05
-0.0597122
-0.000799439
0.059517
0.000547755
0.000446932
-0.0146795
0.0147415
-4.54886e-05
0.0139172
-0.000824368
-0.0136956
0.0147791
0.00014471
-2.43506e-05
-0.0146076
-0.000278842
-0.0598467
0.000259738
0.000153525
-0.0268848
-0.00205131
0.0268327
0.00101794
0.0010855
0.0260523
-0.00213063
0.00221658
-0.0261382
0.0139753
0.000993076
-0.0269517
0.00105646
0.00104718
-0.00160525
-0.0130396
0.00167493
-0.00187192
0.00239129
0.0136805
-0.0571979
-0.0037103
0.0568032
0.00206638
0.00203858
-0.0141464
0.0138468
-0.00157233
0.0264333
0.00158241
-0.00299294
-0.026628
0.014181
-0.000589003
-0.00149767
-0.0143591
-0.00347782
-0.0575831
0.00195622
0.00190683
-0.0252462
-0.00192097
0.0251544
0.00201277
0.0245553
-0.0016312
0.00171429
-0.0246384
-0.00213041
0.0259974
0.00218532
-0.00195693
0.00206037
-0.0253497
-0.00303201
-0.0239957
0.00317703
-0.00322256
0.0247088
0.0016904
0.00165763
0.00153355
0.0263444
-0.0029926
0.0255315
-0.00309093
-0.0256572
0.0539463
-0.00456774
-0.0543431
0.00496452
-0.023926
-0.00102198
0.0238557
0.00109227
0.0235763
-1.22104e-05
0.000118186
-0.0236823
-0.00156809
0.0244661
0.00165735
-0.0011308
0.00118668
-0.0239819
0.022645
-0.000745807
-0.0230348
0.00113562
-0.00231023
0.0024119
0.022758
0.00467131
-0.00526858
-0.0529753
-0.0269836
0.00359122
-0.0248819
0.00354347
0.0251357
0.0127678
0.0037931
-0.016752
0.000191042
0.0034209
-0.0110816
-0.00363824
0.011299
-0.00254588
0.00298142
-0.104714
0.0515763
-0.0517501
-0.00217369
-0.00259139
0.0530951
0.0522417
-0.00274641
0.00298745
-0.0524827
0.0256562
-0.0257562
-0.0018569
-0.0265123
-0.00203433
0.0264162
0.0107155
-0.00173911
-0.0108655
0.00188915
-0.0110216
-0.00184393
0.00197995
0.0108856
-0.00223414
-0.0509181
-0.00348296
0.104534
-0.10492
0.00386892
0.00509911
0.106012
-0.0114213
0.00279234
0.0117467
-0.00311779
0.0134089
0.00304868
-0.00304481
-0.0134128
-0.0244222
0.0247554
0.0045685
0.00520918
-0.0270933
0.00684957
-0.0536551
-0.00766737
-0.0266249
-0.00201803
-0.00195088
0.0273059
-0.00269183
0.0541698
0.00298704
-0.010998
-0.000164684
0.0112205
-5.77441e-05
0.0117492
-0.000590717
0.000179958
-0.0113384
-0.0113111
-0.00108709
0.0112359
0.00116232
0.0114382
-0.00110628
0.00117528
-0.0115072
-0.00042044
0.0120926
7.70664e-05
-0.00127813
0.0115342
0.00110083
-0.0113569
-0.00170414
-0.0108752
0.00155775
-0.00222282
-0.0102457
0.00195289
0.0105156
-0.004533
0.00495299
0.0535264
0.0254011
-0.00309218
0.0244933
-0.00288913
-0.0246362
-0.00103922
0.0112713
0.00120609
0.0111263
-0.000884324
0.000899472
-0.0111415
0.0243575
-0.00286982
0.0235803
-0.00237859
-0.023617
0.0510455
-0.00349929
-0.0513485
0.00380226
6.14982e-06
-0.0238411
0.000436619
0.0233983
0.00222164
-0.0488339
0.0243505
0.0237392
-0.000870391
-0.000606918
0.00350423
-0.00379667
-0.0242528
0.00450418
-0.0236369
-0.00483524
0.00335588
-0.0474791
-0.00146988
-0.00206788
0.0233992
0.0242618
-0.0245273
0.0241657
0.000367814
0.00347862
0.00925011
3.90842e-05
-0.0258014
0.00566148
0.0262761
-0.00305377
-0.00308246
-0.0132857
0.012851
0.00391328
-0.0112612
0.0114214
0.00326068
0.00398202
-0.0134746
0.00558678
-0.0253488
-0.00603934
-0.0149034
0.00284205
-0.00383234
0.0158937
0.00247813
-0.0145483
-0.00283325
-0.0133703
-9.99849e-06
0.0133039
7.63535e-05
3.01822e-06
-0.0133937
2.04353e-05
-0.0136098
-0.00199698
0.00241254
0.0131942
-0.00234742
-0.0145796
0.00331729
-0.0127266
-0.00313611
0.025248
-0.0126299
0.00166846
0.00157616
0.0121051
-0.00120139
-0.0108495
-5.41722e-05
-0.00158709
-0.0127882
0.00164869
0.0102766
-0.00143231
-0.0102693
0.001425
-0.00170219
0.00181389
0.0106038
-0.011016
0.0109375
-0.00176539
0.0107193
-0.001654
-0.0108044
0.0233152
-0.00277206
-0.0234501
0.00290698
0.0012588
-0.0128135
0.0115659
-1.11541e-05
0.0281503
0.00328727
-0.0279708
-0.00173835
-0.00172835
0.0115516
-0.0124128
0.000922852
-6.15857e-05
-0.0140293
0.00204043
0.0132477
0.00254553
0.00900625
-2.04702e-07
0.00318491
0.0284482
-0.0017743
-0.0017085