/*--------------------------------*- C++ -*----------------------------------*\
| =========                 |                                                 |
| \\      /  F ield         | OpenFOAM: The Open Source CFD Toolbox           |
|  \\    /   O peration     | Version:  5.x                                   |
|   \\  /    A nd           | Web:      www.OpenFOAM.org                      |
|    \\/     M anipulation  |                                                 |
\*---------------------------------------------------------------------------*/
FoamFile
{
    version     2.0;
    format      ascii;
    class       volVectorField;
    location    "200";
    object      U;
}
// * * * * * * * * * * * * * * * * * * * * * * * * * * * * * * * * * * * * * //

dimensions      [0 1 -1 0 0 0 0];

internalField   nonuniform List<vector> 
6584
(
(45.0031 -0.00822507 1.94454e-25)
(45.0022 -0.0180736 9.44708e-24)
(45.0028 -0.0245693 8.57618e-29)
(45.003 -0.0335182 -1.69958e-23)
(45.0035 -0.0430079 0)
(45.0035 -0.0535646 0)
(45.0032 -0.0641961 0)
(45.0014 -0.0716228 1.79824e-23)
(44.9985 -0.0732174 1.85635e-23)
(44.9935 -0.0620387 0)
(44.9882 -0.0290451 8.84986e-24)
(44.9844 0.0238739 -6.09116e-24)
(44.9851 0.0840879 -4.71464e-25)
(44.9903 0.131991 1.22731e-24)
(44.9966 0.15495 4.30449e-25)
(45.0032 0.152904 3.82943e-23)
(45.0064 0.136283 3.44799e-23)
(45.0077 0.114111 2.77302e-24)
(45.0073 0.0910708 2.4501e-23)
(45.0065 0.0702708 1.78153e-23)
(45.0053 0.0530252 0)
(45.0047 0.0378019 0)
(45.0036 0.0271067 2.74796e-23)
(45.0046 0.0121246 1.69319e-23)
(45.0128 -0.0172835 -9.2159e-24)
(45.0109 -0.0364019 -3.59476e-23)
(45.0133 -0.0484876 -4.82576e-23)
(45.0144 -0.0665427 0)
(45.0166 -0.0856485 -6.61746e-24)
(45.0171 -0.107483 -5.44841e-23)
(45.0157 -0.130514 -3.34739e-23)
(45.0072 -0.147731 5.69626e-23)
(44.9952 -0.153954 -1.72139e-24)
(44.962 -0.133806 -1.41805e-23)
(44.9214 -0.0667361 -5.0806e-27)
(44.8943 0.0447152 0)
(44.8989 0.173417 2.0019e-23)
(44.9351 0.274381 1.39258e-23)
(44.9841 0.321725 -8.41611e-23)
(45.018 0.31509 -2.23456e-23)
(45.0322 0.277 -5.31745e-23)
(45.0375 0.22924 -6.94119e-23)
(45.0355 0.181079 -1.81946e-22)
(45.031 0.138696 -1.50817e-22)
(45.0256 0.104427 -1.02195e-23)
(45.022 0.0740094 -4.37992e-24)
(45.0174 0.0541844 0)
(45.0191 0.0252814 1.47277e-23)
(45.0281 -0.0265357 -2.32665e-23)
(45.0268 -0.053856 0)
(45.0321 -0.070544 -9.49414e-24)
(45.0359 -0.0976553 -6.2717e-23)
(45.0416 -0.12678 -9.55698e-23)
(45.0444 -0.161768 0)
(45.042 -0.202219 0)
(45.0236 -0.234528 -1.65388e-23)
(44.9876 -0.270236 -3.73113e-24)
(44.9293 -0.19289 4.15939e-24)
(44.862 -0.1115 -7.54608e-24)
(44.808 0.0339917 -1.09573e-23)
(44.8108 0.214766 0)
(44.8757 0.360907 0)
(44.9617 0.432224 1.70585e-24)
(45.0458 0.509532 -9.64793e-23)
(45.0854 0.427669 0)
(45.0967 0.34562 -2.99468e-23)
(45.0897 0.267188 0)
(45.0768 0.201556 -2.31741e-23)
(45.0628 0.150692 -6.55647e-23)
(45.0528 0.105815 -3.98482e-23)
(45.0423 0.0788022 0)
(45.0418 0.0381818 1.14866e-23)
(45.0469 -0.0351559 -1.42473e-23)
(45.0478 -0.0690355 0)
(45.0573 -0.0893036 -1.27208e-23)
(45.066 -0.12486 0)
(45.0781 -0.163966 0)
(45.0875 -0.214449 0)
(45.0883 -0.278481 -3.16978e-23)
(45.0646 -0.342299 1.75152e-22)
(44.9974 -0.423975 -9.49882e-24)
(44.8854 -0.347298 1.29026e-23)
(44.7406 -0.2559 -7.75802e-24)
(44.5904 -0.024949 2.31819e-24)
(44.5696 0.319121 2.11207e-24)
(44.7229 0.596386 0)
(44.9226 0.689351 -1.41205e-22)
(45.0686 0.640521 0)
(45.189 0.590011 0)
(45.192 0.461655 2.32341e-22)
(45.1715 0.344787 1.54989e-22)
(45.1417 0.25429 -5.27534e-23)
(45.114 0.188036 -3.74072e-23)
(45.0933 0.130551 0)
(45.0749 0.0983939 1.64231e-23)
(45.069 0.0493098 1.37203e-23)
(45.0679 -0.0423302 -5.51694e-24)
(45.0728 -0.0805322 -3.58699e-25)
(45.0876 -0.102909 -1.68851e-24)
(45.1042 -0.145465 -2.56488e-24)
(45.1265 -0.192923 4.3663e-24)
(45.151 -0.259566 1.34824e-22)
(45.1646 -0.35179 -2.37108e-22)
(45.161 -0.4549 2.09058e-22)
(45.0233 -0.501399 1.25321e-23)
(44.8817 -0.567702 6.21234e-23)
(44.6012 -0.522468 -7.31516e-24)
(44.2014 -0.187267 1.2554e-23)
(44.1 0.475529 2.02926e-25)
(44.4903 0.987035 1.94483e-22)
(44.9273 1.06845 0)
(45.1821 0.915457 1.41866e-22)
(45.2702 0.699827 -3.35838e-23)
(45.3278 0.542866 -1.98439e-22)
(45.2818 0.402617 -1.13399e-22)
(45.2239 0.288558 4.14605e-23)
(45.177 0.211706 -2.91308e-24)
(45.1409 0.144933 -1.75895e-24)
(45.1123 0.110487 1.88744e-23)
(45.0982 0.0572502 -7.35845e-24)
(45.0896 -0.0472756 2.73529e-24)
(45.1 -0.0869593 -7.23221e-24)
(45.1212 -0.109243 -3.80759e-25)
(45.1486 -0.155822 0)
(45.1848 -0.206519 -2.93236e-23)
(45.2333 -0.28622 -1.55472e-23)
(45.2719 -0.383735 -9.26701e-23)
(45.2333 -0.495462 -2.01618e-23)
(45.1589 -0.663706 7.75851e-23)
(45.0105 -0.890697 3.44706e-22)
(44.485 -0.926927 7.52097e-23)
(43.7266 -0.61541 1.21391e-26)
(43.3294 0.584796 -2.59512e-24)
(44.1773 1.54934 3.38908e-23)
(45.0888 1.64765 -3.21118e-22)
(45.4391 1.2383 0)
(45.495 0.885229 1.79698e-26)
(45.5066 0.590655 4.44409e-23)
(45.4159 0.429806 1.24767e-23)
(45.3195 0.297155 4.42959e-23)
(45.2474 0.216708 -1.76782e-23)
(45.1919 0.145863 0)
(45.1515 0.112852 -9.89685e-24)
(45.1267 0.0606842 -1.4378e-23)
(45.1103 -0.0493815 3.088e-26)
(45.127 -0.087354 -3.38143e-24)
(45.155 -0.10681 4.236e-24)
(45.1946 -0.153268 5.75064e-25)
(45.2472 -0.199924 9.33265e-25)
(45.3246 -0.285236 -4.46459e-23)
(45.4016 -0.37802 -6.13026e-23)
(45.3942 -0.532544 -1.61011e-24)
(45.425 -0.788439 -1.13759e-23)
(45.3788 -1.20634 5.51101e-23)
(44.7822 -1.67607 0)
(43.1448 -1.87546 4.84132e-23)
(41.0496 0.769423 1.93727e-24)
(43.9897 3.21117 1.42518e-22)
(45.4755 2.31357 -2.81135e-24)
(45.926 1.50644 0)
(45.8302 0.978064 9.67866e-23)
(45.7211 0.567805 1.34778e-23)
(45.564 0.408988 1.1657e-23)
(45.4202 0.271928 -3.37552e-24)
(45.3186 0.198611 -3.80157e-23)
(45.2411 0.131028 0)
(45.1884 0.103892 -9.24918e-24)
(45.1513 0.0585794 -9.22955e-24)
(45.1282 -0.0483809 -3.36352e-24)
(45.1512 -0.0815537 2.93837e-24)
(45.1851 -0.0953859 1.5126e-24)
(45.2364 -0.136859 1.01322e-24)
(45.3049 -0.171108 -1.8685e-24)
(45.4101 -0.248223 2.1324e-23)
(45.5322 -0.313961 6.24902e-27)
(45.59 -0.484164 -1.05064e-23)
(45.7743 -0.756846 8.65028e-27)
(46.014 -1.25347 -1.30877e-22)
(45.9061 -2.21839 -7.64474e-24)
(45.0726 -4.60794 3.06787e-24)
(45.746 5.76638 2.58017e-23)
(46.7366 2.85525 -2.38893e-23)
(46.6457 1.51405 5.0976e-23)
(46.2496 0.90201 -9.16099e-24)
(45.9366 0.448882 3.08156e-23)
(45.7035 0.328209 3.12253e-23)
(45.5118 0.208363 2.36967e-23)
(45.3808 0.155463 -1.27817e-23)
(45.2822 0.0998685 0)
(45.2183 0.0832233 0)
(45.1688 0.0504723 -8.7613e-29)
(45.1418 -0.04449 -6.30642e-25)
(45.1702 -0.0704518 -1.15589e-25)
(45.208 -0.0765274 -4.57964e-25)
(45.2677 -0.108595 2.39692e-24)
(45.3473 -0.123511 3.04983e-24)
(45.4707 -0.178195 1.45789e-23)
(45.627 -0.197069 3.98043e-23)
(45.7619 -0.337749 0)
(46.086 -0.514292 0)
(46.6256 -0.823159 0)
(47.306 -1.60545 -4.19179e-24)
(48.8414 -3.38206 6.64197e-25)
(50.2987 5.00203 0)
(48.4072 2.19939 0)
(47.3467 1.06243 0)
(46.6342 0.604964 1.08527e-23)
(46.099 0.238586 0)
(45.8037 0.19023 -3.51318e-23)
(45.5769 0.110803 -2.20048e-23)
(45.4237 0.0900884 -2.09223e-24)
(45.3086 0.0546395 0)
(45.2368 0.0521805 5.69805e-25)
(45.1765 0.036675 1.13783e-24)
(45.1503 -0.0384193 1.29489e-25)
(45.1823 -0.0559843 -1.8442e-25)
(45.2211 -0.0536079 1.99266e-25)
(45.2839 -0.0738828 9.8885e-25)
(45.3667 -0.0671512 -2.3504e-24)
(45.492 -0.0916861 -1.61092e-25)
(45.6574 -0.0598737 -4.37084e-24)
(45.8443 -0.132099 -2.00617e-25)
(46.2126 -0.14245 0)
(46.8364 -0.119055 -1.15335e-23)
(47.8548 -0.234057 2.24269e-29)
(49.945 -0.368161 -1.55213e-24)
(52.3403 1.23763 -4.03434e-24)
(49.3238 0.562553 -1.42822e-23)
(47.6807 0.262918 -1.09147e-22)
(46.8361 0.146345 0)
(46.1609 -0.0186491 -7.30696e-23)
(45.8393 0.0175469 0)
(45.6019 -0.00627359 -7.49505e-25)
(45.4388 0.010786 0)
(45.3157 0.000617686 -8.22177e-25)
(45.2406 0.013892 1.04779e-25)
(45.1727 0.0183636 -6.91405e-25)
(45.1539 -0.0312252 0)
(45.187 -0.0406783 -1.03973e-24)
(45.2239 -0.0308836 -1.02491e-24)
(45.2843 -0.0398136 -3.57828e-26)
(45.3618 -0.0147842 7.16104e-25)
(45.4733 -0.0112938 4.96801e-24)
(45.621 0.0578529 1.70356e-23)
(45.8141 0.0623802 6.76876e-24)
(46.1171 0.19847 0)
(46.5839 0.490222 5.45994e-23)
(47.4034 0.973352 1.57951e-23)
(48.8079 2.16742 -8.81588e-25)
(51.3948 -2.43232 -1.73384e-24)
(49.0649 -1.11494 2.4501e-23)
(47.529 -0.55308 4.13751e-24)
(46.7895 -0.327832 6.33489e-23)
(46.1089 -0.261643 3.16988e-22)
(45.8039 -0.15543 1.7689e-22)
(45.5821 -0.122665 -1.19036e-22)
(45.4235 -0.0710633 -8.3627e-23)
(45.3019 -0.0550862 3.68358e-24)
(45.2288 -0.0273365 1.5884e-24)
(45.1572 -0.00264193 -4.08847e-24)
(45.1534 -0.0240316 1.1582e-25)
(45.1856 -0.0269435 2.41321e-25)
(45.2185 -0.0121301 4.64612e-25)
(45.2722 -0.0125559 1.33383e-25)
(45.3386 0.0234413 -1.84306e-32)
(45.4272 0.0452005 8.32171e-24)
(45.5406 0.129428 2.64025e-23)
(45.7004 0.188571 6.46401e-24)
(45.8798 0.391614 0)
(46.0823 0.772712 -1.66495e-23)
(46.4409 1.47089 -3.99236e-24)
(46.7705 2.91595 -1.65489e-24)
(49.0156 -4.15495 -2.44151e-25)
(48.0196 -2.12063 0)
(47.0342 -1.10977 -1.03973e-22)
(46.5425 -0.684159 8.27755e-23)
(45.9675 -0.443201 4.6518e-22)
(45.7119 -0.297745 3.03484e-22)
(45.5241 -0.220583 0)
(45.3816 -0.144454 -7.5324e-23)
(45.2692 -0.10583 -4.35997e-23)
(45.2024 -0.0670589 2.79808e-24)
(45.1313 -0.0243193 -3.72178e-24)
(45.1503 -0.0177524 0)
(45.18 -0.0164336 1.68864e-25)
(45.2079 0.000467193 -2.02138e-25)
(45.2533 0.00462748 -5.51534e-25)
(45.3066 0.0434527 0)
(45.3714 0.0713265 -1.67482e-24)
(45.4489 0.15079 4.48901e-24)
(45.558 0.229065 -5.31966e-25)
(45.6236 0.416773 6.54045e-25)
(45.6067 0.722852 7.88789e-24)
(45.5611 1.27921 1.50844e-24)
(45.1302 2.26081 0)
(46.4756 -4.11456 -2.44973e-25)
(46.8044 -2.29908 3.83602e-24)
(46.4427 -1.31387 5.1755e-23)
(46.206 -0.863423 5.4304e-24)
(45.7824 -0.545792 2.12821e-22)
(45.5892 -0.392402 2.18907e-22)
(45.441 -0.289798 0)
(45.3211 -0.201946 -9.7487e-25)
(45.2226 -0.146771 1.65276e-23)
(45.1646 -0.10186 9.51357e-24)
(45.0974 -0.044853 3.29645e-25)
(45.1461 -0.0129418 0)
(45.1726 -0.00982414 0)
(45.1957 0.0065263 0)
(45.2332 0.011603 0)
(45.2752 0.0467295 -2.17034e-25)
(45.3215 0.071281 -8.96095e-27)
(45.3724 0.130683 -9.94569e-24)
(45.4124 0.208803 9.88378e-23)
(45.4385 0.329195 0)
(45.3179 0.491576 0)
(45.1245 0.729967 1.71401e-23)
(44.5361 0.845613 8.41117e-23)
(32.1263 -1.07094 -1.873e-24)
(44.9471 -2.50306 -1.68182e-22)
(45.9193 -1.90356 -3.00212e-23)
(45.9562 -1.24146 -2.23137e-25)
(45.8832 -0.885547 -1.23478e-24)
(45.5962 -0.579175 -7.27482e-23)
(45.4614 -0.438631 7.95689e-24)
(45.3483 -0.328997 1.32919e-25)
(45.2513 -0.240672 -8.17289e-23)
(45.168 -0.175952 0)
(45.1193 -0.129702 3.58902e-24)
(45.0582 -0.0629298 -7.82116e-24)
(45.1423 -0.00977908 0)
(45.1654 -0.00693273 -8.84015e-25)
(45.1848 0.0070467 1.84766e-26)
(45.216 0.0104666 0)
(45.2502 0.0384464 0)
(45.2855 0.0546432 -3.32399e-23)
(45.3221 0.0948296 9.07073e-24)
(45.3527 0.133405 1.37102e-22)
(45.3433 0.206059 1.40541e-22)
(45.2424 0.249493 1.06549e-22)
(45.0947 0.264166 0)
(44.9664 -0.0485991 -5.96223e-24)
(36.9919 -0.819667 1.78734e-23)
(44.8366 -1.45773 -1.60529e-23)
(45.4833 -1.272 1.59841e-23)
(45.6509 -1.04126 -1.66298e-23)
(45.5438 -0.730152 2.63828e-23)
(45.4376 -0.563466 -3.47882e-24)
(45.3449 -0.444366 -1.12175e-25)
(45.2572 -0.342782 -2.33086e-25)
(45.1809 -0.261973 0)
(45.111 -0.193705 -3.73033e-23)
(45.071 -0.149922 -4.21524e-23)
(45.0166 -0.0779395 -1.07547e-23)
(45.1397 -0.00816479 2.62216e-26)
(45.1598 -0.00706445 -7.68408e-25)
(45.1768 0.00362219 1.73598e-24)
(45.2039 0.00401227 1.89275e-28)
(45.2337 0.0238064 -6.22234e-24)
(45.2642 0.0306455 -2.25752e-23)
(45.2973 0.052085 -8.64385e-23)
(45.3256 0.0669182 -1.44662e-22)
(45.3194 0.0947893 -2.92904e-23)
(45.2672 0.0755886 -4.82749e-24)
(45.23 -0.0100036 0)
(45.2345 -0.225195 -1.25851e-24)
(38.0466 -0.661166 -2.42719e-23)
(45.102 -0.826739 -7.37568e-24)
(45.3907 -0.93142 -4.96011e-24)
(45.488 -0.839003 -8.69824e-24)
(45.4087 -0.639656 -1.37319e-22)
(45.3184 -0.526531 0)
(45.248 -0.427181 -1.61314e-23)
(45.1757 -0.339378 -2.45527e-24)
(45.1141 -0.269036 -1.97288e-24)
(45.055 -0.201712 5.04577e-24)
(45.0224 -0.162788 0)
(44.9751 -0.0894999 0)
(45.1388 -0.0078429 -1.06831e-26)
(45.1566 -0.00934516 7.20655e-26)
(45.1724 -0.00216507 6.32307e-25)
(45.1972 -0.00520701 0)
(45.2257 0.00667924 -2.23162e-24)
(45.2555 0.00569592 0)
(45.2915 0.0102132 -2.61118e-23)
(45.3277 0.012739 -1.77693e-24)
(45.363 -0.0250274 -2.12918e-25)
(45.3305 -0.0210676 -3.28932e-24)
(45.3847 -0.0981593 1.55529e-23)
(44.8276 -0.250678 -1.6884e-23)
(39.3794 -0.562002 -3.3621e-23)
(45.1829 -0.621477 3.11358e-24)
(45.3816 -0.694062 1.45825e-23)
(45.403 -0.675744 4.82361e-24)
(45.3089 -0.553104 -6.98634e-23)
(45.2301 -0.474546 7.07756e-23)
(45.1696 -0.397132 0)
(45.1064 -0.324616 2.85402e-23)
(45.0545 -0.266036 -1.19211e-24)
(45.0033 -0.202433 6.68752e-24)
(44.976 -0.169596 0)
(44.9349 -0.0979393 0)
(45.1399 -0.00850081 -6.84256e-26)
(45.156 -0.0129335 1.14603e-25)
(45.1715 -0.00900675 -8.74267e-25)
(45.1954 -0.0152214 -6.58795e-25)
(45.2247 -0.0101197 0)
(45.2565 -0.0167117 0)
(45.2981 -0.022983 4.65403e-23)
(45.3469 -0.0328865 -8.94956e-24)
(45.3978 -0.0639155 6.3493e-24)
(45.4418 -0.140198 -2.22999e-23)
(45.5006 -0.128545 0)
(44.7304 -0.196217 -1.57215e-23)
(39.8591 -0.587758 -1.14637e-22)
(45.2616 -0.438582 1.68494e-23)
(45.3621 -0.491945 5.31591e-23)
(45.3281 -0.514822 8.53376e-23)
(45.2494 -0.470658 5.76589e-23)
(45.1688 -0.41717 6.15326e-23)
(45.1087 -0.361863 -8.6998e-24)
(45.0495 -0.303226 -5.26927e-24)
(45.0031 -0.256414 -1.33051e-23)
(44.9571 -0.198014 -4.79089e-23)
(44.9332 -0.171553 1.20379e-24)
(44.8974 -0.103594 -1.86861e-24)
(45.1429 -0.00983563 -6.17109e-25)
(45.1578 -0.0171367 1.35189e-25)
(45.1738 -0.0159638 -8.94038e-25)
(45.1978 -0.024758 -1.62789e-24)
(45.2289 -0.0250104 0)
(45.2637 -0.035038 0)
(45.3117 -0.0481149 6.46955e-23)
(45.3689 -0.061171 3.91429e-24)
(45.4452 -0.104553 -1.10417e-23)
(45.4738 -0.111235 -1.69869e-23)
(45.7048 -0.308752 0)
(43.2035 -0.0201409 -3.38517e-23)
(41.9108 -0.607211 -5.40947e-25)
(45.41 -0.316669 9.69082e-24)
(45.3422 -0.456602 4.19136e-24)
(45.3218 -0.424371 -2.46386e-23)
(45.2164 -0.406205 -1.81854e-23)
(45.1275 -0.366491 1.07214e-23)
(45.0627 -0.327535 -3.45518e-24)
(45.0041 -0.279432 -4.71271e-23)
(44.9596 -0.243237 -1.44831e-23)
(44.9169 -0.190416 -6.27595e-23)
(44.8949 -0.169951 0)
(44.8634 -0.106972 -8.86406e-24)
(45.1476 -0.0115917 -6.02406e-25)
(45.1618 -0.0214543 -5.85306e-25)
(45.1787 -0.0224767 0)
(45.2031 -0.0331502 -1.17571e-24)
(45.2367 -0.0375614 0)
(45.2742 -0.0488776 -3.86179e-23)
(45.329 -0.0677304 -5.04977e-24)
(45.3906 -0.075706 6.4227e-24)
(45.4855 -0.135857 -9.85175e-24)
(45.5199 -0.102826 -1.05303e-23)
(45.7111 -0.317166 -2.84663e-24)
(43.2771 -0.0615851 -9.00395e-23)
(41.9799 -0.490437 3.44099e-23)
(45.3887 -0.244085 -9.53622e-24)
(45.3508 -0.408068 -4.34151e-24)
(45.3187 -0.347482 -1.01034e-24)
(45.1924 -0.356717 -8.97523e-24)
(45.0981 -0.321365 -1.13455e-23)
(45.0274 -0.296108 -2.63121e-23)
(44.9679 -0.255538 -5.97027e-24)
(44.9233 -0.228598 -3.59088e-24)
(44.8824 -0.181093 -2.03272e-23)
(44.8611 -0.165958 -8.82968e-24)
(44.8329 -0.108558 -3.9761e-24)
(45.1536 -0.0135733 0)
(45.1676 -0.0255605 -1.33064e-24)
(45.1854 -0.0282701 -7.59678e-25)
(45.2106 -0.0401099 -8.16166e-25)
(45.2467 -0.0478384 5.3458e-24)
(45.2866 -0.0585977 -4.31913e-23)
(45.3473 -0.0829244 0)
(45.4124 -0.0828659 -1.00185e-23)
(45.5169 -0.155251 0)
(45.566 -0.0998654 0)
(45.7311 -0.307688 -1.13514e-25)
(43.3315 -0.0779768 2.02629e-25)
(42.0385 -0.416963 1.56107e-23)
(45.3889 -0.198061 -6.1784e-24)
(45.3673 -0.361605 -2.0412e-24)
(45.3155 -0.287607 -2.15568e-24)
(45.1762 -0.316971 2.28323e-24)
(45.0769 -0.281258 -5.07207e-24)
(45.0001 -0.26816 -7.27148e-24)
(44.9391 -0.232634 1.23043e-23)
(44.8931 -0.213736 -3.66237e-24)
(44.8531 -0.17103 0)
(44.8317 -0.160478 1.45124e-28)
(44.806 -0.108781 0)
(45.1606 -0.0156395 0)
(45.1746 -0.0292619 -1.66611e-24)
(45.1936 -0.0332446 -9.67418e-25)
(45.2196 -0.0455901 2.0615e-24)
(45.2581 -0.0560476 0)
(45.2999 -0.0649568 1.57722e-24)
(45.3652 -0.0941436 -3.14017e-23)
(45.4341 -0.0858337 -2.00059e-23)
(45.5427 -0.165701 -1.66655e-24)
(45.6054 -0.0966402 8.40844e-26)
(45.7512 -0.293133 1.19155e-23)
(43.3607 -0.0854346 -1.09534e-23)
(42.0722 -0.362928 1.9998e-23)
(45.3937 -0.165837 -2.82521e-24)
(45.3826 -0.322818 4.60774e-24)
(45.3135 -0.241402 -7.81447e-25)
(45.1664 -0.284307 -3.98301e-24)
(45.0614 -0.246497 3.37346e-24)
(44.9791 -0.24383 8.86129e-24)
(44.9161 -0.211373 -1.77182e-28)
(44.8682 -0.19943 -1.76803e-24)
(44.8285 -0.160878 -1.30616e-23)
(44.8063 -0.154181 6.69883e-24)
(44.7825 -0.107998 6.19859e-24)
(45.1685 -0.0176953 -9.62842e-25)
(45.1826 -0.032466 -1.90557e-24)
(45.2026 -0.0374085 -2.56459e-32)
(45.2294 -0.0496991 4.55123e-24)
(45.27 -0.0624365 1.13639e-23)
(45.3135 -0.0687674 9.2356e-25)
(45.3821 -0.102003 -3.00772e-23)
(45.4548 -0.0863059 -1.86002e-23)
(45.5646 -0.170392 1.01717e-23)
(45.6384 -0.0937658 0)
(45.7669 -0.277482 2.42733e-24)
(43.378 -0.0884738 -3.93962e-24)
(42.0925 -0.321429 5.81034e-24)
(45.3957 -0.141764 -2.2783e-24)
(45.3956 -0.28982 -1.96618e-29)
(45.3125 -0.205175 -6.82922e-24)
(45.1608 -0.257099 -3.28817e-24)
(45.0499 -0.216859 -8.03759e-25)
(44.9629 -0.222859 4.82922e-24)
(44.8978 -0.1921 -7.42165e-24)
(44.8475 -0.186118 -1.11153e-23)
(44.8077 -0.151064 -5.53251e-24)
(44.7846 -0.147567 -5.78562e-24)
(44.762 -0.1065 5.42174e-24)
(45.1769 -0.0196766 -8.82127e-33)
(45.1912 -0.0351515 -1.03125e-24)
(45.2122 -0.040822 1.14939e-24)
(45.2396 -0.0526269 2.38706e-24)
(45.2821 -0.0672672 8.95144e-28)
(45.3271 -0.0707348 0)
(45.3978 -0.107172 -7.71357e-25)
(45.4741 -0.0853847 -1.69024e-23)
(45.5833 -0.17122 8.54415e-24)
(45.6667 -0.0912298 0)
(45.7797 -0.261856 -9.34459e-29)
(43.3887 -0.0887613 2.95143e-24)
(42.1053 -0.289092 -6.45574e-24)
(45.3959 -0.123543 0)
(45.4069 -0.261613 4.88904e-25)
(45.3122 -0.176601 2.29798e-24)
(45.1577 -0.234183 0)
(45.0411 -0.191809 1.62123e-24)
(44.9504 -0.204848 1.54942e-24)
(44.8831 -0.174929 -1.83186e-23)
(44.8305 -0.174 -4.65592e-24)
(44.7904 -0.141847 4.69188e-24)
(44.7661 -0.140969 -5.81187e-24)
(44.7443 -0.104521 0)
(45.1855 -0.0215438 1.0708e-24)
(45.2002 -0.0373392 -1.07595e-24)
(45.2219 -0.0435687 0)
(45.2501 -0.054589 5.40669e-25)
(45.2939 -0.070793 2.14577e-24)
(45.3403 -0.0714267 1.21813e-25)
(45.4122 -0.110229 0)
(45.4919 -0.0837481 -3.2198e-25)
(45.5997 -0.169474 7.26816e-24)
(45.6914 -0.0890051 0)
(45.7904 -0.247042 1.73561e-24)
(43.395 -0.08736 1.17758e-24)
(42.1127 -0.263288 -4.35372e-24)
(45.3943 -0.10964 4.29397e-25)
(45.4167 -0.237564 -1.45813e-24)
(45.3124 -0.154033 1.51735e-25)
(45.1563 -0.214718 1.14983e-24)
(45.0344 -0.17079 -5.05443e-25)
(44.9408 -0.189391 1.36281e-25)
(44.8712 -0.159842 -6.64282e-24)
(44.8165 -0.16314 2.57134e-24)
(44.7757 -0.133378 2.89257e-24)
(44.7503 -0.134621 -8.01974e-25)
(44.7289 -0.102249 -3.07719e-25)
(45.1943 -0.0232691 -7.23544e-26)
(45.2094 -0.0390745 -1.3006e-24)
(45.2317 -0.0457336 -1.78816e-25)
(45.2605 -0.0557929 0)
(45.3053 -0.0732446 2.15463e-23)
(45.3531 -0.0712822 0)
(45.4253 -0.111658 -1.22085e-23)
(45.5084 -0.0818165 0)
(45.6141 -0.16608 6.06158e-24)
(45.7133 -0.0870977 3.66638e-24)
(45.7983 -0.233268 0)
(43.3975 -0.0851962 9.36199e-25)
(42.1167 -0.242536 0)
(45.3909 -0.0990777 3.54397e-25)
(45.4251 -0.216916 -4.03836e-25)
(45.313 -0.13619 0)
(45.1561 -0.198071 0)
(45.0291 -0.153296 -4.1212e-25)
(44.9334 -0.176135 5.79963e-25)
(44.8616 -0.146762 0)
(44.8049 -0.153516 0)
(44.7634 -0.125733 2.21356e-24)
(44.7368 -0.128668 3.80534e-25)
(44.7156 -0.0998318 -1.81003e-24)
(45.2031 -0.0248319 7.12235e-26)
(45.2185 -0.0404111 5.88964e-26)
(45.2414 -0.0473976 0)
(45.2709 -0.0564259 -1.09424e-25)
(45.3162 -0.0748221 1.05554e-23)
(45.3653 -0.0706291 -2.27234e-25)
(45.4374 -0.111865 -1.08528e-23)
(45.5235 -0.0798615 -3.69023e-25)
(45.6272 -0.161714 0)
(45.7327 -0.0854055 3.94525e-24)
(45.8036 -0.220682 0)
(43.3971 -0.0831471 0)
(42.1194 -0.225692 0)
(45.3861 -0.0908365 2.69691e-24)
(45.4324 -0.199005 4.12251e-24)
(45.3137 -0.122101 0)
(45.1567 -0.183764 -1.07872e-25)
(45.025 -0.138876 0)
(44.9277 -0.164771 0)
(44.8536 -0.13557 0)
(44.7953 -0.145063 0)
(44.7529 -0.118961 -1.82648e-24)
(44.7253 -0.1232 -1.41432e-24)
(44.704 -0.0974056 1.91088e-29)
(45.2117 -0.0262138 0)
(45.2276 -0.0414031 5.35957e-25)
(45.2508 -0.0486306 -8.32354e-25)
(45.2809 -0.0566427 1.1435e-24)
(45.3265 -0.0756975 9.89537e-24)
(45.377 -0.0697067 2.03882e-23)
(45.4484 -0.11118 0)
(45.5375 -0.0780689 0)
(45.639 -0.156876 5.99716e-25)
(45.7502 -0.0840433 -4.82074e-25)
(45.8074 -0.209433 -1.0977e-31)
(43.3952 -0.081288 1.72522e-24)
(42.1201 -0.211556 6.60422e-24)
(45.3802 -0.0843221 2.24609e-24)
(45.4388 -0.18373 1.40258e-25)
(45.3147 -0.111016 0)
(45.1577 -0.17146 -2.83412e-24)
(45.0217 -0.127069 -3.84902e-24)
(44.9233 -0.155029 0)
(44.847 -0.126094 -3.58512e-24)
(44.7873 -0.137706 -3.14146e-39)
(44.744 -0.113046 4.56258e-24)
(44.7154 -0.118277 2.59164e-24)
(44.6938 -0.0950631 2.13623e-24)
(45.2201 -0.0273958 -1.09703e-24)
(45.2364 -0.0420973 4.77119e-25)
(45.2599 -0.049487 -5.38896e-25)
(45.2907 -0.0565695 2.20046e-24)
(45.3364 -0.0760144 9.05498e-24)
(45.3881 -0.0686907 3.83043e-23)
(45.4587 -0.109869 0)
(45.5505 -0.0765243 0)
(45.65 -0.151866 5.32157e-25)
(45.7664 -0.0830656 0)
(45.8099 -0.199404 0)
(43.3926 -0.0796927 0)
(42.1194 -0.199716 0)
(45.3726 -0.0793184 -1.85205e-24)
(45.4444 -0.170669 -2.73644e-24)
(45.3159 -0.102363 -2.59828e-24)
(45.1591 -0.160894 -4.61553e-24)
(45.0191 -0.117519 -3.22185e-24)
(44.92 -0.146703 0)
(44.8415 -0.118196 -8.80042e-25)
(44.7806 -0.131368 0)
(44.7363 -0.107978 0)
(44.7068 -0.113928 1.17046e-24)
(44.6848 -0.0928871 7.07631e-25)
(45.2282 -0.0283578 -9.54728e-25)
(45.2451 -0.0425338 -5.60877e-25)
(45.2686 -0.0500105 -1.07327e-25)
(45.3002 -0.0563038 7.75044e-27)
(45.3457 -0.075889 -2.50296e-32)
(45.3987 -0.0677133 1.81198e-23)
(45.4683 -0.108138 0)
(45.5627 -0.0752732 -6.00124e-25)
(45.6602 -0.146884 7.30669e-25)
(45.7815 -0.0824959 5.18364e-25)
(45.8115 -0.190487 3.46863e-24)
(43.3896 -0.0784173 1.32319e-24)
(42.1178 -0.189863 2.28849e-24)
(45.3637 -0.0756383 0)
(45.4494 -0.159488 0)
(45.3172 -0.0957269 1.403e-26)
(45.1607 -0.151852 1.91595e-24)
(45.0171 -0.109934 1.05844e-29)
(44.9174 -0.139636 -1.61051e-24)
(44.8368 -0.111745 0)
(44.775 -0.125974 0)
(44.7295 -0.103742 5.12941e-25)
(44.6993 -0.110172 0)
(44.6768 -0.0909488 0)
(45.2361 -0.0290787 0)
(45.2536 -0.0427382 -9.63853e-25)
(45.2771 -0.0502316 -5.8443e-25)
(45.3095 -0.0559154 -1.0053e-24)
(45.3546 -0.0754214 0)
(45.4089 -0.0668597 0)
(45.4773 -0.106136 0)
(45.5741 -0.0743622 -1.08437e-24)
(45.67 -0.142087 0)
(45.7959 -0.0823564 -1.25844e-25)
(45.812 -0.182595 1.4755e-24)
(43.3865 -0.0775079 5.48326e-25)
(42.1156 -0.181732 1.88202e-24)
(45.3536 -0.0731264 2.40368e-24)
(45.454 -0.149948 1.80503e-24)
(45.3187 -0.0908097 0)
(45.1626 -0.14417 -1.5657e-24)
(45.0155 -0.104074 -1.81296e-24)
(44.9155 -0.133701 0)
(44.8328 -0.106626 0)
(44.7702 -0.121468 0)
(44.7235 -0.100321 4.69504e-25)
(44.6927 -0.107018 0)
(44.6695 -0.0893115 0)
(45.2436 -0.0295308 3.03631e-26)
(45.2618 -0.0427282 -8.48325e-25)
(45.2853 -0.0501665 8.58632e-26)
(45.3185 -0.0554613 0)
(45.3632 -0.0746864 4.23352e-25)
(45.4187 -0.0661474 -5.24181e-25)
(45.4859 -0.103975 0)
(45.5851 -0.0738097 -5.02346e-25)
(45.6794 -0.137564 5.95736e-25)
(45.8097 -0.0826471 4.60171e-25)
(45.8117 -0.175644 -8.57492e-26)
(43.3836 -0.0769788 4.35108e-25)
(42.113 -0.1751 3.05937e-24)
(45.3422 -0.071676 4.22757e-26)
(45.4582 -0.14189 -3.65442e-26)
(45.3203 -0.0873985 1.30533e-24)
(45.1645 -0.137728 1.08885e-26)
(45.0143 -0.0997491 -9.52204e-26)
(44.9141 -0.128798 0)
(44.8293 -0.102737 -1.09615e-24)
(44.7661 -0.117798 -9.1335e-25)
(44.7182 -0.0977006 0)
(44.6868 -0.104478 1.0109e-24)
(44.6627 -0.0880315 7.39104e-26)
(45.2509 -0.0296787 0)
(45.2698 -0.0425086 -4.63167e-25)
(45.2931 -0.0498256 -1.12878e-25)
(45.3273 -0.0549926 6.2987e-27)
(45.3714 -0.0737318 0)
(45.4283 -0.0656212 7.60556e-24)
(45.494 -0.101765 -1.56051e-24)
(45.5956 -0.0736302 -3.67501e-25)
(45.6884 -0.13339 -5.02699e-25)
(45.823 -0.0833714 -3.64514e-25)
(45.8106 -0.169571 9.37118e-25)
(43.381 -0.076846 6.43734e-25)
(42.1104 -0.169811 1.21283e-24)
(45.3298 -0.0712077 4.09612e-26)
(45.4622 -0.1352 -1.08813e-24)
(45.322 -0.0853319 -9.69098e-25)
(45.1666 -0.132433 2.12406e-26)
(45.0134 -0.0968097 -9.0762e-26)
(44.913 -0.124858 0)
(44.8262 -0.100003 -7.5428e-25)
(44.7625 -0.114934 -7.12681e-25)
(44.7133 -0.0958732 0)
(44.6814 -0.102567 3.39542e-25)
(44.6565 -0.0871635 -4.93715e-25)
(45.2582 -0.0294767 -3.97708e-25)
(45.278 -0.0420769 4.35423e-25)
(45.301 -0.0492091 -9.08651e-25)
(45.3363 -0.0545187 7.01892e-27)
(45.3796 -0.0725968 2.9465e-25)
(45.438 -0.0653164 7.34411e-24)
(45.502 -0.0995915 -7.84287e-25)
(45.6061 -0.0738375 -2.33036e-25)
(45.6975 -0.129617 -3.99707e-25)
(45.8364 -0.0844084 -7.02975e-25)
(45.8087 -0.164225 -8.34137e-25)
(43.379 -0.0771047 -2.16052e-25)
(42.1079 -0.165632 -9.49277e-25)
(45.3161 -0.0716887 0)
(45.466 -0.129932 -7.27621e-25)
(45.3238 -0.084511 -6.57608e-25)
(45.1688 -0.128223 9.30317e-27)
(45.0126 -0.0951265 0)
(44.9123 -0.121808 5.01842e-26)
(44.8234 -0.0983406 7.62669e-26)
(44.7594 -0.11283 -5.20576e-25)
(44.7087 -0.0948216 -5.60764e-25)
(44.6764 -0.101287 2.20868e-25)
(44.6504 -0.0867572 0)
(45.2643 -0.0288103 -2.96088e-25)
(45.2852 -0.041399 3.7014e-25)
(45.3077 -0.0482633 -3.41011e-25)
(45.3443 -0.0540577 0)
(45.3865 -0.0712818 0)
(45.4466 -0.0652741 -1.63631e-24)
(45.5088 -0.0974977 5.81629e-25)
(45.6155 -0.074469 -3.09764e-25)
(45.7053 -0.126376 -5.35413e-25)
(45.8485 -0.0859425 -7.65754e-26)
(45.8062 -0.159827 5.95239e-25)
(43.3777 -0.0778121 0)
(42.106 -0.162723 0)
(45.3029 -0.0730158 0)
(45.4695 -0.125905 0)
(45.3254 -0.084808 -1.25094e-26)
(45.1709 -0.125053 0)
(45.0119 -0.09467 0)
(44.9119 -0.119646 4.64281e-26)
(44.821 -0.097774 0)
(44.7568 -0.111514 0)
(44.7047 -0.0946023 0)
(44.6723 -0.100705 2.00243e-25)
(44.6451 -0.0869167 0)
(45.2736 -0.0277104 0)
(45.2966 -0.0405469 -1.61714e-26)
(45.3178 -0.0470612 -6.41157e-26)
(45.3573 -0.0536658 4.15989e-27)
(45.3966 -0.0698775 8.99624e-26)
(45.4607 -0.0655363 -3.06606e-24)
(45.5185 -0.0956418 3.48349e-26)
(45.6307 -0.0756123 1.39684e-28)
(45.7162 -0.123762 8.10962e-32)
(45.866 -0.0864025 -1.49914e-29)
(45.802 -0.1549 7.44796e-25)
(43.3774 -0.0789323 0)
(42.1036 -0.15919 7.58471e-25)
(45.2839 -0.0755865 -1.21671e-25)
(45.474 -0.124957 3.2047e-25)
(45.3267 -0.0862578 -1.16386e-25)
(45.1745 -0.122765 0)
(45.0107 -0.0950901 0)
(44.9121 -0.118076 0)
(44.8174 -0.0979777 0)
(44.7537 -0.110728 0)
(44.699 -0.0949898 0)
(44.6666 -0.100642 1.27145e-25)
(44.6373 -0.0875735 0)
(48.5248 -3.71913 9.25028e-25)
(50.0582 5.85548 3.25495e-24)
(45.3225 6.4299 1.50186e-23)
(49.9359 -0.756712 -1.52648e-24)
(52.6831 1.87319 -6.08163e-25)
(50.5736 5.45138 -2.71534e-24)
(49.0358 1.9431 -8.17486e-25)
(51.9129 -2.20667 -6.56314e-24)
(52.7794 1.30267 -1.95945e-24)
(47.0212 2.90939 -2.72283e-24)
(49.3468 -4.32901 1.0224e-23)
(51.6301 -2.58998 0)
(45.2905 2.39806 2.75547e-28)
(46.5536 -4.54228 -6.5794e-24)
(48.9924 -4.46502 5.6755e-24)
(44.535 1.01761 0)
(36.1298 -0.388861 -1.14642e-24)
(31.5904 -1.17118 3.52012e-24)
(44.6944 -2.98145 3.56835e-23)
(46.2323 -4.43091 -9.95134e-24)
(44.5557 -4.38463 7.20447e-24)
(41.0815 -0.125164 1.90611e-24)
(44.6835 6.06391 2.10056e-23)
(43.1561 2.82085 4.51136e-23)
(47.0085 -1.86847 -5.23251e-24)
(48.3014 -3.3248 2.64008e-25)
(45.4101 -4.11604 -9.8734e-24)
(47.9089 10.6743 0)
(42.3046 9.82365 -1.19576e-23)
(49.8334 5.35042 0)
(48.2624 3.02362 4.90832e-25)
(46.6611 3.36663 -6.05744e-23)
(47.8201 -0.596453 5.66433e-24)
(49.6278 -0.685565 -1.40686e-24)
(48.5926 -3.02642 3.01735e-25)
(49.535 -2.29109 -2.71768e-25)
(50.9609 -2.74202 2.51418e-25)
(50.1079 -4.58438 -2.69986e-25)
(52.8802 5.11278 2.65798e-24)
(51.6213 7.80825 1.1335e-24)
(52.2522 1.76083 2.46121e-25)
(49.6689 1.26332 -1.71634e-23)
(48.732 2.6866 6.72048e-24)
(47.5895 0.726871 1.14637e-23)
(48.8736 1.71919 7.18553e-25)
(49.642 -0.326807 -2.48898e-27)
(49.7426 0.748774 9.45115e-29)
(51.1206 1.309 -1.48094e-24)
(51.4454 -0.508021 -1.94419e-26)
(52.5841 -1.94146 1.08614e-25)
(53.4038 1.53859 -2.20879e-24)
(51.6308 -2.07599 -7.86406e-24)
(49.6258 -0.832814 2.15736e-24)
(49.7952 0.717128 -1.76695e-23)
(46.6943 1.41905 -1.05936e-23)
(47.0301 2.65088 1.17402e-24)
(48.6688 1.93099 0)
(48.0596 2.65259 0)
(48.4212 3.76988 -5.11768e-25)
(49.7427 3.05804 -5.93646e-26)
(47.314 -5.21395 -2.2238e-25)
(49.9628 -4.01268 2.13311e-24)
(49.3401 -4.03238 4.60704e-28)
(48.504 -2.22889 3.32713e-23)
(49.4167 -1.27174 2.78829e-23)
(44.1124 -6.28264 -8.5116e-25)
(45.7488 -5.92691 -9.74093e-26)
(46.7753 -4.21915 4.63127e-24)
(47.0589 -2.6376 0)
(48.1439 -2.4216 0)
(40.9452 -4.90981 8.97209e-25)
(42.3719 -5.97638 0)
(44.847 0.0470842 0)
(39.1544 -0.356906 1.12853e-23)
(36.4665 -0.463732 8.67653e-28)
(36.2251 -0.912313 7.84179e-24)
(44.2517 -1.5897 0)
(44.5897 -2.74729 0)
(49.9436 -4.85914 2.22323e-25)
(48.0471 -6.7266 1.38353e-24)
(47.2849 -4.52864 8.56582e-24)
(48.174 -7.14525 3.80657e-25)
(50.1157 -5.05156 9.64187e-25)
(43.2477 -7.67222 1.63162e-23)
(47.7472 -7.45031 1.79796e-24)
(51.4972 7.99075 -1.3685e-25)
(48.275 10.4997 -1.64237e-25)
(48.1934 6.75951 -2.82505e-24)
(48.4455 9.86625 -2.91734e-25)
(51.415 7.78178 8.00096e-26)
(51.4236 -0.76317 2.27819e-25)
(51.0433 -2.48841 0)
(49.6888 -1.91032 3.71749e-25)
(51.1466 -2.65568 8.34986e-27)
(51.452 -0.681909 7.13768e-28)
(50.2993 -4.75694 -4.67645e-25)
(51.1081 -2.78515 9.11678e-27)
(53.3812 1.80941 -3.19081e-24)
(52.9403 4.92078 5.94004e-24)
(52.0793 3.52596 -4.6923e-25)
(52.9296 4.66226 -7.97149e-25)
(53.4211 2.11805 1.50076e-24)
(51.5467 7.61055 1.03024e-24)
(52.8679 4.85909 2.90793e-24)
(51.7797 4.04328 -4.81742e-25)
(49.902 2.9435 0)
(50.9965 1.5476 -1.24737e-24)
(49.6046 1.0902 2.70336e-25)
(50.6251 1.75754 -1.05347e-25)
(49.1785 3.12696 1.17786e-26)
(51.4516 -0.542151 -6.77879e-28)