/*--------------------------------*- C++ -*----------------------------------*\
| =========                 |                                                 |
| \\      /  F ield         | OpenFOAM: The Open Source CFD Toolbox           |
|  \\    /   O peration     | Version:  5.x                                   |
|   \\  /    A nd           | Web:      www.OpenFOAM.org                      |
|    \\/     M anipulation  |                                                 |
\*---------------------------------------------------------------------------*/
FoamFile
{
    version     2.0;
    format      ascii;
    class       volScalarField;
    location    "300";
    object      massFlux;
}
// * * * * * * * * * * * * * * * * * * * * * * * * * * * * * * * * * * * * * //

dimensions      [0 0 0 0 0 0 0];

internalField   nonuniform List<scalar> 
6584
(
0.0241652
0.0241651
0.0241651
0.0241652
0.0241652
0.0241652
0.0241652
0.0241652
0.0241652
0.0241652
0.0241652
0.0241652
0.0241652
0.0241652
0.0241652
0.0241652
0.0241652
0.0241652
0.0241652
0.0241652
0.0241651
0.0241651
0.0241651
0.0241651
0.0241388
0.0241388
0.0241388
0.0241388
0.0241388
0.0241389
0.0241389
0.024139
0.024139
0.024139
0.024139
0.024139
0.024139
0.024139
0.024139
0.024139
0.024139
0.0241389
0.0241389
0.0241389
0.0241388
0.0241388
0.0241388
0.0241387
0.0241124
0.0241124
0.0241124
0.0241124
0.0241125
0.0241125
0.0241126
0.0241127
0.0241128
0.0241259
0.0241259
0.0241259
0.0241259
0.0241259
0.0241259
0.0241128
0.0241127
0.0241126
0.0241126
0.0241125
0.0241125
0.0241125
0.0241124
0.0241124
0.024086
0.0240861
0.0240861
0.0240861
0.0240861
0.0240862
0.0240863
0.0240864
0.0240865
0.0240996
0.0240996
0.0240995
0.0240995
0.0240996
0.0240996
0.0240997
0.0240864
0.0240863
0.0240863
0.0240862
0.0240862
0.0240861
0.0240861
0.024086
0.0240597
0.0240597
0.0240598
0.0240598
0.0240598
0.0240599
0.0240599
0.0240599
0.0240732
0.0240733
0.0240731
0.024073
0.024073
0.024073
0.0240733
0.0240733
0.0240733
0.0240601
0.02406
0.0240599
0.0240599
0.0240598
0.0240597
0.0240597
0.0240334
0.0240334
0.0240334
0.0240335
0.0240336
0.0240336
0.0240337
0.0240468
0.0240467
0.0240466
0.0240531
0.0240528
0.0240527
0.0240531
0.0240468
0.0240471
0.0240471
0.024034
0.0240338
0.0240337
0.0240336
0.0240335
0.0240334
0.0240334
0.0240071
0.0240071
0.0240071
0.0240072
0.0240073
0.0240074
0.0240075
0.0240205
0.0240204
0.0240202
0.024026
0.0240288
0.0240284
0.0240259
0.0240271
0.024021
0.024021
0.0240081
0.0240077
0.0240075
0.0240074
0.0240073
0.0240072
0.0240071
0.0239808
0.0239808
0.0239809
0.0239809
0.0239811
0.0239812
0.0239815
0.0239944
0.0239943
0.0239943
0.0239996
0.0240007
0.0240019
0.0240011
0.0239953
0.0239952
0.0239822
0.0239817
0.0239814
0.0239812
0.023981
0.0239809
0.0239808
0.0239545
0.0239545
0.0239546
0.0239547
0.0239549
0.0239551
0.0239555
0.0239684
0.0239685
0.0239688
0.023974
0.0239751
0.0239768
0.023976
0.0239701
0.0239696
0.0239564
0.0239557
0.0239553
0.023955
0.0239548
0.0239546
0.0239545
0.0239282
0.0239283
0.0239284
0.0239285
0.0239287
0.023929
0.0239295
0.0239425
0.0239427
0.0239435
0.023949
0.0239511
0.0239538
0.0239517
0.023945
0.0239442
0.0239307
0.0239297
0.0239292
0.0239288
0.0239286
0.0239284
0.0239283
0.0239019
0.023902
0.0239021
0.0239023
0.0239026
0.0239029
0.0239035
0.0239166
0.0239171
0.0239181
0.0239243
0.0239273
0.023931
0.0239276
0.0239201
0.0239188
0.0239049
0.0239038
0.0239031
0.0239027
0.0239024
0.0239021
0.023902
0.0238756
0.0238757
0.0238759
0.0238761
0.0238764
0.0238768
0.0238775
0.0238907
0.0238914
0.0238927
0.0238992
0.0239027
0.0239072
0.023903
0.0238949
0.0238933
0.0238791
0.0238778
0.0238771
0.0238765
0.0238761
0.0238759
0.0238757
0.0238494
0.0238495
0.0238497
0.0238499
0.0238503
0.0238507
0.0238515
0.0238647
0.0238655
0.0238669
0.0238736
0.0238771
0.023882
0.0238777
0.0238694
0.0238676
0.0238532
0.0238518
0.0238509
0.0238503
0.0238498
0.0238496
0.0238493
0.0238231
0.0238232
0.0238234
0.0238237
0.0238241
0.0238246
0.0238254
0.0238259
0.0238394
0.0238406
0.023847
0.0238495
0.0186099
0.023852
0.0238518
0.0238436
0.0238418
0.0238272
0.0238257
0.0238248
0.023824
0.0238235
0.0238232
0.023823
0.0237968
0.023797
0.0237972
0.0237975
0.0237979
0.0237984
0.0237991
0.0237994
0.0238129
0.0238141
0.0238205
0.0238195
0.0226685
0.0238255
0.0238184
0.0238175
0.023802
0.0238009
0.0237994
0.0237985
0.0237978
0.0237972
0.0237969
0.0237966
0.0237705
0.0237707
0.0237709
0.0237712
0.0237716
0.0237721
0.0237727
0.0237731
0.0237866
0.0237879
0.0237878
0.023793
0.0227311
0.0237926
0.0237922
0.0237913
0.0237758
0.0237746
0.023773
0.0237721
0.0237714
0.0237708
0.0237705
0.0237702
0.0237442
0.0237444
0.0237446
0.023745
0.0237454
0.0237458
0.0237464
0.0237469
0.0237477
0.0237617
0.0237615
0.0237455
0.0232806
0.0237663
0.0237659
0.023765
0.0237495
0.0237483
0.0237467
0.0237457
0.0237449
0.0237443
0.023744
0.0237436
0.0237179
0.0237181
0.0237183
0.0237187
0.0237191
0.0237195
0.0237202
0.0237207
0.0237216
0.0237222
0.0237353
0.0237128
0.0232645
0.02374
0.0237266
0.0237247
0.0237232
0.0237219
0.0237203
0.0237192
0.0237185
0.0237178
0.0237175
0.0237171
0.0236916
0.0236918
0.0236921
0.0236924
0.0236928
0.0236932
0.023694
0.0236946
0.0236954
0.023696
0.0236933
0.0228921
0.0234786
0.0237008
0.0237003
0.0236984
0.0236968
0.0236956
0.0236939
0.0236928
0.023692
0.0236914
0.023691
0.0236905
0.0236653
0.0236655
0.0236658
0.0236662
0.0236666
0.023667
0.0236678
0.0236684
0.0236693
0.0236699
0.0236648
0.0228669
0.0234525
0.0236746
0.023674
0.0236722
0.0236705
0.0236692
0.0236675
0.0236663
0.0236655
0.0236649
0.0236645
0.023664
0.023639
0.0236392
0.0236395
0.0236399
0.0236403
0.0236408
0.0236416
0.0236423
0.0236432
0.0236437
0.0236362
0.0228414
0.0234263
0.0236484
0.0236478
0.0236459
0.0236441
0.0236428
0.023641
0.0236399
0.023639
0.0236383
0.0236379
0.0236374
0.0236127
0.0236129
0.0236132
0.0236136
0.0236141
0.0236145
0.0236154
0.0236162
0.0236171
0.0236176
0.0236077
0.0228157
0.0233999
0.0236223
0.0236215
0.0236196
0.0236178
0.0236164
0.0236146
0.0236134
0.0236125
0.0236118
0.0236114
0.0236109
0.0235864
0.0235866
0.0235869
0.0235874
0.0235879
0.0235883
0.0235893
0.02359
0.023591
0.0235915
0.0235792
0.0227898
0.0233735
0.0235961
0.0235953
0.0235934
0.0235914
0.02359
0.0235881
0.0235869
0.023586
0.0235853
0.0235848
0.0235843
0.0235601
0.0235603
0.0235606
0.0235611
0.0235616
0.0235621
0.0235631
0.0235639
0.023565
0.0235653
0.0235508
0.0227638
0.0233469
0.02357
0.0235691
0.0235671
0.0235651
0.0235636
0.0235617
0.0235604
0.0235595
0.0235587
0.0235583
0.0235577
0.0235338
0.0235341
0.0235344
0.0235348
0.0235354
0.0235359
0.023537
0.0235378
0.0235389
0.0235393
0.0235225
0.0227376
0.0233202
0.0235439
0.0235429
0.0235409
0.0235387
0.0235372
0.0235352
0.0235339
0.023533
0.0235322
0.0235317
0.0235312
0.0235075
0.0235078
0.0235081
0.0235086
0.0235092
0.0235098
0.0235109
0.0235117
0.0235129
0.0235132
0.0234939
0.0227116
0.0232936
0.0235177
0.0235168
0.0235147
0.0235124
0.0235108
0.0235088
0.0235075
0.0235064
0.0235056
0.0235051
0.0235046
0.0234812
0.0234815
0.0234819
0.0234823
0.023483
0.0234836
0.0234847
0.0234856
0.0234869
0.0234871
0.0234651
0.0226858
0.0232672
0.0234917
0.0234907
0.0234885
0.0234861
0.0234844
0.0234824
0.023481
0.02348
0.0234791
0.0234786
0.0234781
0.023455
0.0234552
0.0234556
0.0234561
0.0234568
0.0234574
0.0234586
0.0234595
0.0234609
0.023461
0.0234364
0.0226599
0.0232406
0.0234656
0.0234645
0.0234623
0.0234599
0.0234581
0.023456
0.0234546
0.0234535
0.0234526
0.0234521
0.0234515
0.0234287
0.023429
0.0234293
0.0234299
0.0234306
0.0234312
0.0234325
0.0234335
0.0234349
0.023435
0.0234077
0.022634
0.0232141
0.0234396
0.0234384
0.0234361
0.0234336
0.0234317
0.0234295
0.0234281
0.023427
0.0234261
0.0234256
0.023425
0.0234024
0.0234027
0.0234031
0.0234036
0.0234044
0.0234051
0.0234064
0.0234074
0.0234089
0.0234089
0.023379
0.022608
0.0231875
0.0234135
0.0234123
0.02341
0.0234073
0.0234054
0.0234031
0.0234017
0.0234005
0.0233996
0.023399
0.0233985
0.0233762
0.0233764
0.0233769
0.0233774
0.0233782
0.0233789
0.0233803
0.0233814
0.0233829
0.0233828
0.0233504
0.022582
0.0231609
0.0233875
0.0233862
0.0233838
0.023381
0.023379
0.0233767
0.0233752
0.023374
0.0233731
0.0233725
0.0233719
0.0233499
0.0233502
0.0233506
0.0233512
0.0233519
0.0233528
0.0233542
0.0233553
0.0233569
0.0233567
0.0233217
0.0225559
0.0231343
0.0233614
0.0233601
0.0233576
0.0233547
0.0233527
0.0233503
0.0233487
0.0233475
0.0233466
0.023346
0.0233454
0.0233236
0.0233239
0.0233244
0.0233249
0.0233258
0.0233267
0.0233282
0.0233293
0.0233309
0.0233307
0.023293
0.0225298
0.0231076
0.0233354
0.023334
0.0233314
0.0233285
0.0233263
0.0233239
0.0233223
0.023321
0.02332
0.0233194
0.0233189
0.0232974
0.0232977
0.0232981
0.0232987
0.0232996
0.0233005
0.0233021
0.0233033
0.023305
0.0233046
0.0232643
0.0225037
0.023081
0.0233093
0.0233079
0.0233052
0.0233022
0.0233
0.0232974
0.0232958
0.0232945
0.0232935
0.0232929
0.0232923
0.0232711
0.0232714
0.0232719
0.0232725
0.0232734
0.0232744
0.023276
0.0232773
0.023279
0.0232785
0.0232354
0.0224777
0.0230544
0.0232832
0.0232818
0.0232791
0.0232759
0.0232736
0.023271
0.0232693
0.023268
0.023267
0.0232663
0.0232657
0.0232449
0.0232452
0.0232457
0.0232463
0.0232473
0.0232483
0.02325
0.0232513
0.023253
0.0232524
0.0232065
0.0224517
0.0230278
0.0232572
0.0232557
0.0232529
0.0232496
0.0232472
0.0232446
0.0232429
0.0232414
0.0232404
0.0232397
0.0232392
0.0239782
0.0239795
0.0240013
0.0239541
0.0239566
0.0239766
0.0239303
0.023934
0.0239538
0.0239059
0.0239104
0.0239311
0.0238803
0.0238854
0.0239074
0.023853
0.0173307
0.0183809
0.0238591
0.0238822
0.0240041
0.0240283
0.0240046
0.024029
0.0239803
0.0239786
0.0240014
0.0239883
0.0240004
0.0239798
0.0239818
0.0240006
0.0239552
0.0239542
0.0239755
0.023966
0.0239582
0.0239733
0.0239553
0.0239735
0.0239566
0.0239576
0.0239757
0.0239305
0.0239303
0.0239513
0.0239422
0.0239138
0.023929
0.023844
0.0238993
0.0239338
0.0239337
0.0239517
0.0239055
0.0239058
0.0239273
0.0239182
0.0238984
0.0239041
0.0238952
0.0238627
0.0239103
0.0239095
0.0239277
0.0238916
0.0239018
0.0238853
0.0238845
0.0239033
0.0238693
0.02388
0.0238262
0.0188693
0.0173642
0.0215882
0.0238321
0.0238556
0.0239752
0.023987
0.0239875
0.0239865
0.0239724
0.0240003
0.0239881
0.0239745
0.0239875
0.0239885
0.0239872
0.0239759
0.023932
0.0239553
0.023963
0.0239388
0.0238714
0.0239694
0.0239422
0.0239026
0.0239543
0.0239651
0.023959
0.0239388
0.023975
0.02396
0.023968
0.0239049
0.0239125
0.0239392
0.0238344
0.0238469
0.0238678
0.0238344
0.0238615
0.0238406
0.0239425
0.0239248
0.0239192
0.0239381
0.0239256
0.0239453
0.0238194
0.0238388
0.0238482
0.023816
0.0239021
0.0238969
0.0239194
0.0239142
0.0239069
0.0239187
0.0239145
0.0239223
0.0238504
0.0238513
0.0238408
0.0238498
0.0238815
0.0238905
0.0239056
0.0238958
0.0238981
0.0238452
0.0238178
0.0238509
0.0238462
0.0238551
0.0238676
0.0239908
0.0239886
0.024001
0.0239916
0.0239991
0.02388
0.0238802
0.0239027
0.0238932
0.0238835
0.0238909
0.023741
0.0236716
0.023859
0.0238588
0.0238781
0.0239995
0.0239918
0.0240011
0.0239888
0.0239916
0.0238919
0.0238977
0.0239152
0.0166068
0.017711
0.0213644
0.0219787
0.0177671
0.0190867
0.0236572
0.0235134
0.023895
0.0238943
0.0238836
0.0220481
0.0223906
0.023882
0.0238705
0.0238725
0.0240151
0.0240137
0.0240022
0.0240023
0.0240138
0.0240151
0.0239908
0.0239933
0.0239911
0.0239997
0.023992
0.023995
0.0239628
0.0239656
0.0238732
0.0238764
0.0238855
0.0238814
0.0238946
0.0235271
0.0238989
0.0237879
0.0237483
0.0237663
0.0238018
0.0238756
0.023906
0.0239814
0.0237482
0.0239578
0.0237032
0.0239795
0.0239644
0.0239912
0.0239932
0.0239895
0.0239281
0.0239807
0.0239816
0.0239033
0.023899
0.0239605
0.0239585
0.0239241
0.0239271
0.0239448
0.0239604
0.0239647
0.0239548
0.023959
0.0239441
0.0239682
0.0239719
0.0239764
0.0239661
0.0239705
0.0239667
0.0238398
0.0238404
0.0238462
0.0238436
0.0238044
0.0238092
0.0239188
0.0239383
0.0239424
0.0239328
0.0239369
0.0239181
0.0239324
0.0239493
0.0239534
0.0239438
0.0239479
0.0239316
0.0166754
0.023829
0.0177574
0.0163366
0.0193215
0.0178324
0.0238317
0.0238018
0.0164768
0.0238051
0.0239023
0.023902
0.0239169
0.0239272
0.0239314
0.0239215
0.0239258
0.0239168
0.0204261
0.0212255
0.0238456
0.0205745
0.0194204
0.0215339
0.0207
0.0238469
0.0192168
0.0203039
0.0238856
0.023687
0.0237589
0.023546
0.0236715
0.0238869
0.0234756
0.0223545
0.022478
0.0181994
0.0224295
0.0223051
0.0201343
0.0237769
0.0237912
0.0239975
0.0238539
0.0238532
0.0238769
0.0238672
0.0238631
0.0238725
0.0212673
0.0238351
0.02385
0.0239974
0.0238733
0.0238823
0.02389
0.0181932
0.0183805
0.016629
0.0223197
0.0222866
0.0185493
0.0188356
0.0237297
0.0237718
0.0150687
0.0240066
0.0240071
0.0240006
0.0240003
0.0240071
0.0240066
0.0239653
0.0239695
0.0239649
0.0239575
0.0239625
0.02397
0.023919
0.0239454
0.023941
0.0239513
0.0239469
0.0239211
0.0238571
0.0238897
0.0238912
0.0238652
0.0230451
0.0228862
0.023874
0.0238052
0.0238277
0.0237728
0.0237631
0.0186863
0.0239949
0.0239925
0.0240001
0.0239771
0.0239702
0.0239646
0.0239825
0.023984
0.0239888
0.0239779
0.0239825
0.0239809
0.0239418
0.0239573
0.0239528
0.0239634
0.0239588
0.0239451
0.0239234
0.0233486
0.0237086
0.0230181
0.0231048
0.0238828
0.0237442
0.0237836
0.0239499
0.0239119
0.0239372
0.0239514
0.0239618
0.0239632
0.0239529
0.023955
0.0239411
0.0239396
0.0239352
0.0239089
0.0238376
0.022671
0.0224108
0.0238577
0.0228854
0.0229914
0.022367
0.0224576
0.0238359
0.0238397
0.0238227
0.0239221
0.0239392
0.0239412
0.0239307
0.0239333
0.023919
0.0239357
0.02395
0.0239522
0.0239419
0.0239439
0.0239282
0.0239025
0.0237875
0.0238124
0.0237579
0.0237381
0.0238998
0.023912
0.0239157
0.02392
0.0239096
0.0239142
0.0239108
0.0238516
0.0221885
0.021628
0.0227902
0.0226243
0.0238517
0.0196939
0.0198527
0.0238494
0.0229625
0.0228395
0.0195122
0.0196489
0.0232318
0.0230847
0.0239945
0.0239974
0.0239956
0.0229062
0.0237164
0.0230283
0.0231021
0.0230864
0.0237076
0.0239961
0.0239948
0.0239981
0.0239935
0.023995
0.0168546
0.0171637
0.0181995
0.0181957
0.0216688
0.0187793
0.0185896
0.0191498
0.018831
0.0217471
0.0181049
0.0183621
0.0236057
0.0235814
0.0222208
0.0196175
0.0193136
0.0188604
0.0190011
0.0239881
0.0239899
0.0239927
0.0239861
0.023989
0.0239871
0.0239583
0.0239691
0.0238604
0.0238864
0.0238904
0.0238673
0.0235632
0.0238163
0.023799
0.0238334
0.0238216
0.0235565
0.023757
0.0237397
0.0237936
0.0237671
0.0237746
0.0233277
0.023411
0.0231673
0.0232842
0.0237688
0.0227945
0.0228632
0.023851
0.0239755
0.0239662
0.0239849
0.0239782
0.0238778
0.0239183
0.0239015
0.02396
0.0239255
0.0239841
0.0239895
0.0239862
0.0239821
0.0239761
0.0239775
0.0239717
0.023978
0.0239745
0.0239819
0.0239852
0.0239761
0.0239808
0.0239842
0.023982
0.0239784
0.0232163
0.023291
0.0239176
0.0226622
0.0223326
0.0234096
0.0227323
0.0218103
0.0214594
0.0222259
0.0219513
0.0238868
0.0231339
0.0231958
0.0237133
0.0236476
0.0238932
0.0237681
0.0235667
0.0234882
0.0236356
0.0235866
0.0239522
0.0237927
0.0238175
0.0239151
0.0239354
0.0239587
0.023961
0.0239485
0.0239419
0.0239557
0.023958
0.0227079
0.0227123
0.0238384
0.0207355
0.0206837
0.0192366
0.0205681
0.0204577
0.0208898
0.0206371
0.020493
0.0227227
0.0228488
0.0238546
0.0208593
0.0204553
0.0213668
0.0209818
0.0196644
0.0191921
0.0202981
0.0198581
0.0238376
0.0225204
0.0226729
0.023824
0.023819
0.0239366
0.0239386
0.0239212
0.0239183
0.023934
0.0239359
0.0239473
0.0239494
0.0239348
0.023929
0.0239446
0.0239466
0.0167637
0.0170297
0.0225989
0.0227969
0.022349
0.0225303
0.0165907
0.0187362
0.0230561
0.02274
0.0228508
0.0230079
0.0184171
0.0215605
0.0216492
0.0211456
0.0215262
0.0169286
0.0221099
0.0222998
0.0217041
0.0220083
0.0169397
0.023766
0.0237814
0.0239026
0.0236863
0.0237246
0.0237312
0.0236841
0.0237252
0.0239002
0.0237269
0.023752
0.0207479
0.0177136
0.0177067
0.0184577
0.0178106
0.020864
0.0181838
0.0196074
0.017723
0.0197892
0.0236134
0.0238461
0.023837
0.0238562
0.023849
0.0236241
0.0234167
0.0234419
0.0199274
0.0201009
0.0191165
0.0194532
0.023321
0.0232639
0.0240053
0.024007
0.0240266
0.0238692
0.0238673
0.0238568
0.0240027
0.0240031
0.023999
0.0239984
0.0240029
0.0240027
0.0240149
0.0240143
0.024003
0.0239757
0.023971
0.0239674
0.023956
0.0239409
0.0239382
0.0238476
0.023896
0.0239278
0.0239234
0.0239015
0.0238058
0.0237972
0.0238634
0.0238177
0.0238292
0.0239007
0.0239804
0.023982
0.0239773
0.0239422
0.023954
0.023975
0.0239859
0.023983
0.023985
0.0239672
0.023892
0.0239372
0.0239057
0.0239354
0.0239325
0.0239523
0.0239469
0.0239476
0.0239396
0.0239648
0.0239663
0.0239624
0.0239078
0.0239337
0.0239293
0.0227499
0.0226531
0.0238432
0.023859
0.023818
0.0238138
0.0238372
0.0239239
0.0239349
0.0239355
0.0239373
0.0239455
0.0239462
0.0239361
0.0239368
0.0239265
0.0237959
0.0229098
0.0228043
0.0239173
0.0239281
0.0239294
0.0239015
0.0239034
0.023908
0.0180577
0.0180677
0.0230916
0.0229987
0.0238487
0.0180543
0.0180527
0.0238285
0.0238289
0.0238625
0.0239924
0.0239924
0.0165758
0.0170081
0.0170267
0.0176301
0.0178304
0.0169731
0.0169874
0.0179925
0.0178336
0.0189068
0.0233783
0.0233489
0.0235365
0.0198503
0.0196675
0.022267
0.024008
0.0240075
0.0240009
0.0239896
0.0239899
0.0239905
0.0239915
0.0239844
0.0239854
0.0239937
0.0239967
0.0239951
0.0239547
0.0239531
0.0239607
0.0239671
0.0239636
0.0239611
0.0238674
0.0238796
0.023824
0.0238298
0.023888
0.0238761
0.023798
0.0238118
0.0235943
0.0235979
0.0236819
0.0236708
0.0235272
0.0236063
0.023616
0.0239003
0.0238338
0.0238463
0.0238856
0.023797
0.0239154
0.023901
0.0239746
0.0239683
0.0239443
0.0235528
0.0234992
0.0238654
0.0237651
0.0236207
0.0239922
0.0239905
0.0239868
0.0239873
0.0239813
0.023985
0.0239455
0.0239811
0.0239832
0.0238255
0.0238666
0.0239658
0.0234297
0.0233656
0.0239212
0.0239301
0.0239709
0.0239724
0.0239712
0.0239632
0.0239678
0.0239693
0.0238424
0.0226494
0.0226881
0.0238042
0.0238124
0.0239414
0.0239421
0.0239332
0.0239307
0.02394
0.0239407
0.0167489
0.0176583
0.0198032
0.0199285
0.0183962
0.0185022
0.0162348
0.0229744
0.0229269
0.0237988
0.0168981
0.0166796
0.0179751
0.0179797
0.0166394
0.0182801
0.0183337
0.0165158
0.016556
0.0239254
0.0239267
0.023917
0.0239159
0.0239228
0.0239241
0.0200102
0.0229378
0.022999
0.0228073
0.0228727
0.01981
0.023721
0.0238469
0.023858
0.0238505
0.0238489
0.0237322
0.0235743
0.023711
0.0236961
0.0234336
0.0233898
0.0234864
0.018404
0.0185083
0.0185515
0.0180955
0.0225346
0.0202278
0.0199465
0.0204701
0.0202956
0.0222525
0.0225623
0.0225914
0.0234325
0.0234993
0.0237989
0.0239966
0.0239975
0.0239956
0.0182054
0.0182576
0.0198878
0.019848
0.0164596
0.0187129
0.0184168
0.0184191
0.0183065
0.0183718
0.018795
0.0151452
0.0232341
0.0233105
0.0240039
0.0240033
0.0239989
0.0239462
0.0239436
0.0239567
0.0239582
0.0239641
0.023969
0.0239609
0.0239627
0.0238531
0.0238929
0.0237549
0.0237659
0.0237655
0.0237543
0.0238641
0.023791
0.0237869
0.0230117
0.0227049
0.0226962
0.0227716
0.0227537
0.0229676
0.0239685
0.0239729
0.0239738
0.023971
0.0239721
0.0239666
0.0239088
0.0239479
0.0239294
0.0239224
0.0239404
0.0239483
0.023949
0.0238188
0.0238207
0.0238531
0.0238284
0.0239336
0.0239342
0.023923
0.0239441
0.0239448
0.0239365
0.0239273
0.0239374
0.0239381
0.0237577
0.0237943
0.0237808
0.0238048
0.023801
0.0237531
0.0180854
0.0181238
0.0180869
0.0180642
0.0195599
0.0187258
0.018687
0.0227061
0.0227167
0.0231877
0.0228331
0.0229007
0.0227122
0.0227613
0.0231353
0.023994
0.0239933
0.0239935
0.0239941
0.0239966
0.0239969
0.023998
0.023995
0.0239957
0.0239958
0.0230028
0.023409
0.0233881
0.0234675
0.0234373
0.0230284
0.02319
0.0233071
0.0232605
0.0233713
0.0233488
0.0231476
0.0239956
0.0239962
0.0239951
0.0239901
0.0239873
0.0239937
0.0239926
0.0166288
0.0174737
0.0170281
0.016976
0.018202
0.0181998
0.0194534
0.0195529
0.0186708
0.0170518
0.0169775
0.0179306
0.017425
0.0174243
0.0173638
0.0186537
0.0175517
0.0172529
0.0233968
0.0234373
0.0236266
0.0232752
0.0232888
0.0232399
0.0232497
0.0235574
0.023336
0.0233531
0.0188859
0.0181545
0.0182325
0.0180772
0.0180892
0.0189266
0.0239887
0.0239896
0.0239891
0.0239856
0.0239863
0.0239878
0.0239464
0.0239593
0.0239511
0.0239487
0.0239566
0.0239588
0.0239517
0.0239543
0.0238639
0.023883
0.0237814
0.0237848
0.023771
0.0237763
0.0238895
0.0238326
0.0238343
0.0237848
0.0237883
0.0238709
0.0237843
0.0236272
0.023603
0.023541
0.0236614
0.0236491
0.0237497
0.023633
0.0236293
0.0236724
0.0236499
0.0237447
0.0237869
0.0236873
0.0236988
0.0236432
0.0236665
0.0237778
0.0236189
0.0232063
0.0235137
0.0234936
0.0227665
0.0227994
0.023839
0.0239285
0.023922
0.0238242
0.0239004
0.0239526
0.0239383
0.0236412
0.0235944
0.0238109
0.0238215
0.0239075
0.0237403
0.0236916
0.0239643
0.0239725
0.0239848
0.0239786
0.0239535
0.0239233
0.0239524
0.0239761
0.0239778
0.0239789
0.0239748
0.0239762
0.0239729
0.0239695
0.0239729
0.0239829
0.0239815
0.0239803
0.0239844
0.0239825
0.023984
0.0239774
0.023979
0.0239764
0.0239785
0.0225755
0.0224491
0.0232272
0.0223588
0.0224691
0.0221232
0.0227931
0.0216817
0.0215646
0.0221293
0.0220435
0.0236801
0.0233692
0.0234411
0.0232228
0.023294
0.0236612
0.0238781
0.0237602
0.0237938
0.0234831
0.0236809
0.0238431
0.023306
0.02319
0.0235462
0.0227312
0.0228123
0.0225868
0.0226587
0.023523
0.0236232
0.0231003
0.0231582
0.022901
0.0229973
0.0236057
0.0239182
0.0239329
0.0207655
0.0192745
0.0194964
0.0188158
0.0190376
0.0207283
0.0195895
0.0196255
0.0196301
0.0201222
0.020512
0.0175503
0.0177917
0.0179149
0.0175518
0.020656
0.0205906
0.0184143
0.018608
0.0180326
0.0182348
0.0205439
0.0207517
0.0206289
0.02127
0.0211186
0.0194862
0.0193199
0.0201571
0.0200325
0.0238106
0.0238156
0.023934
0.0239428
0.0239434
0.0239387
0.0239394
0.0239299
0.0167978
0.0193368
0.0196157
0.0174565
0.0162793
0.0187027
0.0190037
0.0173439
0.0171171
0.0215865
0.0192425
0.0192712
0.0213471
0.0190101
0.0185009
0.019281
0.0192192
0.0214653
0.017834
0.0175821
0.0179545
0.0181818
0.0168032
0.0168844
0.0174477
0.0237732
0.0238405
0.023836
0.0238466
0.0238437
0.0237773
0.0236995
0.0237177
0.0237148
0.0236798
0.0236794
0.0236965
0.0237255
0.0238139
0.0238085
0.0238294
0.0238214
0.0237364
0.0176886
0.0184927
0.0185919
0.0183384
0.0184151
0.0176921
0.0182298
0.0191325
0.0193171
0.0187331
0.0189234
0.0180027
0.018134
0.017361
0.0174102
0.0173985
0.0173751
0.0177268
0.0181005
0.0182454
0.0175794
0.017846
0.0176801
0.0237328
0.0237236
0.0235995
0.0234112
0.0234699
0.0182145
0.018363
0.01925
0.0183591
0.0181688
0.0186346
0.0185407
0.0193687
0.018117
0.0181109
0.0226141
0.0226429
0.0240598
0.0240597
0.0240731
0.0240596
0.0240595
0.0240729
0.0240595
0.0240595
0.024073
0.0240597
0.0240599
0.0240732
0.0240333
0.0240331
0.0240465
0.0240328
0.0240325
0.024053
0.0240323
0.0240319
0.0240527
0.024032
0.0240324
0.0240528
0.0240328
0.0240332
0.0240533
0.0240337
0.0240339
0.0240469
0.0240072
0.0240066
0.0240264
0.0240061
0.0240048
0.0240256
0.0240181
0.0240178
0.0240287
0.0240171
0.0240175
0.0240284
0.024019
0.0240195
0.024026
0.0240075
0.0240081
0.0240209
0.0239815
0.0239807
0.0240001
0.0239931
0.0239929
0.0239994
0.0239973
0.0239971
0.0240005
0.0239921
0.0239935
0.0240031
0.0239822
0.0239829
0.0239955
0.0239561
0.0239556
0.0239744
0.0239677
0.0239677
0.0239739
0.023972
0.023972
0.0239751
0.023968
0.0239691
0.0239781
0.0239578
0.0239582
0.0239705
0.0239308
0.0239306
0.0239493
0.0239429
0.0239431
0.0239492
0.0239481
0.0239482
0.0239511
0.0239453
0.0239456
0.0239544
0.0239336
0.0239335
0.0239458
0.0239054
0.0239055
0.0239244
0.023918
0.0239185
0.0239247
0.0239243
0.0239244
0.0239275
0.0239222
0.0239219
0.0239308
0.0239092
0.0239086
0.0239211
0.0238798
0.02388
0.0238992
0.0238996
0.0238997
0.0239029
0.023898
0.0238971
0.0239065
0.0238841
0.0238834
0.0238961
0.0238539
0.023854
0.0238735
0.0238722
0.0238721
0.0238785
0.0238583
0.0238578
0.0238707
0.0238272
0.0238268
0.02384
0.0238271
0.0238264
0.0238463
0.0238395
0.023833
0.0238431
0.0193048
0.0236528
0.0236811
0.0238322
0.0238326
0.0238523
0.0238317
0.0238319
0.0238449
0.023801
0.0238006
0.0238137
0.0238009
0.0238
0.0238198
0.0237996
0.0204445
0.0204015
0.0227168
0.0238054
0.0238254
0.0238055
0.0238062
0.0238257
0.0238053
0.0238055
0.0238186
0.0237746
0.0237741
0.0237873
0.0237636
0.0220653
0.0204546
0.0232885
0.0237776
0.0237987
0.0237794
0.0237798
0.023793
0.0239781
0.0239812
0.0239812
0.0239824
0.0239835
0.0239787
0.024001
0.0239978
0.023998
0.0239541
0.023957
0.023957
0.0239594
0.0239596
0.0239554
0.0239772
0.0239726
0.0239737
0.0239304
0.0239334
0.0239333
0.0239368
0.0239373
0.0239332
0.023954
0.0239498
0.023951
0.023906
0.0239092
0.023909
0.0239134
0.0239143
0.0239099
0.0239317
0.0239275
0.0239282
0.0238886
0.0238884
0.0238852
0.0239069
0.0239039
0.0239043
0.0238465
0.0238599
0.0238637
0.0164449
0.0194876
0.0195103
0.0223203
0.0223308
0.0151961
0.023882
0.0238788
0.023879
0.0240028
0.0240141
0.0240146
0.0239995
0.0239994
0.0239984
0.0240284
0.0240174
0.0240171
0.0239993
0.0239995
0.024008
0.0240078
0.0240043
0.0240288
0.0240181
0.0240184
0.0239802
0.0239865
0.0239866
0.0239881
0.0239863
0.02398
0.0239991
0.0239926
0.0239914
0.02399
0.0239896
0.0239868
0.0240001
0.0239982
0.0239986
0.0239811
0.0239904
0.023989
0.023988
0.023988
0.0239819
0.0240004
0.0239942
0.0239942
0.0239554
0.0239615
0.0239615
0.0239632
0.0239616
0.0239555
0.0239738
0.0239677
0.0239663
0.023966
0.023969
0.023969
0.0239607
0.0239644
0.0239626
0.0239745
0.0239729
0.0239714
0.0239719
0.0239697
0.0239723
0.0239573
0.0239661
0.0239652
0.0239636
0.023964
0.0239581
0.0239759
0.0239699
0.0239696
0.0239308
0.023937
0.0239367
0.0239393
0.0239372
0.0239311
0.0239494
0.0239433
0.0239423
0.0239423
0.0239452
0.0239452
0.0239153
0.0239357
0.0239342
0.0239455
0.0239437
0.0239262
0.0239339
0.0239427
0.0239424
0.0239397
0.0239404
0.0239344
0.0239522
0.0239463
0.0239457
0.023906
0.0239122
0.0239118
0.0239151
0.0239127
0.0239064
0.023925
0.0239189
0.0239182
0.0239184
0.0239214
0.0239213
0.0239007
0.0239219
0.0239175
0.0239219
0.0239206
0.0239032
0.0238936
0.0238428
0.023849
0.0239096
0.0239188
0.0239192
0.0239156
0.0239164
0.0239103
0.0239285
0.0239225
0.0239217
0.0238927
0.02386
0.0238655
0.0238898
0.0238904
0.0239015
0.0238849
0.0238912
0.0238948
0.0238908
0.0238916
0.0238852
0.0239041
0.0238979
0.0238971
0.0238709
0.0238666
0.0238653
0.0238733
0.0238724
0.0238786
0.0238223
0.0238296
0.0238328
0.0187284
0.0237593
0.0237468
0.0222944
0.0223008
0.0175001
0.0238218
0.0238318
0.0213536
0.0238387
0.0238393
0.0238302
0.0238534
0.0238426
0.0238455
0.023977
0.0239778
0.0239761
0.0239885
0.0239836
0.0239821
0.0239844
0.0239843
0.0239875
0.0239849
0.0239825
0.0239866
0.0239985
0.0239982
0.0240001
0.0239876
0.0239894
0.0239898
0.0239754
0.0239742
0.0239732
0.0239874
0.0239864
0.0239867
0.0239883
0.0239852
0.0239854
0.0239857
0.0239861
0.0239877
0.0239769
0.0239783
0.0239777
0.0239352
0.0239492
0.0239473
0.0239608
0.0239589
0.0239519
0.02396
0.02396
0.023963
0.0239346
0.0238967
0.0239076
0.023764
0.0237704
0.0238751
0.0239149
0.0239202
0.023945
0.0239653
0.023961
0.0239623
0.0239578
0.0239607
0.0239617
0.0239721
0.0239739
0.0239754
0.0239625
0.0239633
0.0239608
0.0239708
0.0239711
0.0239667
0.0239058
0.0239245
0.0239232
0.0239328
0.0239314
0.0239113
0.0239363
0.0239364
0.0239393
0.0238355
0.0236933
0.0236895
0.0237274
0.0237233
0.0238454
0.0238644
0.0237516
0.0237578
0.0236875
0.0236871
0.0238342
0.0239429
0.0239387
0.0239397
0.0239275
0.023928
0.0239195
0.0239482
0.0239484
0.0239443
0.0238228
0.0233089
0.0232333
0.0236154
0.0236001
0.0238366
0.0238495
0.0237358
0.0237317
0.0232101
0.0231302
0.0238125
0.0239022
0.023888
0.023889
0.0238557
0.023861
0.0238982
0.0239203
0.0239158
0.0239164
0.023913
0.0239173
0.0239187
0.0239088
0.0239103
0.0239082
0.0239182
0.0239264
0.0239269
0.0239201
0.0239214
0.0239155
0.0239253
0.0239261
0.0239217
0.023851
0.0237264
0.0237184
0.0237614
0.0237569
0.0238515
0.0238425
0.0236433
0.0236297
0.0237098
0.0237005
0.023849
0.0238829
0.0238749
0.0238742
0.023867
0.0238705
0.0238893
0.0239042
0.0239059
0.0239074
0.0238971
0.0239018
0.0239001
0.0239012
0.0239008
0.0238978
0.0238416
0.0231807
0.0231181
0.0230238
0.0231419
0.0238386
0.0238506
0.0237688
0.0237653
0.0238606
0.0238276
0.0238224
0.0239906
0.0239938
0.023994
0.0239937
0.0239951
0.0239901
0.0240001
0.0239968
0.0239955
0.0239987
0.0239975
0.0239979
0.0238899
0.0238873
0.0238809
0.0239001
0.0238937
0.0238931
0.0238934
0.0238966
0.0238964
0.0238869
0.0238956
0.0238925
0.0239018
0.0238987
0.0238879
0.023733
0.0236221
0.0236377
0.0235128
0.0235399
0.0236853
0.0238591
0.0238657
0.0238689
0.0239983
0.023998
0.0239992
0.0239906
0.0239922
0.0239929
0.0239956
0.0239971
0.0240023
0.0239904
0.0239954
0.0239938
0.0239948
0.0239946
0.0239914
0.0238945
0.0239098
0.0239049
0.0239159
0.0239114
0.0238953
0.0239121
0.0239122
0.0239153
0.0214809
0.0204801
0.0203728
0.0210238
0.0209223
0.0219016
0.0236428
0.0234627
0.023486
0.0238947
0.0238915
0.0238918
0.0238898
0.0238908
0.0238955
0.0238845
0.0238891
0.0238883
0.0221135
0.021218
0.0211241
0.02161
0.0215501
0.0223505
0.0238771
0.0238781
0.0238813
0.0238716
0.0238748
0.0238755
0.0238757
0.0238755
0.0238723
0.0240153
0.0240092
0.0240088
0.0240098
0.0240096
0.0240155
0.0240012
0.0240075
0.0240079
0.0240042
0.024004
0.024002
0.0240156
0.0240096
0.02401
0.0240089
0.0240093
0.0240153
0.0239935
0.0239906
0.0239917
0.0239962
0.0239977
0.0239997
0.0239925
0.0239935
0.0239929
0.0239968
0.0239964
0.0239946
0.0238492
0.0238576
0.0238937
0.0238994
0.0238921
0.0238922
0.0237841
0.023713
0.0237202
0.0236518
0.0236637
0.0237547
0.0237847
0.0238526
0.0238517
0.0238537
0.0238533
0.0237894
0.0238771
0.0238714
0.0238703
0.0239753
0.0239809
0.0239832
0.0239773
0.0239583
0.0239725
0.0239701
0.0239814
0.0239782
0.0239921
0.023991
0.0239898
0.0239915
0.0239911
0.0239928
0.02398
0.023979
0.0239798
0.0239824
0.0239818
0.0239809
0.0238193
0.0238274
0.0239076
0.0238949
0.0238048
0.0238118
0.0239473
0.023951
0.0239623
0.0239565
0.02394
0.0239437
0.0239528
0.0239536
0.0239456
0.0239618
0.0239613
0.0239598
0.0239641
0.0239627
0.0239632
0.0239562
0.0239556
0.0239542
0.0239584
0.023957
0.0239576
0.0239433
0.0239512
0.023952
0.0239696
0.0239705
0.0239693
0.0239734
0.0239729
0.0239714
0.0239759
0.0239744
0.0239749
0.0239676
0.023967