/*--------------------------------*- C++ -*----------------------------------*\
| =========                 |                                                 |
| \\      /  F ield         | OpenFOAM: The Open Source CFD Toolbox           |
|  \\    /   O peration     | Version:  5.x                                   |
|   \\  /    A nd           | Web:      www.OpenFOAM.org                      |
|    \\/     M anipulation  |                                                 |
\*---------------------------------------------------------------------------*/
FoamFile
{
    version     2.0;
    format      ascii;
    class       volScalarField;
    location    "300";
    object      p;
}
// * * * * * * * * * * * * * * * * * * * * * * * * * * * * * * * * * * * * * //

dimensions      [0 2 -2 0 0 0 0];

internalField   nonuniform List<scalar> 
6584
(
20.9979
19.1735
17.3485
15.5239
13.6995
11.875
10.0506
8.22674
6.40313
4.57948
2.75525
0.929844
-0.897119
-2.72552
-4.55477
-6.38422
-8.21336
-10.0421
-11.8704
-13.6984
-15.5262
-17.3532
-19.1794
-21.0045
20.9995
19.1778
17.3542
15.5299
13.7056
11.8802
10.0535
8.22808
6.40428
4.5809
2.75695
0.931741
-0.895275
-2.72397
-4.55362
-6.38387
-8.21437
-10.0446
-11.8748
-13.7041
-15.5321
-17.3593
-19.1842
-21.0058
20.9998
19.181
17.3608
15.538
13.7141
11.8887
10.0599
8.231
6.40591
5.03823
3.21565
1.39155
-0.435008
-2.26416
-4.0949
-6.38756
-8.22259
-10.0549
-11.8851
-13.7136
-15.5404
-17.3656
-19.1871
-21.0068
20.9998
19.1816
17.3631
15.5432
13.7208
11.8966
10.068
8.23775
6.41
5.04049
3.21965
1.39733
-0.428985
-2.26066
-4.09998
-5.93859
-8.23853
-10.069
-11.8967
-13.723
-15.5475
-17.369
-19.1885
-21.0076
20.9994
19.1814
17.3632
15.5449
13.725
11.9025
10.0772
8.25252
6.87504
5.04524
3.22523
1.4056
-0.419939
-2.26439
-4.1191
-5.96242
-7.7953
-10.0817
-11.9068
-13.7306
-15.5517
-17.371
-19.1897
-21.0083
20.999
19.181
17.3629
15.5448
13.7264
11.9065
10.0855
8.71959
6.89643
5.07277
3.4705
1.64822
-0.172923
-2.04813
-4.14295
-5.98124
-7.80929
-10.0924
-11.9152
-13.7356
-15.5544
-17.3727
-19.1908
-21.009
20.9985
19.1806
17.3624
15.5443
13.726
11.9072
10.0877
8.72173
6.90271
5.08732
3.50419
1.80245
-0.0124925
-2.07068
-3.9365
-6.00052
-7.82367
-10.102
-11.9214
-13.7391
-15.5566
-17.3741
-19.1918
-21.0096
20.9981
19.18
17.3618
15.5435
13.725
11.906
10.087
8.72186
6.89972
5.07889
3.49167
1.80817
-2.02435
-3.9733
-6.02027
-7.83651
-10.1084
-11.9255
-13.7418
-15.5585
-17.3754
-19.1927
-21.0101
20.9977
19.1796
17.3613
15.5427
13.7239
11.9043
10.0843
8.71904
6.89303
5.06269
3.45754
1.71882
-2.13993
-4.01296
-6.03567
-7.84347
-10.1103
-11.9271
-13.7436
-15.5598
-17.3763
-19.1932
-21.0103
20.9975
19.1792
17.3608
15.5421
13.723
11.9031
10.0824
8.71564
6.88614
5.05092
3.43629
1.68113
-2.18984
-4.03375
-6.0419
-7.84526
-10.1083
-11.9248
-13.7427
-15.5601
-17.3765
-19.1934
-21.0103
20.9973
19.1789
17.3604
15.5416
13.7225
11.9026
10.0817
8.71396
6.8839
5.04966
3.4373
1.69374
-2.16379
-4.02331
-6.03427
-7.83928
-10.1022
-11.919
-13.7381
-15.5582
-17.3762
-19.1931
-21.0099
20.9973
19.1788
17.3603
15.5415
13.7225
11.903
10.0822
8.7142
6.88615
5.05703
3.45461
1.73848
-2.09301
-3.98944
-6.01527
-7.82627
-10.0921
-11.9103
-13.7306
-15.5528
-17.3741
-19.1924
-21.0093
20.9974
19.1789
17.3605
15.5418
13.723
11.9041
10.0838
8.71618
6.89086
5.0673
3.47465
1.78055
-2.0194
-3.9476
-5.99063
-7.80873
-10.0785
-11.8991
-13.7211
-15.5451
-17.37
-19.1912
-21.0085
20.9975
19.1791
17.3607
15.5422
13.7237
11.9052
10.0853
8.26306
6.89499
5.07256
3.48018
1.7743
0.0572381
-2.06782
-3.90948
-5.96324
-7.78883
-10.0624
-11.8858
-13.7098
-15.537
-17.3643
-19.1882
-21.0074
20.9977
19.1792
17.361
15.5426
13.7242
11.9057
10.0848
8.25867
6.89078
5.05652
3.45838
1.64584
-0.175168
-2.03395
-4.10649
-5.9404
-8.22505
-10.0512
-11.877
-13.7018
-15.5296
-17.3567
-19.1816
-21.0047
20.9979
19.1794
17.3611
15.5426
13.7242
11.9053
10.0822
8.25056
6.87496
5.0484
3.22768
1.63437
-0.195973
-2.25955
-4.09818
-5.93231
-8.2185
-10.0456
-11.8715
-13.6994
-15.5253
-17.3511
-19.1762
-21.0019
20.998
19.1794
17.361
15.5424
13.7237
11.9037
10.0779
8.24545
6.41478
5.04677
3.22346
1.39834
-0.427222
-2.26126
-4.09634
-5.92759
-8.21233
-10.039
-11.8661
-13.6941
-15.5211
-17.3475
-19.1748
-21.0005
20.998
19.1793
17.3607
15.542
13.7227
11.9006
10.0726
8.24099
6.41323
4.58954
3.22052
1.39639
-0.435355
-2.26346
-4.55128
-6.38067
-8.20858
-10.0356
-11.8627
-13.6901
-15.5169
-17.3437
-19.171
-20.9984
20.998
19.1791
17.3603
15.5413
13.7216
11.8973
10.0673
8.23785
6.4115
4.58762
2.75913
0.937709
-0.890887
-2.72448
-4.54963
-6.37905
-8.20628
-10.0334
-11.8602
-13.6873
-15.5141
-17.3411
-19.168
-20.9965
20.9979
19.1789
17.3598
15.5405
13.7204
11.8947
10.064
8.23624
6.41024
4.58633
2.75845
0.935136
-0.892438
-2.72339
-4.5488
-6.37789
-8.20451
-10.0316
-11.8582
-13.6851
-15.512
-17.339
-19.1656
-20.9949
20.9978
19.1785
17.3592
15.5397
13.7192
11.8928
10.0618
8.2351
6.40934
4.5852
2.75777
0.932987
-0.894126
-2.72301
-4.54848
-6.37699
-8.20322
-10.0303
-11.8566
-13.6834
-15.5103
-17.3372
-19.1637
-20.9937
20.9976
19.1782
17.3585
15.5387
13.7179
11.8914
10.0604
8.23418
6.40835
4.58426
2.75709
0.931838
-0.894994
-2.72297
-4.54838
-6.37637
-8.2023
-10.0293
-11.8554
-13.6821
-15.5089
-17.3356
-19.162
-20.9926
20.9974
19.1777
17.3578
15.5378
13.7167
11.8902
10.0593
8.23306
6.40749
4.58351
2.75664
0.931118
-0.89552
-2.72293
-4.54832
-6.3759
-8.20162
-10.0285
-11.8545
-13.6811
-15.5078
-17.3344
-19.1606
-20.9917
20.9971
19.1773
17.3571
15.5369
13.7155
11.889
10.0583
8.23202
6.40672
4.58271
2.75628
0.930613
-0.895895
-2.7229
-4.5483
-6.37552
-8.20113
-10.0279
-11.8537
-13.6803
-15.5068
-17.3333
-19.1595
-20.9909
20.9969
19.1768
17.3564
15.5359
13.7144
11.8879
10.0573
8.23105
6.40583
4.58192
2.75599
0.930235
-0.896157
-2.72287
-4.54827
-6.37524
-8.20073
-10.0274
-11.853
-13.6796
-15.506
-17.3324
-19.1585
-20.9902
20.9966
19.1764
17.3557
15.535
13.7132
11.8868
10.0564
8.23014
6.40493
4.58116
2.75522
0.929556
-0.896711
-2.72311
-4.54847
-6.3752
-8.20065
-10.0272
-11.8529
-13.6794
-15.5055
-17.3317
-19.1577
-20.9896
20.9964
19.176
17.3551
15.5342
13.7122
11.8858
10.0556
8.22933
6.40407
4.57975
2.75383
0.928204
-0.897903
-2.72413
-4.54949
-6.37603
-8.20144
-10.0279
-11.8536
-13.6799
-15.5057
-17.3318
-19.1577
-20.9895
20.9961
19.1755
17.3544
15.5334
13.7112
11.8849
10.0548
8.22854
6.40284
4.578
2.75215
0.926479
-0.899598
-2.72572
-4.55107
-6.37746
-8.20283
-10.0292
-11.8548
-13.681
-15.5068
-17.3328
-19.1586
-20.9898
20.9959
19.1751
17.3538
15.5326
13.7103
11.884
10.054
8.22736
6.40122
4.5763
2.75048
0.924799
-0.901255
-2.7273
-4.55263
-6.37888
-8.20422
-10.0305
-11.856
-13.6822
-15.5078
-17.3339
-19.1596
-20.9902
20.9957
19.1747
17.3532
15.5319
13.7094
11.8831
10.0529
8.2257
6.39961
4.57462
2.74885
0.923154
-0.902875
-2.72884
-4.55418
-6.3803
-8.20561
-10.0318
-11.8573
-13.6833
-15.5089
-17.3349
-19.1606
-20.9906
20.9955
19.1743
17.3527
15.5312
13.7085
11.8817
10.051
8.22403
6.398
4.57296
2.74724
0.921536
-0.904468
-2.73036
-4.55568
-6.38172
-8.20701
-10.0331
-11.8585
-13.6845
-15.51
-17.336
-19.1616
-20.991
20.9953
19.174
17.3522
15.5306
13.707
11.8793
10.049
8.22237
6.3964
4.57133
2.74563
0.919939
-0.90604
-2.73187
-4.55719
-6.38311
-8.2084
-10.0344
-11.8598
-13.6857
-15.5112
-17.3371
-19.1627
-20.9914
20.9951
19.1737
17.3517
15.5295
13.7046
11.8764
10.0471
8.2207
6.39481
4.56968
2.74405
0.918363
-0.907594
-2.73336
-4.55865
-6.38452
-8.20978
-10.0357
-11.861
-13.6869
-15.5124
-17.3382
-19.1637
-20.9918
20.995
19.1734
17.3513
15.528
13.7016
11.8736
10.0451
8.21903
6.39322
4.56805
2.74245
0.9168
-0.909139
-2.73482
-4.56012
-6.38591
-8.21117
-10.037
-11.8623
-13.6882
-15.5136
-17.3393
-19.1648
-20.9922
20.9948
19.1731
17.3509
15.5265
13.6988
11.8709
10.0431
8.21734
6.39159
4.56639
2.74083
0.915265
-0.91066
-2.73624
-4.56158
-6.38724
-8.21256
-10.0383
-11.8636
-13.6894
-15.5148
-17.3404
-19.1659
-20.9925
20.9948
19.1729
17.3506
15.5255
13.697
11.8686
10.0412
8.21568
6.39005
4.56476
2.73921
0.913702
-0.912216
-2.73767
-4.56302
-6.38862
-8.21395
-10.0396
-11.865
-13.6906
-15.516
-17.3416
-19.1671
-20.993
1.72742
-1.9115
-1.79258
1.68294
-1.97582
-1.92468
1.68975
-1.95368
-1.97777
1.73255
-1.88168
-1.94639
1.77618
-1.80126
-1.87144
1.78736
0.183076
0.063272
-1.73453
-1.79194
1.81762
0.217562
-1.77553
-1.70814
3.46576
1.96167
2.03086
-1.03363
-0.889774
-2.12829
-3.55753
-3.51873
3.43948
1.9193
1.95378
1.69843
0.922749
0.948344
-1.20196
-1.16095
-2.18759
-3.59092
-3.56874
3.43506
1.92377
1.9176
1.68027
0.904555
0.903896
-1.23842
-1.2452
-2.17085
-3.58676
-3.59355
3.4495
1.96121
1.92732
1.70873
0.955268
0.928085
-1.1235
-1.17486
-2.10249
-3.55164
-3.5801
-0.998324
-1.07261
-2.02812
-3.50473
-3.54028
-0.902223
-0.942348
1.64961
0.164596
0.173978
-0.064756
-1.56648
-1.72664
0.953054
1.00362
1.75914
0.884848
0.831899
0.993477
0.894821
-1.15759
-1.07446
-1.86538
-1.15459
-1.21094
0.904777
0.919505
1.69341
0.830748
0.812859
0.827556
0.831969
-1.24083
-1.20731
-1.96172
-1.26322
-1.2792
-1.21369
-1.2594
-1.95452
0.924853
0.90685
1.68166
0.814321
0.836366
0.813131
0.812236
-1.18037
-1.23428
-1.97095
-1.27161
-1.23863
-1.28219
-1.27536
-1.97472
0.843822
0.879233
0.838729
0.83876
-1.07579
-1.122
-1.91098
-1.17694
-1.15974
-1.23418
-1.17877
-1.92052
0.914537
0.940834
0.883337
0.910572
-0.948447
-0.992187
-1.15371
-1.11046
-1.84054
0.962482
0.937429
0.94318
0.960491
-0.851235
-0.898098
1.77129
1.01392
1.10093
-0.540992
-0.388247
3.46999
2.00085
1.96657
1.75568
1.02317
0.99655
-0.490957
-0.515304
-1.96476
-3.46077
-3.49295
0.616343
0.492146
-1.01201
-1.14044
-1.84746
0.99257
0.959968
1.71451
0.430361
0.455641
0.513014
0.528163
0.453593
0.469278
-0.519052
-0.540945
-1.83059
-1.10427
-1.06196
0.529554
0.535616
-1.05614
-1.01773
-1.76509
0.223443
0.954188
1.00574
-0.871257
-0.745119
0.0961252
-0.568569
-0.976475
-0.618598
-0.458534
-0.599874
-0.955471
-1.18223
-1.18424
-1.25342
-1.25319
-1.15192
-1.14929
-1.01656
-0.625156
-1.04778
-0.467176
-0.488569
-0.573399
-0.550248
-0.924112
0.424754
0.85713
0.46047
0.481348
0.462203
0.849462
0.484579
0.544506
0.93447
0.477654
0.423852
-1.12362
-1.11924
0.816871
0.816908
0.842508
0.841678
-1.21486
-1.21193
-1.25274
-1.60406
-1.59423
-1.61476
-1.60692
-1.25573
-1.23374
-1.57069
-1.55161
-1.59029
-1.57596
-1.23436
0.824943
0.826685
0.81038
0.810902
-1.19587
-1.20062
-1.24005
-1.60083
-1.61179
-1.58169
-1.5964
-1.23579
-1.29007
-1.61953
-1.6166
-1.61463
-1.61921
-1.29004
0.432342
0.859135
0.485197
0.455218
0.51069
0.484975
0.864337
0.819461
0.458063
0.823728
-1.09813
-1.10031
-1.20617
-1.55972
-1.57586
-1.5374
-1.5543
-1.20479
0.487494
0.509721
0.895306
0.525828
0.51069
0.54324
0.527351
0.899016
0.469931
0.485425
-0.966953
-0.597819
-0.57677
-0.617922
-0.597163
-0.973449
-0.534537
0.520936
0.53468
0.196765
0.536654
0.517307
-0.015202
-0.4156
-0.4647
-0.0497302
3.4841
2.12796
2.00488
1.7916
1.12486
1.11158
-0.0322321
-0.74185
-0.788151
0.42852
1.05188
1.02692
1.76115
0.299946
0.292485
0.172649
0.521292
0.502102
0.300781
0.311965
-0.366943
-0.401763
0.0345796
0.311273
0.622192
0.62899
-0.366512
-0.272616
0.176974
0.931495
1.29158
1.28106
-1.18538
-1.0255
-1.16929
0.902393
1.26424
1.26487
1.26565
1.26319
0.902391
-1.24755
-1.24972
-1.13661
-1.15422
-0.226616
-0.230344
-0.918297
-0.547663
-0.556011
0.879464
0.870126
0.198326
0.949376
0.556765
0.667073
-1.14103
-0.985158
-1.01883
-1.19385
-1.50911
-1.47539
-1.54423
-1.51806
-1.20431
0.908452
1.27071
1.26552
1.27937
1.27146
0.910089
0.822364
0.628781
0.655925
0.62363
0.623183
0.814889
0.658551
0.657718
0.836551
-1.23195
-1.20159
-1.25851
-1.41602
-1.38898
-1.43764
-1.43168
-1.27064
1.26688
1.27025
0.914562
0.81933
0.642551
0.620553
0.811348
0.62258
0.623747
0.615862
0.615848
0.810991
-1.17916
-1.22169
-1.2594
-1.42583
-1.43195
-1.36359
-1.40038
-1.23753
-1.28724
-1.44207
-1.43791
-1.4349
-1.4388
-1.28419
-1.08493
-0.91076
-0.910148
-0.978016
-0.958316
-1.11423
-1.18581
-1.51452
-1.53168
-1.49171
-1.50864
-1.17977
0.926831
0.564003
0.545445
0.61001
0.598597
0.930646
0.32073
0.326029
0.95082
0.618541
0.612999
0.319141
0.319916
-0.221554
-0.220626
-0.485998
-0.157036
-0.461983
-0.271269
-0.502399
-0.33094
-0.307453
-0.342697
-0.507029
0.556356
0.38132
0.483065
0.358836
0.536667
0.42822
0.441173
0.30507
0.303302
0.521403
0.354018
0.351846
0.354788
0.352294
0.522653
0.450786
0.456123
-0.526418
-0.526917
0.53282
0.366604
0.361203
0.308391
0.301274
-0.663973
-0.816742
-0.776799
-0.859202
-0.828428
-0.684463
-1.18081
-1.17407
-1.24976
-1.25243
-1.14232
-1.14861
-0.659291
-0.810452
-0.820639
-0.798006
-0.808707
-0.65389
-0.82866
-0.851011
-0.82527
-0.825529
-0.47617
-0.295251
-0.287998
-0.313874
-0.296488
-0.478783
-0.234891
-0.265762
0.451972
0.64865
0.63889
0.672095
0.653327
0.45293
0.616447
0.618182
0.634196
0.617969
0.51062
0.698132
0.677685
0.452111
0.447002
-0.96688
-0.978359
-1.1375
-0.925935
-0.889536
-0.868835
-0.915204
-0.896222
-1.10125
-0.947422
-0.959824
0.62095
0.623355
0.820897
0.56344
0.561598
0.60073
0.565956
0.564132
0.565144
0.56247
0.565073
0.814744
0.623372
0.621605
0.593927
0.588643
0.618324
0.602151
0.59758
0.602152
0.590416
0.595677
0.837107
0.656868
0.654494
-1.22929
-1.20535
-1.42224
-1.41633
-1.25365
-1.26766
-1.43083
-1.42336
0.648214
0.644667
0.821575
0.590459
0.59041
0.54835
0.585783
0.581145
0.592818
0.589004
0.583613
0.620335
0.62231
0.811727
0.563689
0.560993
0.565451
0.563885
0.555472
0.550835
0.560303
0.557348
0.810213
0.617166
0.619594
-1.1819
-1.21542
-1.4147
-1.4224
-1.25404
-1.23242
-1.40335
-1.41115
-1.44344
-1.44162
-1.28896
-1.28634
-1.44105
-1.44211
0.427573
0.462893
0.648175
0.658595
0.63409
0.643848
0.451081
0.501322
0.674996
0.652724
0.661444
0.671542
0.49319
0.608576
0.607929
0.60173
0.607971
0.464753
0.623731
0.631957
0.608809
0.620019
0.459502
-0.935288
-0.917145
-1.08883
-0.869268
-0.896338
-0.854877
-0.859537
-0.901294
-1.10966
-0.948601
-0.92974
0.493274
0.313742
0.322148
0.34571
0.313385
0.496613
0.302298
0.471758
0.324596
0.475246
-0.616208
-0.787325
-0.79476
-0.773066
-0.783936
-0.608275
-0.556152
-0.567096
0.329738
0.343592
0.304881
0.318223
-0.198708
-0.219994
-2.01019
-3.50609
-3.47569
-1.75704
-1.06749
-1.03644
0.361929
0.493377
0.480664
-0.0205791
0.0224039
0.293368
-1.74035
-0.999716
-0.995514
1.30803
1.29427
0.934883
-1.19607
-1.15601
-1.16286
-1.24303
-1.24664
1.28222
1.29015
0.93834
-1.13648
-1.12842
-1.1682
-0.90771
-0.890879
-1.06195
0.970548
1.32974
1.31204
0.678515
0.681369
0.836603
-0.918917
-0.941196
-1.0958
0.850693
0.664696
0.677473
-1.23726
-1.17017
-1.1762
-1.21079
-1.3376
-1.33517
-1.27615
-1.38448
-1.37826
-1.24491
0.916824
1.273
1.27888
0.653617
0.645539
0.83163
-1.1842
-1.14879
-1.14279
-1.23046
-1.26792
-1.32905
-1.33204
-1.28405
-1.34157
-1.33979
-1.33503
-1.33775
-1.27914
0.812851
0.665447
0.65806
-1.2179
-1.35581
-1.36153
-1.13505
-1.46862
-1.48595
0.207534
0.208462
0.628579
0.620626
0.952813
0.208727
0.207309
-0.550612
-0.533394
-0.88292
-0.528083
-0.478836
0.428468
0.404002
0.40697
0.456122
0.451186
0.396302
0.400322
0.414724
0.413038
0.467663
-0.494987
-0.485738
-0.536993
0.361516
0.364887
0.533219
-0.828977
-0.418085
-0.43875
-0.587902
-0.631004
-0.683866
-0.669095
-0.762405
-0.746065
-0.763911
-0.724474
-0.542168
-1.12598
-1.13071
-1.17965
-1.18301
-1.12828
-1.13048
-1.25481
-1.25337
-1.09657
-1.09442
-1.15129
-1.1457
-1.09416
-1.09185
-0.701357
-0.71046
-0.679303
-0.685689
-0.634692
-0.720033
-0.728785
-1.05859
-0.887163
-0.880915
0.426315
0.45849
0.515904
0.515986
0.545565
0.539013
0.476947
0.496702
0.500098
0.512783
0.495802
0.45633
0.698385
0.704033
0.518157
0.465618
0.400621
0.403846
0.426306
-0.791722
-0.780271
0.653877
0.65923
0.84902
0.502804
0.505501
-1.21903
-1.20927
-1.36271
-1.35709
-1.22527
-1.24051
-1.37218
-1.36723
0.829777
0.645734
0.64778
-1.19002
-1.20503
-1.34647
-1.34641
-1.29008
-1.29008
-1.34609
-1.34628
0.433903
0.484234
0.539543
0.541984
0.512013
0.511604
0.45204
0.6699
0.667087
0.815735
0.490887
0.487284
0.499372
0.505554
0.461045
0.513798
0.513109
0.483216
0.480132
-1.34374
-1.34924
-1.21287
-1.19439
-1.33224
-1.33855
0.516204
0.663933
0.668234
0.655568
0.659146
0.512503
-0.587336
-0.733502
-0.770162
-0.721461
-0.727595
-0.585061
-0.615683
-0.676532
-0.676106
-0.537538
-0.500193
-0.582946
0.189643
0.224503
0.23683
0.213807
0.543078
0.372296
0.363706
0.376981
0.373785
0.514611
-0.063138
-0.0884243
-0.283554
-0.280184
-0.454069
0.399342
0.428219
0.36563
0.295982
0.292819
0.327388
0.323922
0.16467
0.313125
0.269289
0.266358
0.261396
0.266278
0.314237
0.100312
-0.156003
-0.188241
-0.329048
-0.0689326
-0.111315
-1.14464
-1.14991
-1.1905
-1.02958
-1.05664
-1.05955
-1.06894
-1.06247
-1.24625
-1.24778
-1.02245
-1.03025
-1.00775
-1.01407
-1.16099
-1.11969
-1.11152
-0.233942
-0.179949
-0.169447
-0.1929
-0.188751
-0.237938
-0.995342
-1.0385
-1.03149
-1.05573
-1.04752
-1.00731
-1.23411
-1.20947
-1.17781
-1.17805
-1.27325
-1.33283
-1.33035
-1.16163
-1.15477
-1.18391
-1.22751
-1.3222
-1.32584
-1.26427
-1.34422
-1.34287
-1.28553
-1.28212
-1.34008
-1.34183
-0.973229
-1.01079
-1.005
-1.00231
-1.00827
-0.965896
0.20897
0.209054
0.213177
0.210017
0.319324
0.262537
0.264052
-0.117909
-0.119595
-0.219734
-0.156389
-0.16536
-0.160818
-0.155359
-0.218324
-0.43349
-0.450884
-0.508625
-0.377017
-0.194491
-0.273693
-0.233527
-0.339955
-0.315345
-0.246661
-0.319726
-0.376836
-0.384932
-0.371028
-0.372022
-0.311071
-0.357984
-0.393113
-0.396296
-0.393696
-0.399167
-0.353061
0.395004
0.462604
0.432606
0.378533
0.373186
0.395347
0.387955
0.426598
0.453667
0.408069
0.40241
0.306017
0.305422
0.404478
0.407796
0.354403
0.389143
0.392151
0.449571
0.367679
0.3655
0.36318
0.463459
0.400386
0.389184
-0.46435
-0.470531
-0.526483
-0.424264
-0.429666
-0.404454
-0.414543
-0.530891
-0.475806
-0.467611
0.30461
0.250407
0.255982
0.240707
0.244982
0.301686
-0.713281
-0.697844
-0.642563
-0.702336
-0.736517
-0.727886
-1.10124
-1.17802
-1.13322
-1.13901
-1.08322
-1.07635
-1.09633
-1.09045
-1.25263
-1.25391
-1.05419
-1.06144
-1.03847
-1.04665
-1.14749
-1.08869
-1.08169
-1.10418
-1.09789
-1.14538
-1.06758
-0.691258
-0.694302
-0.64472
-0.692851
-0.697051
-0.835424
-0.786011
-0.775846
-0.806058
-0.796839
-0.843716
-0.827519
-0.771118
-0.767381
-0.76832
-0.765159
-0.826395
-0.73408
-0.308848
-0.367646
-0.370956
-0.244095
-0.255276
0.420501
0.515222
0.514589
0.454535
0.460598
0.529249
0.520314
0.488882
0.492606
0.556491
0.553997
0.617417
0.489118
0.486948
0.397043
0.396204
0.456433
0.36488
0.43105
0.39124
0.397431
-0.972785
-1.02564
-1.02076
-1.02896
-1.02799
-0.972282
-0.945569
-0.936183
-0.882321
-0.832208
-0.846418
-0.819405
-0.823708
-0.876382
-0.905375
-0.857938
-0.865556
-0.897293
0.562054
0.560952
0.595486
0.545674
0.547137
0.5344
0.570479
0.564481
0.564887
0.563277
0.564189
0.588719
0.527161
0.529796
0.53016
0.527799
0.587565
0.616687
0.558926
0.55843
0.536217
0.555308
0.611832
0.506214
0.498641
0.599377
0.544183
0.54191
0.548251
0.54624
0.600974
0.592506
0.53598
0.532726
0.53935
0.536981
0.593929
-1.22364
-1.20575
0.592046
0.540558
0.543017
0.535747
0.53785
0.591666
0.55106
0.542485
0.53516
0.568482
0.580632
0.519037
0.523077
0.517182
0.515876
0.584551
0.587441
0.531376
0.533616
0.526575
0.529329
0.585763
0.563542
0.563041
0.565796
0.564153
0.554297
0.552741
0.55959
0.55933
-1.18472
-1.20998
-1.29002
-1.34623
-1.34536
-1.34357
-1.34503
-1.28852
0.433995
0.529543
0.536016
0.479982
0.449598
0.513914
0.520652
0.497558
0.494235
0.608361
0.549342
0.55158
0.605534
0.549228
0.532352
0.552744
0.552481
0.606664
0.504742
0.50095
0.509414
0.513132
0.463662
0.479323
0.491336
-0.931963
-0.988146
-0.990095
-0.977472
-0.983324
-0.925072
-0.879701
-0.888504
-0.849304
-0.819758
-0.814593
-0.85242
-0.939303
-0.989209
-0.995059
-0.9886
-0.986935
-0.932629
0.315713
0.370936
0.370912
0.373861
0.372272
0.318665
0.327715
0.390487
0.399118
0.373726
0.380647
0.316015
0.291989
0.352292
0.348744
0.361396
0.356958
0.326505
0.371968
0.374391
0.348252
0.357063
0.322041
-0.673673
-0.676837
-0.621138
-0.545648
-0.577109
0.210267
0.214049
0.311216
0.249244
0.239667
0.264599
0.262149
0.315941
0.217725
0.216431
-0.1003
-0.110883
3.23142
2.09596
2.31527
1.64302
0.278902
0.494157
-0.178411
-1.5704
-1.33789
-2.04167
-3.20443
-3.1934
5.08532
3.95396
4.16208
3.49994
2.13547
2.10163
1.6809
0.208185
0.284731
-0.020989
-1.58585
-1.57784
-2.05984
-3.46881
-3.44501
-3.93007
-5.07518
-5.06381
5.08443
3.94974
3.95596
3.49796
2.03889
2.14692
1.82768
1.16324
1.12851
0.017602
-0.743142
-0.749722
-1.97122
-2.55643
-2.54349
-3.96363
-5.09953
-5.08634
5.07125
3.92414
3.94481
3.48375
3.02851
3.03897
1.79699
1.573
1.58669
-2.07075
-2.74597
-2.71774
-4.00402
-5.12393
-5.11173
5.05565
3.90187
3.91742
3.45024
2.98691
2.99561
1.71109
1.47497
1.48323
-2.1672
-2.81339
-2.79132
-4.03158
-5.14179
-5.13438
5.04891
3.89705
3.89906
3.43445
2.96952
2.97116
1.67999
1.44246
1.44353
-2.18916
-2.83115
-2.82984
-4.02883
-5.1426
-5.14472
5.05263
3.90796
3.89868
3.44059
2.97929
2.97476
1.69821
1.46449
1.4593
-2.13928
-2.79678
-2.81286
-3.99934
-5.12503
-5.13578
5.06214
3.92465
3.91206
1.74434
1.51688
1.51027
-2.06446
-2.73797
-2.76092
-3.95811
-5.09678
-5.11161
5.07164
3.93741
3.92859
-1.99413
-2.56942
-2.58385
-3.91846
-5.06593
-5.08135
5.0668
4.14994
4.16003
3.45955
2.10089
2.11548
1.76658
1.09391
1.10077
0.0296893
-0.310349
-0.353924
-2.03445
-3.42375
-3.45096
-4.11748
-5.03381
-5.05046
5.05032
4.13952
4.14242
3.2293
2.09188
2.0985
1.63678
0.266746
0.284851
-0.191845
-1.56987
-1.56797
-2.03003
-3.18032
-3.41836
-4.10047
-5.02004
-5.02419
3.2254
2.31505
2.31713
1.39914
0.491192
0.262305
-0.424532
-1.34562
-1.57053
-2.25983
-3.17924
-3.17803
1.49266
1.50342
1.73711
-1.89646
-1.62647
-1.65009
-1.55773
-1.57838
-1.81052
1.44542
1.4482
1.68568
-1.97243
-1.7101
-1.71611
-1.65691
-1.67547
-1.93609
1.45468
1.45068
1.68643
-1.96025
-1.69744
-1.68628
-1.71699
-1.71813
-1.97824
1.5037
1.4972
1.72654
-1.89116
-1.61845
-1.65895
-1.68176
-1.66715
-1.93838
-1.81086
-1.5847
-1.57464
-1.64919
-1.638
-1.86099
1.105
1.12918
1.79408
0.158631
0.292492
0.285757
-0.0690374
-0.0957621
0.0987297
-1.56472
-1.55462
-1.78262
1.1115
1.17308
1.82845
0.42149
0.453637
0.478993
0.900373
0.940761
0.264311
0.260646
0.353974
-1.76151
-1.52191
-1.53774
-0.992513
-0.992494
-1.73182
3.00575
3.01698
3.47473
1.99029
2.56016
2.54601
2.58832
2.57484
2.00067
-1.01657
-0.880486
-0.910013
-0.764512
-0.789178
-0.910488
-2.78406
-2.75533
-2.08623
-3.54507
-3.09504
-3.11097
-3.06206
-3.07825
-3.53192
2.9746
2.97988
3.44421
1.92967
2.51447
2.50841
2.53338
2.52281
1.93434
1.46158
1.4678
1.70439
0.925637
1.04538
1.04236
1.06856
1.06382
0.94416
-1.11249
-1.11238
-1.16335
-2.82964
-2.8172
-2.17394
-3.58568
-3.14661
-3.15311
-3.12529
-3.13734
-3.57833
2.97148
2.96965
3.4341
1.91721
2.50369
2.50637
2.50463
2.50308
1.91604
1.4431
1.44233
1.67978
0.903296
1.02496
1.02598
1.02531
1.02455
0.903183
-2.81878
-2.82781
-2.18628
-3.59137
-3.15412
-3.14858
-3.15653
-3.15686
-3.59378
2.99089
2.9848
3.44479
1.94537
2.52411
2.53194
2.51086
2.5169
1.94024
1.47669
1.47035
1.70329
0.942319
1.29399
1.30398
1.04634
1.04927
0.930917
-1.12647
-1.06318
-1.06165
-2.76881
-2.78945
-2.13036
-3.56229
-3.11905
-3.10632
-3.14058
-3.13066
-3.57192
-1.00441
-0.865383
-0.85613
-1.01716
-1.01371
-1.0692
-2.59941
-2.61391
-2.05532
-3.51659
-3.06543
-3.05187
-3.09287
-3.0791
-3.52854
-0.907355
-0.79215
-0.786896
-0.828875
-0.822523
-0.9362
1.19688
1.09105
1.65193
0.189115
0.866357
0.859811
0.498821
0.492848
0.145233
-0.745792
-0.740721
-0.0409837
-1.57133
-0.978094
-1.09937
-1.02465
-0.986007
-1.70128
0.958175
1.0789
1.07348
1.35745
1.33543
0.977748
1.7476
1.51542
1.52885
0.874304
0.717015
0.73313
0.979536
0.870128
0.887536
0.774461
0.78711
0.906509
-1.15265
-1.10296
-1.10936
-1.02262
-1.03115
-1.0831
-1.6446
-1.66366
-1.88198
-1.1693
-1.27503
-1.2614
-1.335
-1.3272
-1.22288
0.905836
1.02734
1.02617
1.03949
1.03653
0.91569
1.68908
1.45179
1.45627
0.827766
0.767714
0.771129
0.750275
0.750649
0.813933
0.773289
0.774802
0.834077
-1.69786
-1.70773
-1.96771
-1.26549
-1.31153
-1.30839
-1.22196
-1.35055
-1.34345
-1.30622
-1.30199
-1.25455
-1.94601
-1.6805
-1.69429
0.921822
1.04049
1.0433
1.02755
1.02929
0.909808
1.68365
1.44737
1.44484
0.815548
0.754147
0.75101
0.776519
0.774336
0.834909
0.812083
0.7497
0.750101
0.748619
0.747404
0.811872
-1.71021
-1.70123
-1.96608
-1.28788
-1.2915
-1.24177
-1.97718
-1.71724
-1.71287
0.849144
0.703713
0.69483
0.764899
0.760953
0.874891
0.84018
0.780606
0.778848
0.692359
0.684696
0.833871
-1.0786
-1.02202
-1.01986
-1.06419
-1.06658
-1.12064
-1.6408
-1.62426
-1.9012
-1.17085
-1.30773
-1.31323
-1.27075
-1.27683
-1.16599
-1.22904
-1.27893
-1.28337
-1.31881
-1.32527
-1.18955
-1.92971
-1.66192
-1.64628
0.918641
0.806377
0.801927
0.830517
0.827322
0.937679
0.887444
0.773332
0.768994
0.797749
0.793667
0.90666
-0.954614
-0.841636
-0.835237
-0.853011
-0.845611
-0.98609
-1.14735
-1.25844
-1.26467
-1.44585
-1.46283
-1.12915
-1.85069
-1.62698
-1.61625
0.96955
0.643563
0.632231
0.609628
0.639324
0.966359
0.946097
0.835686
0.833195
-0.878377
-0.524083
-0.496922
1.54334
1.55831
1.78412
1.04995
1.38924
1.36492
1.3677
1.35095
1.06313
-0.312124
-0.34301
-0.412544
1.98709
2.55581
2.56304
2.54003
2.54804
1.98215
1.52935
1.52321
1.75007
1.01196
1.29685
1.30355
1.28255
1.2899
1.00825
-0.493859
-0.43392
-0.431377
-0.455658
-0.454786
-0.512737
-2.54303
-2.55601
-1.98647
0.596646
0.546378
0.570036
0.422499
0.434088
0.505125
-1.06902
-1.41302
-1.37829
-1.46389
-1.42594
-1.08863
-1.82897
-1.60067
-1.62302
0.979336
1.32346
1.27601
1.30815
1.31936
0.974599
1.72045
1.49025
1.48339
0.516767
0.461584
0.457977
0.471496
0.469145
0.525961
-0.523558
-0.466125
-0.45975
-1.60561
-1.59509
-1.82066
-1.08582
-1.42334
-1.4403
-1.34738
-1.418
-1.0798
0.531175
0.475661
0.473792
0.478832
0.47804
0.534511
-1.03844
-1.32648
-1.33742
-1.30661
-1.31615
-1.03292
-1.77365
-1.54497
-1.53588
0.571574
0.609207
0.285747
1.02323
0.711434
0.677
0.706256
0.720003
1.02319
-0.855386
-0.723293
-0.742359
-0.425418
-0.413444
-0.819515
0.154126
-0.273156
-0.297083
-0.833207
-0.869699
-0.997079
-0.521259
-0.663308
-0.634798
-0.652917
-0.636301
-0.581834
-0.9334
-0.815452
-0.839386
-0.877132
-0.867538
-1.0105
-1.05222
-0.997359
-0.995299
-0.470637
-0.411723
-0.408567
-0.429548
-0.426732
-0.485862
-0.564536
-0.708597
-0.714965
-0.695588
-0.70208
-0.56078
-0.930123
-0.816156
-0.809824
0.701356
0.712639
0.865169
0.84233
0.683607
0.697082
0.491113
0.55725
0.550867
0.610186
0.599307
0.533794
0.919922
0.802141
0.81684
-1.07189
-1.0766
-1.1293
-1.11281
-1.06108
-1.0667
0.752708
0.75344
0.818287
0.815739
0.752067
0.752423
0.780908
0.782383
0.84486
0.839643
0.778953
0.779952
-1.31447
-1.3116
-1.25045
-1.60094
-1.49617
-1.49913
-1.48975
-1.49224
-1.59765
-1.61239
-1.50642
-1.50823
-1.50174
-1.50422
-1.60985
-1.2595
-1.32095
-1.31755
-1.28696
-1.28392
-1.23179
-1.56481
-1.46117
-1.46691
-1.44793
-1.45485
-1.55856
-1.58576
-1.48152
-1.48592
-1.47202
-1.47686
-1.58106
-1.23526
-1.28947
-1.28732
0.766241
0.765349
0.824287
0.827322
0.767928
0.767205
0.74771
0.748174
0.811253
0.810178
0.747191
0.747511
-1.30621
-1.31017
-1.24444
-1.60483
-1.49331
-1.48901
-1.50114
-1.49743
-1.6086
-1.58683
-1.47845
-1.47749
-1.48486
-1.48145
-1.59185
-1.232
-1.29822
-1.30215
-1.61905
-1.5111
-1.51104
-1.50966
-1.51066
-1.61816
-1.61674
-1.50702
-1.50442
-1.51033
-1.50906
-1.61839
0.744537
0.707036
0.854507
0.509299
0.565055
0.567264
0.543691
0.545549
0.485005
0.869728
0.755441
0.749597
0.828758
0.681416
0.671667
-1.04389
-1.04106
-1.09587
-1.1024
-1.0475
-1.04569
-1.25949
-1.26018
-1.20704
-1.56502
-1.45734
-1.45157
-1.47097
-1.46385
-1.57041
-1.54309
-1.43491
-1.4291
-1.44616
-1.44066
-1.5488
-1.20257
-1.2567
-1.2579
0.489201
0.431179
0.430649
0.453559
0.447943
0.505576
0.781797
0.777739
0.891478
0.523774
0.581902
0.583891
0.568203
0.56937
0.510402
0.534893
0.680138
0.684647
0.671766
0.675621
0.531962
0.90279
0.789568
0.785634
0.469932
0.411197
0.413508
0.4294
0.42717
0.482908
-0.854195
-0.848218
-0.960751
-0.595394
-0.652843
-0.655251
-0.63436
-0.637868
-0.580435
-0.656801
-0.658946
-0.597177
-0.98
-0.866528
-0.860296
0.525405
0.3851
0.378346
0.398996
0.388533
0.530365
0.538296
0.481266
0.479968
-0.42346
-0.278552
-0.263495
-0.405676
-0.403031
-0.461193
2.13115
2.57987
2.58043
2.56959
2.57532
2.01522
1.12041
1.34236
1.3464
1.33361
1.33807
1.11577
-0.266547
-0.262166
-0.0255672
-0.752675
-0.502034
-0.501497
-0.489581
-0.51778
-0.772064
1.04198
1.32288
1.32857
1.31019
1.31668
1.03839
1.76645
1.54124
1.53538
0.221324
0.229264
0.196553
0.512923
0.401409
0.382822
0.394202
0.397965
0.506389
-0.377165
-0.245773
-0.225772
-0.253692
-0.259328
-0.386519
0.111837
-0.0216846
-0.0495001
0.42327
0.485939
0.33473
0.631835
0.538126
0.522986
0.510993
0.532943
0.631114
-0.347861
-0.266245
-0.28642
-0.124225
-0.0690577
-0.278175
0.26695
0.0168768
0.0284607
1.05177
1.04842
0.928456
1.28718
1.16816
1.17172
1.16204
1.16517
1.28502
-1.16574
-1.11186
-1.11292
1.02396
1.02424
0.902636
1.26352
1.14416
1.14398
1.14575
1.14496
1.26505
1.26389
1.14445
1.14534
1.14376
1.14415
1.26446
0.902698
1.02413
1.02385
-1.07454
-1.06812
-1.13115
-0.803555
-0.797671
-0.912659
-0.567412
-0.683341
-0.689399
-0.671616
-0.677278
-0.561619
0.877451
0.656616
0.606762
0.647329
0.652002
0.873943
0.206625
0.42622
0.421408
0.833548
0.851711
0.964627
0.599382
0.740337
0.717788
0.783723
0.763287
0.616231
-1.08861
-1.09548
-1.14736
-1.29848
-1.28722
-1.18224
-1.49767
-1.39209
-1.4032
-1.36801
-1.38059
-1.48762
-1.53631
-1.43196
-1.44018
-1.41339
-1.42312
-1.52785
-1.21374
-1.31824
-1.30874
1.03015
1.02859
0.90704
1.26805
1.14869
1.15046
1.14612
1.14747
1.26774
1.2758
1.15661
1.15942
1.15212
1.1544
1.27456
0.912377
1.034
1.03184
0.759349
0.76341
0.825618
0.637725
0.700549
0.694624
0.712368
0.707739
0.649877
0.623486
0.687468
0.687328
0.687768
0.687554
0.623281
0.813739
0.750851
0.751296
0.65889
0.715987
0.714906
0.716563
0.716366
0.658455
0.834704
0.775691
0.776624
-1.31052
-1.31214
-1.26395
-1.41407
-1.36654
-1.36562
-1.43502
-1.37986
-1.38169
-1.37643
-1.37834
-1.43449
1.26717
1.14853
1.14718
1.15206
1.15036
1.26953
0.912354
1.03118
1.03314
0.76037