/*--------------------------------*- C++ -*----------------------------------*\
| =========                 |                                                 |
| \\      /  F ield         | OpenFOAM: The Open Source CFD Toolbox           |
|  \\    /   O peration     | Version:  5.x                                   |
|   \\  /    A nd           | Web:      www.OpenFOAM.org                      |
|    \\/     M anipulation  |                                                 |
\*---------------------------------------------------------------------------*/
FoamFile
{
    version     2.0;
    format      ascii;
    class       volScalarField;
    location    "300";
    object      p_rgh;
}
// * * * * * * * * * * * * * * * * * * * * * * * * * * * * * * * * * * * * * //

dimensions      [0 2 -2 0 0 0 0];

internalField   nonuniform List<scalar> 
6584
(
0.00427968
0.0047097
0.00522446
0.00599217
0.00697016
0.00822451
0.00973644
0.0115169
0.0133757
0.0151818
0.0164083
0.0164946
0.0150444
0.0121629
0.00842562
0.00451988
0.000981862
-0.0020352
-0.00444865
-0.00632438
-0.00772668
-0.00877414
-0.00945779
-0.0100054
0.00412848
0.00459941
0.00508395
0.00584537
0.00680178
0.00805747
0.00958987
0.0114623
0.0134625
0.0155032
0.0169696
0.0172187
0.0157188
0.0125858
0.00855686
0.00434762
0.000670469
-0.00239706
-0.00478909
-0.00662158
-0.0079682
-0.00898362
-0.0096152
-0.0102021
0.0038038
0.00428401
0.00471156
0.00543394
0.00633467
0.00757773
0.00916124
0.0112904
0.0136103
0.0157631
0.0185109
0.0197998
0.018707
0.015113
0.0101471
0.00372887
-0.000281539
-0.00344594
-0.00575811
-0.00744578
-0.00863807
-0.00953822
-0.0100592
-0.0106236
0.00337738
0.0038242
0.00416802
0.00480485
0.0055981
0.00676311
0.0083731
0.0107667
0.013954
0.0170217
0.0214206
0.0244176
0.0235619
0.0182008
0.011041
0.00455915
-0.00192696
-0.00518373
-0.00729008
-0.00869759
-0.00963469
-0.0103325
-0.0106929
-0.0111629
0.00288223
0.00325328
0.00348199
0.00396813
0.00457299
0.00552032
0.00699278
0.00943299
0.0124221
0.0179442
0.0249237
0.0315358
0.0314684
0.0222466
0.0108492
0.00226592
-0.00316766
-0.00788547
-0.00950965
-0.0103645
-0.010913
-0.0113037
-0.0114542
-0.011763
0.00234721
0.00260031
0.00268047
0.00293678
0.00324207
0.00370581
0.00473398
0.00629596
0.0102498
0.0163958
0.0265111
0.0433629
0.0495669
0.0308149
0.00794313
-0.00299041
-0.00804888
-0.0114574
-0.0122932
-0.0123678
-0.0124
-0.0123844
-0.0122828
-0.0123694
0.00181438
0.00191491
0.00182411
0.00178613
0.00170719
0.00150852
0.00178957
0.00269979
0.0046131
0.00953349
0.0227814
0.0543554
0.0957418
0.0325039
4.77682e-06
-0.0132224
-0.0151693
-0.0160483
-0.0155196
-0.0145724
-0.0139692
-0.0134711
-0.0130931
-0.0129123
0.00133159
0.00126189
0.000999977
0.000641238
0.000130533
-0.000830232
-0.00168398
-0.00193959
-0.00351171
-0.00447867
-0.000129078
0.0209241
-0.0110054
-0.0287178
-0.0290761
-0.0244647
-0.0210924
-0.0188072
-0.0167183
-0.0154289
-0.0144283
-0.0137827
-0.0133169
0.000943619
0.000710471
0.000307066
-0.000338078
-0.00124134
-0.00288283
-0.00490323
-0.00672048
-0.0122163
-0.0216252
-0.0353647
-0.0717296
-0.122678
-0.0681071
-0.0460309
-0.0335788
-0.0254746
-0.0214869
-0.0184204
-0.0165363
-0.015105
-0.014246
-0.013516
0.000683958
0.000321045
-0.000163434
-0.000991793
-0.00213286
-0.00413547
-0.00688674
-0.00989332
-0.0176248
-0.031763
-0.0553186
-0.109159
-0.17248
-0.0911558
-0.0555571
-0.0389762
-0.0278746
-0.0228511
-0.0192893
-0.0170629
-0.0153688
-0.0143948
-0.0134617
0.000566788
0.000128298
-0.000359573
-0.00122663
-0.00238279
-0.00430867
-0.00707582
-0.0103843
-0.0175802
-0.0301996
-0.0511353
-0.0938246
-0.149991
-0.0861439
-0.0534482
-0.0385932
-0.0275274
-0.0225276
-0.0191151
-0.0168843
-0.0151493
-0.0141823
-0.0131363
0.000583165
0.000130297
-0.000288413
-0.00105551
-0.00202048
-0.00350019
-0.00564089
-0.00835226
-0.012882
-0.0196779
-0.0299216
-0.0446646
-0.0864723
-0.060921
-0.042184
-0.033107
-0.0246792
-0.0206658
-0.0179507
-0.0160315
-0.0144638
-0.0136182
-0.0125582
0.000704247
0.000290642
-1.06093e-05
-0.000585316
-0.00123488
-0.00209514
-0.00329406
-0.00491017
-0.00628224
-0.0068122
-0.00614668
0.0024399
-0.0247095
-0.0312189
-0.0277686
-0.02508
-0.020358
-0.0178328
-0.0160725
-0.0146678
-0.013415
-0.0127637
-0.0117767
0.000890354
0.000552572
0.000385077
3.39738e-05
-0.00028021
-0.000545232
-0.000892179
-0.000296467
-0.000561343
0.00315339
0.0091404
0.0288594
0.0841785
0.0126484
-0.00917144
-0.0153985
-0.0171707
-0.0157438
-0.0146917
-0.0138544
-0.0130215
-0.0121362
-0.0117123
-0.0108581
0.00110123
0.000856255
0.000811413
0.000665092
0.000632313
0.000800714
0.00109697
0.00215061
0.00320293
0.00769798
0.0143276
0.0275263
0.0363077
0.0169332
0.000119933
-0.00739098
-0.0104605
-0.0116109
-0.0117366
-0.0116237
-0.0113035
-0.0107638
-0.0105613
-0.0098699
0.00130321
0.00115187
0.00120282
0.00121672
0.00138089
0.00180957
0.00244297
0.00386144
0.00513872
0.00875317
0.0140889
0.0190084
0.0175798
0.0113268
0.00331863
-0.00308031
-0.00704685
-0.00852073
-0.00926679
-0.00960142
-0.00966782
-0.00941711
-0.00939827
-0.00887777
0.00147279
0.00140564
0.00152039
0.00164531
0.00191928
0.0024784
0.00318845
0.00470412
0.00635736
0.0081235
0.0108964
0.0124721
0.0144702
0.00937055
0.0036053
-0.00097547
-0.00443197
-0.00623232
-0.00727294
-0.00787367
-0.00819661
-0.00815891
-0.00827921
-0.00791848
0.00159645
0.0015993
0.00174773
0.00194085
0.00225055
0.00284283
0.00347002
0.00477404
0.00599874
0.00819544
0.00846641
0.0110462
0.00690724
0.00647666
0.00242339
-0.000573274
-0.00267768
-0.00462413
-0.00571017
-0.00645479
-0.00692184
-0.00703289
-0.00724482
-0.00702242
0.00166904
0.00172712
0.00188503
0.00211542
0.00241014
0.00298495
0.00345947
0.00458043
0.0050758
0.00719424
0.00485843
0.00963509
0.00831972
0.00134279
0.00267045
-0.000537252
-0.0018823
-0.00360249
-0.00454698
-0.0053314
-0.00584875
-0.00605557
-0.00631696
-0.00620905
0.00169142
0.00179185
0.00194237
0.00219191
0.00244346
0.00299051
0.00329459
0.00433707
0.00433096
0.00645593
0.00473373
0.00735139
0.00663139
0.00182957
0.00253972
-0.000546307
-0.00131175
-0.00289997
-0.00366951
-0.00444878
-0.00495659
-0.0052223
-0.00550122
-0.00548497
0.00166802
0.00180074
0.00193317
0.00219255
0.00238612
0.00290825
0.0030492
0.00403522
0.00373253
0.00555669
0.00413771
0.00509011
0.00460404
0.00162012
0.00209462
-0.000533415
-0.000913365
-0.00240042
-0.00299362
-0.00375291
-0.00421721
-0.0045191
-0.00479311
-0.00484896
0.00160514
0.00176272
0.00187086
0.00213588
0.00226556
0.00276572
0.00276454
0.0036797
0.00320101
0.00468732
0.00345351
0.00378191
0.00340314
0.001187
0.0016176
-0.000553517
-0.000682664
-0.00204875
-0.00247429
-0.00320436
-0.00360558
-0.00392924
-0.00418345
-0.00429541
0.00150992
0.00168719
0.00176834
0.00203761
0.00210457
0.00258572
0.00247227
0.00331471
0.00275037
0.00397602
0.00292564
0.00290933
0.00261511
0.000865721
0.00123432
-0.000579605
-0.000552005
-0.001793
-0.00207368
-0.00276959
-0.00309916
-0.00343539
-0.00366068
-0.00381606
0.0013897
0.00158319
0.00163715
0.00191072
0.00192074
0.00238565
0.00218969
0.00296332
0.00236973
0.0033883
0.00249065
0.00224204
0.0020118
0.000602934
0.000920801
-0.000601858
-0.000476178
-0.00159793
-0.00176028
-0.00242034
-0.00267776
-0.00302081
-0.00321246
-0.00340131
0.00125149
0.00145884
0.00148707
0.0017653
0.0017263
0.00217694
0.00192377
0.00263321
0.00204301
0.00289432
0.00212643
0.00173166
0.00154524
0.000380383
0.00066108
-0.000619801
-0.000432863
-0.0014431
-0.00151082
-0.00213479
-0.00232401
-0.00266998
-0.00282644
-0.00304099
0.00110173
0.00132117
0.00132607
0.00160916
0.00152971
0.00196738
0.00167744
0.0023283
0.0017613
0.00247834
0.0018159
0.00133395
0.00118434
0.000202775
0.000451261
-0.000631246
-0.000407535
-0.00131518
-0.00130838
-0.00189623
-0.00202341
-0.00236937
-0.00249122
-0.00272526
0.000946233
0.0011762
0.00116052
0.00144823
0.00133665
0.00176204
0.00145134
0.00204964
0.00151752
0.00213124
0.0015535
0.00102514
0.000913936
6.31269e-05
0.000284434
-0.000635341
-0.000390627
-0.00120436
-0.00113955
-0.00169209
-0.0017641
-0.00210779
-0.00219665
-0.00244474
0.000790124
0.00102892
0.000995498
0.00128695
0.00115066
0.00156398
0.00124476
0.00179664
0.00130407
0.00183919
0.00133472
0.000783596
0.000698621
-5.79529e-05
0.000153302
-0.000630145
-0.000373511
-0.00110211
-0.000992802
-0.00151085
-0.00153513
-0.00187425
-0.00193282
-0.00219035
0.000637953
0.000883419
0.000834872
0.00112844
0.000973945
0.00137476
0.00105605
0.00156775
0.00111529
0.00158888
0.00114772
0.000585943
0.000524956
-0.000151465
5.35187e-05
-0.000616287
-0.000352928
-0.0010045
-0.000860759
-0.00134497
-0.00132828
-0.00166055
-0.00169156
-0.00195437
0.000493743
0.000743103
0.000681717
0.000974948
0.000807497
0.00119469
0.000882528
0.00135899
0.000947212
0.00137235
0.000986475
0.000423348
0.000384906
-0.000221124
-1.9959e-05
-0.000593018
-0.000326287
-0.000907847
-0.000737663
-0.00118818
-0.00113658
-0.00145932
-0.00146542
-0.0017293
0.000361126
0.000610545
0.000538252
0.000827593
0.000651699
0.00102395
0.000721464
0.0011649
0.000793884
0.00118098
0.000844811
0.000288751
0.000271989
-0.000270175
-7.072e-05
-0.000559145
-0.000291718
-0.000808693
-0.000618719
-0.00103526
-0.000954338
-0.00126425
-0.0012481
-0.00150826
0.000243655
0.000487809
0.000406537
0.000686701
0.000506778
0.000861048
0.00057176
0.000982503
0.000651288
0.00100713
0.000716953
0.00017643
0.000180294
-0.000300659
-0.000101654
-0.000513731
-0.000248383
-0.00070443
-0.000501071
-0.000882086
-0.000777456
-0.00107028
-0.00103461
-0.00128535
0.000144639
0.000375528
0.000287936
0.000551486
0.000371895
0.000700775
0.000430161
0.000804901
0.000514019
0.000841493
0.000596316
8.3128e-05
0.000106971
-0.000310338
-0.000113363
-0.00045365
-0.000195892
-0.000591539
-0.000382654
-0.00072399
-0.000602402
-0.000871489
-0.000819662
-0.0010531
6.83058e-05
0.000275773
0.000185759
0.000423063
0.000250225
0.000543971
0.0002989
0.000630294
0.000381765
0.000678464
0.000475874
3.73728e-06
4.54723e-05
-0.000299772
-0.000109044
-0.000378701
-0.00013713
-0.000469922
-0.000266045
-0.000561297
-0.000431701
-0.000668649
-0.000605541
-0.000812126
1.61805e-05
0.000176531
9.4906e-05
0.000280734
0.000134346
0.000364191
0.000166637
0.00042522
0.000235245
0.00047885
0.000334266
-4.53002e-05
7.3753e-06
-0.000243245
-8.09135e-05
-0.000269808
-7.12014e-05
-0.000320203
-0.00014692
-0.000371991
-0.000254156
-0.000436063
-0.000372597
-0.000530043
-6.58665e-07
0.00011366
4.75738e-05
0.000182773
7.00367e-05
0.000237365
9.06772e-05
0.000278676
0.000141517
0.000326299
0.000185364
-0.000123082
-6.85084e-05
-0.000193652
-5.71672e-05
-0.000173697
-2.29653e-05
-0.000197086
-6.30961e-05
-0.00022331
-0.000127849
-0.000257699
-0.000203039
-0.000313575
-0.0630461
-0.121072
-0.00664612
-0.107498
-0.18447
-0.133903
-0.0982992
-0.16499
-0.186507
-0.0512153
-0.0994102
-0.158308
-0.00254487
-0.0296935
-0.0902409
0.0274694
0.0933737
0.0894366
0.016047
-0.0221316
0.0316502
0.0963234
0.00861281
0.043412
-0.0271775
-0.0555827
0.016569
-0.095638
0.0423728
-0.111329
-0.0665384
-0.0288312
-0.0526245
-0.0977116
-0.0635192
-0.0922794
-0.132204
-0.105723
-0.229439
-0.192884
-0.170091
-0.101123
-0.0777772
-0.0543102
-0.0907054
-0.0992438
-0.109313
-0.147562
-0.149667
-0.259722
-0.265821
-0.156399
-0.101324
-0.104484
-0.0360402
-0.048981
-0.0866653
-0.0773712
-0.0960161
-0.124597
-0.162579
-0.203096
-0.0948128
-0.0739128
-0.0962608
-0.0635386
-0.106601
-0.0316287
-0.0384257
-0.0650526
0.0213402
-0.0130155
0.0301877
0.030495
0.0856769
0.0307422
0.0243948
0.0179656
-0.100782
-0.0490943
-0.0307008
-0.0544465
-0.108433
0.0591578
-0.0441943
-0.189155
-0.107515
-0.0761603
-0.102417
-0.185482
-0.148707
-0.13505
-0.0972675
-0.139361
-0.154516
-0.11325
-0.138542
-0.263275
-0.231415
-0.170394
-0.233058
-0.248568
-0.188478
-0.231179
-0.163277
-0.12776
-0.145612
-0.107604
-0.151121
-0.130942
-0.154371
-0.152792
-0.205478
-0.257442
-0.18075
-0.241642
-0.209495
-0.250004
-0.243789
-0.184137
-0.0941453
-0.0570485
-0.128865
-0.099597
-0.10981
-0.158587
-0.125805
-0.154979
-0.109191
-0.206838
-0.158014
-0.134513
-0.0191993
0.00935833
-0.052575
-0.0234428
-0.01843
-0.0578732
-0.103379
-0.0633752
-0.0630145
0.0340156
0.0521775
0.0120326
0.0317243
0.0468584
0.024658
-0.0181502
-0.0385071
0.0526043
-0.0485029
0.110643
-0.0116224
-0.00440808
-0.0430118
-0.0255752
-0.0235568
-0.0522525
0.0138695
-0.00846246
0.0109473
-0.0102186
-0.0302007
0.112201
-0.0136556
0.0340236
-0.0887191
-0.0588852
-0.0565339
-0.0910621
-0.07103
-0.0826711
-0.0603287
0.00233214
0.0205622
-0.0576464
-0.0426805
-0.0119779
-0.0339579
-0.0543758
-0.057707
-0.0200087
0.0212884
0.0276709
-0.0149463
0.0173249
-0.00174446
0.158797
0.105858
0.0730908
0.0590458
0.100014
0.158883
-0.0668704
-0.0401549
-0.0630283
0.0994523
-0.0452837
-0.020056
-0.220076
-0.217302
-0.267383
-0.267377
-0.183718
-0.186193
-0.0808053
-0.0660569
-0.0832262
0.0378198
0.0166586
-0.0090488
0.0122092
0.00281048
-0.0900933
-0.0826698
-0.116063
-0.0864494
-0.118435
-0.0901087
-0.0807332
-0.0197632
-0.00326871
-0.0275171
-0.0844613
-0.157463
-0.152947
-0.148573
-0.148805
-0.12588
-0.127005
-0.255747
-0.25596
-0.239968
-0.208994
-0.198882
-0.218924
-0.211704
-0.240556
-0.209997
-0.175961
-0.157206
-0.195052
-0.181239
-0.213375
-0.144405
-0.142309
-0.156805
-0.156043
-0.240835
-0.242345
-0.225872
-0.206681
-0.216564
-0.188016
-0.202541
-0.224084
-0.252398
-0.223407
-0.220613
-0.219114
-0.22315
-0.252267
-0.0865519
-0.0782661
-0.0864154
-0.110985
-0.0603202
-0.0824456
-0.0726985
-0.118948
-0.113731
-0.114048
-0.131347
-0.134521
-0.185001
-0.167298
-0.182454
-0.146085
-0.162052
-0.180716
-0.0237818
-0.000188035
-0.0397943
-0.0421152
-0.0573703
-0.0247124
-0.0401858
-0.0358431
-0.0407209
-0.0262556
-0.0350605
-0.0355702
-0.0123068
-0.062653
-0.037766
-0.0409886
-0.0365832
0.0425025
0.0590236
0.0756799
0.0287335
0.0379182
0.0900138
0.0572285
0.0400458
0.208451
0.00663139
0.0201727
0.000180262
0.0152891
0.0268347
0.0115642
0.0582228
0.0434586
0.047209
0.163734
0.00773346
-0.0195104
-0.0194931
0.0243772
0.0257452
0.0760663
0.0595102
0.0711147
0.0270119
0.026134
0.0661208
0.0604952
0.0829294
0.23941
0.171618
0.126592
0.130642
0.174213
0.242083
-0.122717
-0.102594
-0.113216
-0.225249
-0.21401
-0.205158
-0.150705
-0.129528
-0.128508
-0.128441
-0.130687
-0.150954
-0.264187
-0.266231
-0.172821
-0.194361
0.0468216
0.0398646
0.00776882
0.0147803
0.0331019
0.0525249
0.0463901
0.0592586
0.0122361
-0.0076375
0.104949
-0.176721
-0.201286
-0.212514
-0.141432
-0.115804
-0.0831311
-0.150038
-0.124557
-0.152126
-0.144345
-0.123499
-0.128614
-0.114906
-0.122763
-0.142487
-0.144489
-0.157392
-0.149516
-0.166772
-0.16516
-0.151972
-0.147867
-0.144404
-0.133551
-0.261227
-0.241201
-0.237535
-0.220173
-0.219683
-0.23914
-0.234608
-0.245745
-0.126372
-0.122545
-0.139361
-0.149221
-0.157899
-0.161179
-0.156275
-0.169043
-0.167238
-0.164872
-0.168724
-0.154619
-0.219948
-0.251944
-0.235484
-0.229442
-0.233901
-0.195417
-0.205599
-0.217749
-0.251547
-0.242286
-0.239006
-0.236397
-0.239219
-0.248682
-0.119289
-0.120779
-0.11306
-0.170787
-0.158349
-0.147618
-0.134804
-0.12465
-0.140692
-0.103594
-0.119185
-0.128234
-0.00597472
-0.00268141
-0.0223773
0.0169115
0.00360764
-0.00184464
0.0426514
0.0532237
0.0207798
0.0258759
0.0195943
0.0324474
0.0395614
0.0558204
0.049657
0.0139541
0.15517
0.0388938
0.0165298
0.00413279
0.00558548
0.018834
0.00264262
0.000900408
0.0519783
0.0509009
0.154522
0.0240317
0.033139
-0.0730409
-0.0660045
0.00939811
0.0224994
0.0122755
0.0185968
0.00611263
0.0260058
0.0210135
0.01446
-0.0489085
-0.0449844
-0.0210249
-0.0240731
0.023517
0.0256501
0.0269394
0.0263997
0.0285343
-0.103301
-0.0813123
-0.0423778
-0.121696
-0.0922819
-0.113555
-0.224078
-0.208639
-0.265509
-0.267885
-0.175641
-0.191904
-0.0802619
-0.0753142
-0.0852632
-0.0627114
-0.072138
-0.0747637
-0.098731
-0.107873
-0.0882941
-0.0955619
0.0288108
0.0359462
0.0439072
0.0205173
0.0321551
0.0260776
0.0322206
0.0207537
-0.105176
-0.0886206
-0.100737
-0.0674687
-0.0840117
-0.101244
-0.11713
-0.123823
-0.104392
-0.114595
-0.0578616
-0.0415774
-0.0619357
-0.0590302
-0.0668053
-0.17517
-0.198386
-0.173423
-0.187968
-0.153383
-0.130795
-0.184453
-0.159491
-0.134341
-0.154442
-0.171058
-0.161216
-0.158326
-0.144994
-0.158514
-0.163954
-0.153122
-0.158135
-0.169104
-0.170547
-0.164745
-0.167002
-0.151865
-0.164009
-0.161864
-0.137169
-0.142433
-0.125967
-0.134801
-0.149117
-0.151688
-0.143834
-0.148152
-0.132665
-0.143196
-0.138787
-0.260955
-0.253194
-0.228017
-0.221459
-0.239136
-0.244863
-0.234336
-0.228667
-0.154012
-0.159731
-0.147763
-0.162707
-0.157416
-0.174777
-0.163355
-0.150695
-0.138425
-0.155739
-0.151467
-0.169964
-0.169191
-0.155852
-0.173498
-0.174961
-0.170996
-0.173413
-0.173856
-0.172883
-0.174611
-0.173857
-0.155792
-0.168956
-0.169839
-0.230878
-0.248487
-0.220848
-0.226647
-0.232514
-0.219111
-0.209508
-0.217825
-0.243191
-0.241631
-0.252419
-0.250015
-0.241218
-0.241866
-0.0971988
-0.098667
-0.0896628
-0.0810854
-0.103808
-0.0927335
-0.104213
-0.0657664
-0.0636191
-0.0582056
-0.0776461
-0.0666407
-0.0694258
-0.134575
-0.126793
-0.13549
-0.137276
-0.12013
-0.115583
-0.107458
-0.123881
-0.11636
-0.122141
-0.133277
-0.124011
-0.122652
-0.131443
-0.140203
-0.110987
-0.127525
-0.146789
-0.144199
-0.155059
-0.138458
-0.0137775
-0.0161609
-0.0245769
0.0016474
-0.0125252
-0.00993672
0.004096
-0.0328911
-0.027365
-0.0302753
-0.050478
-0.0513508
-0.0596547
-0.0383211
-0.0485299
-0.0472443
-0.0502232
-0.0531125
0.0569216
0.0689899
0.0302203
0.0310426
0.0710608
0.0581605
0.00177876
-0.0171938
0.00527283
0.00379058
0.0220361
0.0362338
0.319905
0.24593
0.216002
0.229053
0.262243
0.326366
0.0360002
0.0806493
0.0488047
-0.085902
-0.0998537
-0.119082
-0.227627
-0.2416
-0.243336
-0.262507
-0.265824
-0.109614
-0.100964
-0.11358
-0.217543
-0.214358
-0.200329
-0.110357
-0.100726
-0.0970341
-0.0827919
-0.0638359
-0.0818142
-0.120148
-0.112528
-0.102923
-0.12372
-0.147489
-0.12872
-0.118
-0.130256
-0.122365
-0.261921
-0.24592
-0.248317
-0.233386
-0.25125
-0.250109
-0.247344
-0.215872
-0.211389
-0.225086
-0.136757
-0.119627
-0.113158
-0.137535
-0.145457
-0.135791
-0.207969
-0.222108
-0.219501
-0.255578
-0.239693
-0.244557
-0.24625
-0.250586
-0.253143
-0.252322
-0.248058
-0.249684
-0.246041
-0.126925
-0.134389
-0.136484
-0.198623
-0.190087
-0.19408
-0.0860329
-0.082554
-0.098315
0.0419939
0.0465484
0.0369642
0.028212
0.023118
0.0358524
0.0381153
0.038018
0.0511379
0.0362079
-0.0371824
-0.0325875
-0.0788944
-0.0596538
-0.0623331
-0.0631781
-0.0550875
-0.0547604
-0.0570769
-0.0428242
-0.0437538
-0.0428108
-0.0357061
-0.0327201
-0.0310593
0.0284132
0.0261749
0.0242246
0.0917701
0.149157
0.117461
-0.0805213
-0.0806916
-0.0696051
-0.0541834
-0.137763
-0.129076
-0.0295951
0.00974381
0.01636
-0.225051
-0.236226
-0.222559
-0.214482
-0.214694
-0.217627
-0.269032
-0.267854
-0.181523
-0.177984
-0.181148
-0.187907
-0.198323
-0.189239
-0.0848787
-0.087676
-0.0623108
-0.0651964
-0.0689676
-0.090192
-0.0934716
-0.0938688
-0.0970864
-0.0870561
-0.0943391
-0.111607
-0.108062
-0.111623
-0.0787766
-0.084521
-0.0914301
-0.130136
-0.132505
-0.114473
-0.119978
-0.122225
-0.0112836
-0.0355277
-0.0494926
-0.0389539
-0.0419775
-0.0391052
-0.0773908
-0.155503
-0.147197
-0.137331
-0.13243
-0.119381
-0.135018
-0.13663
-0.256707
-0.256091
-0.195314
-0.189423
-0.201265
-0.222801
-0.206463
-0.20104
-0.138013
-0.147416
-0.152295
-0.238017
-0.243778
-0.255035
-0.255125
-0.252633
-0.252526
-0.254781
-0.254813
-0.0902922
-0.0903114
-0.088737
-0.0851192
-0.109222
-0.10582
-0.108821
-0.123954
-0.131694
-0.12359
-0.13451
-0.13308
-0.142439
-0.140604
-0.116212
-0.11582
-0.112471
-0.132483
-0.132197
-0.178639
-0.184641
-0.195545
-0.170368
-0.165945
-0.172292
-0.0454593
-0.0441991
-0.0408791
-0.0538914
-0.0488265
-0.0483061
-0.0254925
-0.0275905
-0.0352216
-0.0156179
-0.0216991
-0.0220139
-0.0568555
-0.0570804
-0.0593905
-0.0430439
-0.0404976
-0.0619549
0.0662486
0.0659965
0.0732684
0.029801
0.0348519
0.0309234
0.0294526
0.0392511
0.0323846
0.0344718
0.0842846
0.0695688
0.0468393
0.0538992
0.0502553
0.126224
0.216219
0.0821553
0.0252533
0.0255217
0.0673089
0.0895029
0.0990901
0.0265978
0.0283538
0.0288523
0.0277117
0.0279614
0.0260333
0.0975333
0.0865925
0.0733681
0.160856
0.234778
0.20266
-0.240516
-0.240665
-0.226293
-0.219129
-0.208794
-0.201495
-0.223292
-0.219429
-0.264099
-0.265597
-0.178155
-0.180195
-0.169671
-0.174353
-0.197217
-0.210639
-0.207396
0.0436682
0.045726
0.0487862
0.0393279
0.0431776
0.0411693
-0.204565
-0.191336
-0.18827
-0.19844
-0.194846
-0.208435
-0.261066
-0.234936
-0.248603
-0.253571
-0.24636
-0.249143
-0.24811
-0.238318
-0.226778
-0.21059
-0.254996
-0.240822
-0.242824
-0.238067
-0.254213
-0.253609
-0.250906
-0.247675
-0.251049
-0.252007
-0.16361
-0.154979
-0.160883
-0.149097
-0.151802
-0.160009
0.0505909
0.0538417
0.0318853
0.0331029
0.0344401
0.0329395
0.0313193
0.0583573
0.056107
0.054211
0.056766
0.0576976
0.0512473
0.0534427
0.0521722
0.00500674
-0.00979634
-0.0103575
0.0171517
0.126179
0.107506
0.144451
0.0458464
0.0644976
0.0864095
0.00889588
0.00977099
0.00623726
0.0165618
0.0134262
0.0125534
-0.00421948
-0.00179639
-0.00779058
0.0028837
4.54423e-06
-0.000428724
0.0672998
0.0740537
0.04581
-0.00995657
-0.0251469
0.0167123
0.00852452
-0.0763382
-0.0650498
-0.0648973
-0.0681581
0.0148197
0.0193375
0.00511026
0.00922063
0.0109659
-0.0514001
-0.0529413
-0.0523861
-0.0428363
-0.0414088
-0.0448655
-0.0423909
-0.0446201
-0.0497439
-0.0194285
-0.0170052
-0.0185962
-0.0179989
-0.0227144
-0.0114699
-0.0146784
-0.0276911
-0.0296225
-0.0258213
0.0267407
0.027345
0.0275592
0.0263696
0.0269447
0.0273517
-0.0957751
-0.0833471
-0.0907824
-0.12633
-0.120052
-0.106653
-0.237274
-0.222846
-0.237656
-0.23969
-0.226452
-0.225667
-0.229931
-0.227887
-0.267558
-0.268742
-0.18784
-0.192169
-0.182624
-0.185224
-0.178354
-0.17489
-0.172018
-0.204597
-0.201503
-0.189852
-0.201429
-0.0745745
-0.0814833
-0.0715244
-0.0681483
-0.0710883
-0.101937
-0.108233
-0.104411
-0.113411
-0.111428
-0.105038
-0.0909734
-0.0889072
-0.0859723
-0.100258
-0.0927804
-0.0930903
-0.0993321
0.0237416
0.0220279
0.0188347
0.0278898
0.024184
-0.100015
-0.101033
-0.104768
-0.108488
-0.0980343
-0.0909229
-0.0963321
-0.126543
-0.128339
-0.129305
-0.127251
-0.121596
-0.120714
-0.124324
-0.0610373
-0.0530859
-0.0502981
-0.0377764
-0.0751585
-0.0765592
-0.0686455
-0.179851
-0.176703
-0.17139
-0.186047
-0.18203
-0.188521
-0.200396
-0.191549
-0.146796
-0.157398
-0.165689
-0.137041
-0.147896
-0.139541
-0.17942
-0.170612
-0.176499
-0.168768
-0.160407
-0.162982
-0.153931
-0.15953
-0.158469
-0.164526
-0.163306
-0.169619
-0.170019
-0.165605
-0.166344
-0.139457
-0.141696
-0.139329
-0.144799
-0.14344
-0.141084
-0.128248
-0.132839
-0.131211
-0.140432
-0.134447
-0.130706
-0.138149
-0.141941
-0.150081
-0.153173
-0.152088
-0.155372
-0.154396
-0.151011
-0.145117
-0.147261
-0.146342
-0.151246
-0.150133
-0.146916
-0.258125
-0.254276
-0.160779
-0.161794
-0.161562
-0.159814
-0.161285
-0.159005
-0.173735
-0.162077
-0.163474
-0.165426
-0.148549
-0.153595
-0.153466
-0.152894
-0.154111
-0.143903
-0.154134
-0.156841
-0.158291
-0.154045
-0.155159
-0.152595
-0.173477
-0.173655
-0.171293
-0.1732
-0.173017
-0.172612
-0.174219
-0.173308
-0.234454
-0.245871
-0.252918
-0.255204
-0.254751
-0.253133
-0.254091
-0.251509
-0.0935204
-0.0923881
-0.0906439
-0.0935798
-0.107089
-0.101564
-0.0964245
-0.138027
-0.136275
-0.132019
-0.134693
-0.136586
-0.137537
-0.142027
-0.145366
-0.138994
-0.141143
-0.139045
-0.139688
-0.139498
-0.12134
-0.119063
-0.118415
-0.132218
-0.126914
-0.130137
-0.132487
-0.135139
-0.126288
-0.129526
-0.127208
-0.1348
-0.13692
-0.115506
-0.123004
-0.116818
-0.1233
-0.150961
-0.142769
-0.145988
-0.137373
-0.139665
-0.146599
-0.0195853
-0.0197342
-0.0159362
-0.0255038
-0.0228556
-0.0223853
-0.00378204
-0.00161129
0.00184993
-0.0113274
-0.00626106
-0.00882372
-0.00291765
-0.0371601
-0.0362739
-0.0399354
-0.0382998
-0.0289052
-0.0294561
-0.0279132
-0.0352348
-0.0325409
-0.0308136
-0.0520908
-0.0549261
-0.0536006
-0.0468865
-0.056594
0.0569767
0.0603523
0.0314175
0.0291555
0.0262507
0.0300219
0.0294894
0.0310015
0.0303037
0.03121
0.063939
0.0599178
0.0265636
0.0361959
0.0284884
0.039933
0.0449752
0.0327736
0.0440863
0.0342651
0.0277735
0.0290557
0.0167537
0.0164821
0.0136347
0.0204288
0.0213829
0.0251793
0.0452112
0.0386991
0.0554005
0.0871046
0.0505227
0.0865124
0.0464827
0.0370452
0.0339499
0.00940911
0.0145521
0.00393353
-0.0032679
0.00156856
0.00344524
0.00497482
0.0180746
0.0077213
0.0256665
0.0453581
0.0545307
0.0876399
0.0754732
0.137358
0.0962443
0.0781367
0.0314559
0.0153498
0.0213347
-0.0195895
-0.0190093
-0.00983427
-0.0133178
-0.0233708
-0.00144031
-0.00899056
-0.00973484
0.00162024
0.00871725
0.0117748
0.026546
-0.055267
-0.0496684
-0.0229268
-0.0590017
-0.0427213
-0.0304005
-0.0280586
-0.0446546
-0.0300051
-0.0425347
-0.0515834
-0.0429712
-0.0795427
-0.0890461
-0.0806745
-0.149618
-0.116271
-0.0941464
-0.0881761
-0.0627721
-0.0540955
-0.0324226
-0.0467663
-0.0469511
-0.0565236
-0.0673096
-0.0662889
-0.11011
-0.121224
-0.120329
-0.172638
-0.136051
-0.133563
-0.0900409
-0.068052
-0.0675719
-0.0256683
-0.0322212
-0.0442364
-0.0469131
-0.0539906
-0.0595029
-0.0888689
-0.096329
-0.102011
-0.127686
-0.107409
-0.121037
-0.0683428
-0.057555
-0.0644374
-0.0131312
-0.0119017
-0.0271821
-0.0381843
-0.0394051
-0.046623
-0.061772
-0.0582272
-0.077124
-0.0383108
-0.038671
-0.0485609
-0.00133251
0.00401019
-0.00724016
-0.00586087
-0.0159997
-0.0263954
-0.0134734
-0.0202866
-0.0289719
0.0059659
0.009366
0.0063468
0.0142428
0.0251438
0.0237899
0.0312127
0.0422206
0.0458855
0.0595244
0.0652664
0.063439
0.0177946
0.00305436
-0.00557656
-0.00321416
-0.00764144
-0.0131983
0.00856868
0.011808
0.0111263
0.014902
0.0192132
0.0236687
0.0209104
0.0220118
0.0374958
0.021639
0.0168324
0.0222641
0.0139721
0.00715119
0.00407599
0.0025522
-0.00176098
-0.00412626
0.0124172
0.0153655
0.016832
0.0130244
0.0185118
0.0178628
0.0174322
0.0101648
0.0152275
0.0105415
0.00668838
0.00755651
-0.0711239
-0.0602049
-0.0532318
-0.106326
-0.119623
-0.14265
0.000729537
-0.0185019
-0.0234908
-0.118548
-0.115849
-0.104871
-0.18104
-0.201504
-0.207302
-0.149261
-0.167427
-0.145083
-0.107092
-0.111499
-0.102058
-0.17101
-0.190355
-0.179775
-0.208152
-0.209336
-0.187125
-0.053822
-0.0609337
-0.0578248
-0.107888
-0.116447
-0.101842
-0.175524
-0.161824
-0.150925
-0.0376713
-0.0362075
-0.0277365
-0.0931029
-0.0829813
-0.0809244
0.0436754
0.0317063
0.0183361
0.094644
0.0873566
0.0821002
0.0841004
0.0771436
0.0935146
-0.0195584
-0.0114752
-0.0148239
0.0645264
0.0892162
0.0517572
0.375176
0.33166
0.340059
0.0829647
0.101796
0.137802
0.370308
0.388161
0.0203679
0.0316467
0.018429
0.0692262
0.0798526
0.040586
-0.0328294
-0.0215243
-0.0181808
-0.026462
-0.0241521
-0.0384912
0.00555598
-0.00899329
-0.0157181
-0.0790568
-0.086283
-0.114923
0.053288
0.030152
0.0229453
-0.0869681
-0.0587078
-0.070218
-0.0541378
-0.0579901
-0.0737153
-0.0265522
-0.0418592
-0.0414415
-0.0633305
-0.0583964
-0.0482776
-0.0876532
-0.0698408
-0.0756181
-0.0511417
-0.0616619
-0.0830308
-0.102559
-0.096291
-0.0862972
-0.129231
-0.122514
-0.125556
-0.0987972
-0.10361
-0.109882
-0.200676
-0.20394
-0.197043
-0.133095
-0.120194
-0.156319
-0.095354
-0.109745
-0.116651
-0.0879674
-0.100132
-0.0875865
-0.0637388
-0.0664039
-0.0561061
-0.098546
-0.0785725
-0.0750326
-0.0789714
-0.0799359
-0.100055
-0.120088
-0.121131
-0.110076
-0.14904
-0.141724
-0.140575
-0.142116
-0.142853
-0.150408
-0.126196
-0.133249
-0.170191
-0.104492
-0.120299
-0.116127
-0.120689
-0.121904
-0.105683
-0.0403217
-0.0474789
-0.0417664
-0.0665844
-0.0542838
-0.0453229
-0.0695697
-0.0625219
-0.0722672
-0.0831585
-0.0899913
-0.083305
-0.109266
-0.0968787
-0.0861538
-0.119429
-0.116325
-0.121707
-0.166408
-0.164323
-0.161375
-0.0837707
-0.101047
-0.119639
-0.0822406
-0.0918248
-0.0813604
-0.109673
-0.101425
-0.0898443
-0.0692466
-0.0716783
-0.0629739
-0.107628
-0.104654
-0.10347
-0.0382502
-0.0493662
-0.0539941
-0.0470417
-0.0487075
-0.0384966
-0.0704238
-0.0593585
-0.0560055
0.0170262
0.0206928
0.0252376
-0.0114228
-0.00575655
-0.00763993
0.0339745
0.0402403
0.0313642
0.0515478
0.0436728
0.039885
0.0690373
0.0655817
0.0602806
0.0381645
0.0411027
0.0510265
0.0246045
0.0360759
0.029613
0.0391306
0.0372494
0.0233294
-0.095348
-0.0881503
-0.0937305
-0.0354032
-0.0579946
-0.0755807
-0.042489
-0.0478991
-0.0341621
-0.0651447
-0.0791385
-0.0638508
0.044063
0.048502
0.0672682
-0.0508397
-0.0379747
-0.0321644
-0.185298
-0.193203
-0.197265
-0.112725
-0.121239
-0.11606
-0.0821238
-0.100539
-0.0922605
-0.116862
-0.109101
-0.0958474
-0.167479
-0.160294
-0.170682
-0.147468
-0.140027
-0.141243
-0.128295
-0.130967
-0.137895
-0.101554
-0.112313
-0.107861
-0.141516
-0.144757
-0.142973
-0.158515
-0.157872
-0.1533
-0.141515
-0.13999
-0.136469
-0.189358
-0.1992
-0.176319
-0.235156
-0.226454
-0.223036
-0.198569
-0.18308
-0.175856
-0.221878
-0.219249
-0.229042
-0.154849
-0.172392
-0.185874
-0.130918
-0.125584
-0.122595
-0.139045
-0.13747
-0.143553
-0.105246
-0.115196
-0.11806
-0.150737
-0.15304
-0.154529
-0.133092
-0.134816
-0.132234
-0.155503
-0.15949
-0.15892
-0.156198
-0.157436
-0.153143
-0.202142
-0.193891
-0.176321
-0.203551
-0.207502
-0.212566
-0.186299
-0.208528
-0.204596
-0.0885241
-0.0912893
-0.100947
-0.0585727
-0.0626621
-0.0616413
-0.12766
-0.130495
-0.131525
-0.104178
-0.11149
-0.104489
-0.112875
-0.113407
-0.110515
-0.159219
-0.15706
-0.154712
-0.137137
-0.121812
-0.116928
-0.147138
-0.142443
-0.147982
-0.107593
-0.113315
-0.115312
-0.204292
-0.197089
-0.199983
-0.153745
-0.159751
-0.167159
-0.142924
-0.156857
-0.142245
-0.0147947
-0.0144316
-0.019194
0.0116555
0.00812528
0.00586557
-0.0481069
-0.0489456
-0.053874
-0.0235941
-0.0278039
-0.0276082
-0.0239438
-0.0231189
-0.0172127
-0.060045
-0.0527087
-0.0522864
-0.097568
-0.0961328
-0.101888
-0.0620611
-0.0773105
-0.0806262
-0.0718694
-0.0731539
-0.06363
0.0427715
0.0546084
0.0411217
0.0649248
0.057081
0.0445522
0.0153194
0.0174454
0.0146236
0.0382676
0.0545614
0.0594461
-0.0192257
-0.00364933
-0.00479984
-0.001299
-0.00241184