/*--------------------------------*- C++ -*----------------------------------*\
| =========                 |                                                 |
| \\      /  F ield         | OpenFOAM: The Open Source CFD Toolbox           |
|  \\    /   O peration     | Version:  5.x                                   |
|   \\  /    A nd           | Web:      www.OpenFOAM.org                      |
|    \\/     M anipulation  |                                                 |
\*---------------------------------------------------------------------------*/
FoamFile
{
    version     2.0;
    format      ascii;
    class       surfaceScalarField;
    location    "300";
    object      phi;
}
// * * * * * * * * * * * * * * * * * * * * * * * * * * * * * * * * * * * * * //

dimensions      [0 3 -1 0 0 0 0];

internalField   nonuniform List<scalar> 
13181
(
8.53138e-06
0.00915676
8.13033e-06
0.0091674
6.89815e-06
0.00916773
5.56296e-06
0.00916784
3.4723e-06
0.00916909
-4.12337e-06
0.0091741
-8.8787e-06
0.00917141
-9.62458e-06
0.00916745
-8.33951e-06
0.00916536
-3.36424e-06
0.00916167
5.79581e-06
0.00915754
1.73725e-05
0.00915507
2.80296e-05
0.00915599
3.4518e-05
0.00916021
3.57633e-05
0.0091654
3.2707e-05
0.00916971
2.69734e-05
0.00917243
1.99218e-05
0.0091737
8.62467e-06
0.0091778
-1.08679e-06
0.00917671
-1.36012e-05
0.00917901
-1.86845e-05
0.00917158
-1.96757e-05
0.00916799
0.00914528
1.2062e-05
0.00914162
3.47369e-05
0.00914473
3.48821e-05
0.00916759
3.41432e-05
0.00916857
2.78902e-05
0.00917534
8.47463e-06
0.00919351
-1.68235e-05
0.0091967
-2.48842e-05
0.00917551
-2.37328e-05
0.00916421
-1.40176e-05
0.00457588
0.00457608
4.53623e-06
0.00456944
0.00456954
2.89013e-05
0.00456515
0.00456556
5.13791e-05
0.00456627
0.00456724
6.49044e-05
0.00457276
0.00457393
6.72279e-05
0.00458097
0.00458212
5.31681e-05
0.00918377
3.14499e-05
0.00919415
9.79849e-06
0.00919535
-1.30156e-05
0.00920061
-2.09573e-05
0.00918465
-2.14944e-05
0.00917955
-2.24665e-05
0.00917256
-4.26377e-07
0.00914595
0.00914097
-4.30445e-06
0.00914091
-1.40864e-06
0.00914183
1.82464e-05
0.00914793
1.60558e-05
0.00917076
1.68434e-05
0.00917456
1.78619e-05
0.00919249
-1.52412e-05
0.00922981
-3.70615e-05
0.00919733
-1.94234e-05
0.00917078
-2.42016e-05
0.00457262
-1.61662e-05
0.00456407
-6.60241e-06
1.19758e-05
-5.35326e-07
0.00455691
8.76934e-06
-1.77787e-05
0.00455772
2.63368e-05
-3.37062e-05
0.00456718
3.9279e-05
-4.22634e-05
0.00458077
4.24552e-05
4.16355e-05
0.00460997
-3.2623e-05
-4.39846e-05
0.00460876
3.81729e-06
0.00923197
-8.65651e-06
0.00920783
-7.15063e-06
0.00919911
-8.44578e-06
0.00918595
-9.88214e-06
0.00918099
7.58647e-06
0.00915509
8.46805e-06
0.00914507
0.00914324
-1.03326e-05
0.00914436
-1.34752e-05
0.00914497
-1.41636e-05
0.00914862
-7.2157e-07
0.00915732
-5.61227e-06
0.00917945
-5.69463e-06
0.00919258
-1.04227e-05
0.00923453
-3.09432e-05
0.00921785
-3.53088e-05
0.00461543
-3.84064e-05
0.00459812
0.00456735
-3.15709e-05
-0.00457109
0.00454961
-1.87564e-05
-0.00455746
2.66048e-05
7.0271e-06
0.0045305
8.14175e-06
-0.00454567
-2.53069e-05
0.00452925
4.18245e-05
-0.00454577
-5.41725e-05
0.00456208
5.32544e-05
-0.00456116
-3.64656e-05
0.00461085
1.54951e-05
-0.00458988
-1.67833e-06
0.00461283
-1.17432e-06
3.14872e-05
0.0046122
-1.30114e-05
-1.69806e-06
0.00460299
2.52273e-05
0.00921409
1.71484e-05
0.00920718
6.58304e-06
0.00919651
1.81345e-05
0.00916944
1.74275e-05
0.00915579
1.21051e-05
0.00915039
0.0091471
-1.22946e-05
0.00914816
-1.7162e-05
0.00914984
-2.28664e-05
0.00915432
-2.51321e-05
0.00915959
-1.90621e-05
0.00917338
-2.29787e-05
0.00919649
9.75978e-06
0.0092018
1.92146e-05
0.00459066
6.96495e-06
0.00461077
0.00464287
-8.23019e-06
0.00457495
-3.45526e-05
-0.00456824
2.78461e-05
0.004547
-4.18239e-05
-0.00454293
3.7754e-05
2.55944e-05
1.35782e-06
-0.00451028
0.00224138
0.00224195
-3.45684e-05
6.7179e-05
-0.00450663
0.00223705
0.00223697
-7.80462e-05
4.24661e-05
-0.00457953
0.00230146
0.00231365
-5.32408e-05
0.00461068
5.47315e-05
-0.00461217
-4.65374e-05
0.00462024
4.68341e-05
-0.00462054
-4.49532e-05
0.00461318
4.39754e-05
5.10021e-05
0.0092415
-4.20758e-05
-3.63378e-05
3.14134e-05
0.00922677
3.35062e-05
0.00919442
2.81925e-05
0.00917475
2.00196e-05
0.00916397
1.41191e-05
0.00915629
0.0091515
-1.34475e-05
0.00915193
-1.85812e-05
0.00915497
-2.52378e-05
0.00916098
-3.45082e-05
0.00916886
-4.01629e-05
0.00917903
-4.36065e-05
0.00919994
-2.74921e-05
0.00922176
-3.60745e-05
0.00459985
-3.6688e-05
0.00460521
2.10608e-07
-0.00463709
3.16636e-05
0.00458178
1.89884e-05
-0.00458434
-1.6431e-05
-0.00228265
7.96092e-08
0.00228786
-5.29078e-06
-0.00222844
1.46076e-05
0.00223017
-1.63376e-05
-0.00221365
-2.15943e-05
0.0022005
3.4745e-05
-0.00229072
-2.87482e-05
0.00226231
5.71631e-05
-4.18449e-05
0.000105066
-0.00461748
-4.57884e-05
0.00229578
0.00230427
-0.000101232
0.00463593
8.70734e-05
-0.00462177
-7.13134e-05
-0.0046234
0.00463678
5.79363e-05
6.51862e-05
0.00927729
-5.26912e-05
-4.82868e-05
5.20973e-05
0.00923986
4.09905e-05
0.00920553
2.90356e-05
0.0091867
2.08785e-05
0.00917212
1.46814e-05
0.00916249
0.00915581
-1.41108e-05
0.00915575
-1.9434e-05
0.0091603
-2.57609e-05
0.00916731
-3.43982e-05
0.0091775
-4.68481e-05
0.00919148
-5.88228e-05
0.00921191
-3.86661e-05
0.00924029
-3.86879e-05
-0.004609
0.00461896
-4.86255e-05
-0.00460705
0.00462237
-7.64523e-05
6.11274e-05
-0.0045927
0.00461757
9.616e-05
-5.71447e-05
-6.38875e-05
-0.00227557
5.84417e-05
0.00227656
-5.94368e-05
-0.00111081
2.02982e-05
0.00110675
-1.62393e-05
-1.3058e-05
-0.00105574
0.00105007
1.87254e-05
-4.77234e-05
-0.00228101
9.34558e-05
-3.40748e-05
0.00112166
0.00114769
-0.000105393
-0.00231019
0.00232241
9.31647e-05
-0.000139853
-0.0046597
0.00468858
0.00011097
-8.7559e-05
-0.00465218
0.00467115
6.85877e-05
7.48563e-05
0.00930803
-5.24116e-05
-5.31885e-05
5.57797e-05
0.00925894
3.79315e-05
0.00922338
2.60901e-05
0.00919855
1.81451e-05
0.00918007
1.25584e-05
0.00916808
0.00915838
-1.32171e-05
0.00915873
-1.81303e-05
0.00916521
-2.37701e-05
0.00917295
-3.23803e-05
0.00918611
-4.38554e-05
0.00920296
-6.05095e-05
0.00922856
-3.73308e-05
0.0092593
-4.21877e-05
-0.00462954
0.00464067
-4.84604e-05
-0.00464214
0.00466154
-8.25211e-05
6.31207e-05
-0.00465229
0.00469068
0.000109436
-7.24167e-05
-7.54114e-05
-0.00231251
0.000100978
0.0023331
-0.000121574
-0.00112511
0.000106314
0.00113885
-0.000120059
-0.000144854
-0.00116017
0.00117421
0.000130809
-0.000146579
-0.00236854
0.00239043
0.000124696
-0.000162187
-0.00472637
0.00476331
0.000125246
-9.77373e-05
-0.00469378
0.00471376
7.77552e-05
7.05287e-05
0.00935364
-5.49107e-05
-6.12213e-05
4.14821e-05
0.00928798
2.77933e-05
0.00923706
1.86849e-05
0.00920765
1.32776e-05
0.00918548
1.02235e-05
0.00917113
0.00916013
-1.18666e-05
0.00916108
-1.48488e-05
0.00916819
-1.90305e-05
0.00917713
-2.4268e-05
0.00919134
-3.15001e-05
0.00921019
-4.16744e-05
0.00923874
-3.1978e-05
0.00927568
-2.60838e-05
-0.00464379
0.00465283
-4.10169e-05
-0.00468436
0.00469956
-7.17295e-05
5.65356e-05
-0.00472823
0.00475575
9.13475e-05
-6.25663e-05
-5.63042e-05
-0.00239266
8.76086e-05
0.00240831
-0.000103259
-0.00122812
9.09783e-05
0.00123689
-9.97476e-05
-0.000120445
-0.00127555
0.00128629
0.000109701
-0.000111333
-0.00245125
0.0024689
9.36884e-05
-0.000111529
-0.00479776
0.00482352
8.5769e-05
-6.59424e-05
-0.00473148
0.00474473
5.26986e-05
5.05268e-05
0.00937302
-2.9365e-05
-4.05416e-05
2.58683e-05
0.00931264
1.24017e-05
0.00925053
8.41906e-06
0.00921164
6.15685e-06
0.00918774
4.87661e-06
0.00917241
0.00915914
-9.3312e-06
0.00916219
-1.16062e-05
0.00917047
-1.3412e-05
0.00917894
-1.60561e-05
0.00919399
-1.78143e-05
0.00921195
-1.99168e-05
0.00924084
-1.43481e-05
0.00927754
-7.42717e-06
-0.00466079
0.00466874
-2.22933e-05
-0.00470912
0.00471267
-2.91835e-05
2.56334e-05
-0.00477197
0.00477535
3.2305e-05
-2.2061e-05
-1.36296e-05
-0.00243694
2.85371e-05
0.0024396
-3.1192e-05
-0.00126981
2.33138e-05
0.00127078
-2.42835e-05
-2.26954e-05
-0.00132686
0.00132787
2.16876e-05
-2.46686e-05
-0.00249964
0.00250239
2.19206e-05
-2.16078e-05
-0.00483811
0.00484015
1.95675e-05
-1.7759e-05
-0.00475313
0.00475577
1.51163e-05
1.53406e-05
0.00937012
-9.60543e-07
-1.14874e-05
1.72403e-05
0.00931074
5.88012e-07
0.00926718
-4.34373e-06
0.00921657
-1.88699e-06
0.00918528
-5.04516e-07
0.00917103
0.00915626
-7.00477e-06
0.00916264
-7.59066e-06
0.00917105
-7.59234e-06
0.00917894
-6.25881e-06
0.00919265
-4.84421e-06
0.00921053
1.26467e-06
0.00923473
2.74549e-06
0.00926943
6.63057e-06
-0.00467125
0.00467172
2.27853e-06
-0.00471033
0.00470257
1.49494e-05
-7.19242e-06
-0.00476656
0.00474838
-2.74245e-05
1.91846e-05
2.6411e-05
-0.00242812
-3.09075e-05
0.00241898
4.00482e-05
-0.00125238
-4.04862e-05
0.00124685
4.60236e-05
6.78904e-05
-0.00130085
0.00129326
-6.03029e-05
6.04209e-05
-0.0024874
0.00247668
-4.96995e-05
6.44044e-05
-0.00483049
0.00481181
-4.57218e-05
3.07038e-05
-0.00475174
0.00474273
-2.16934e-05
-1.92941e-05
0.00934928
2.37476e-05
1.63879e-05
-4.97309e-06
0.00929642
3.05809e-06
0.00925915
-1.67439e-05
0.00923637
-1.12462e-05
0.00917978
-6.28755e-06
0.00916607
0.00915168
-4.28871e-06
0.00916217
-2.98875e-06
0.00916975
-1.19289e-06
0.00917714
2.22063e-06
0.00918924
8.77284e-06
0.00920398
2.04778e-05
0.00922303
1.50222e-05
0.00925653
1.83592e-05
-0.00466595
0.00465965
2.13194e-05
-0.00469128
0.00467801
4.42713e-05
-3.09972e-05
-0.0047237
0.00469685
-6.32825e-05
4.40161e-05
4.61123e-05
-0.00238281
-6.38953e-05
0.00236959
7.7116e-05
-0.00119852
-6.83681e-05
0.00119154
7.53515e-05
0.000104742
-0.00123239
0.00122385
-9.62018e-05
0.000105679
-0.00243248
0.00241634
-8.95333e-05
0.000116718
-0.00478461
0.00475273
-8.48361e-05
6.33971e-05
-0.00472943
0.00471398
-4.79504e-05
-4.20884e-05
0.00931548
3.95542e-05
3.63397e-05
-2.14465e-05
0.00927578
-7.75407e-06
0.00924546
-1.41284e-06
0.00923003
-1.93413e-05
0.00919771
-1.23293e-05
0.00915906
0.00914529
-2.00829e-06
0.00916113
1.9169e-07
0.00916755
3.03626e-06
0.0091743
8.29126e-06
0.00918399
1.58912e-05
0.00919638
2.90233e-05
0.0092099
2.3178e-05
0.00923833
2.40379e-05
-0.00465165
0.00464383
3.10001e-05
-0.00466398
0.00465083
5.35177e-05
-4.03696e-05
-0.0046703
0.00464716
-7.08535e-05
4.78623e-05
4.61278e-05
-0.00233243
-6.54783e-05
0.00232209
7.58113e-05
-0.00114833
-6.08803e-05
0.00114397
6.52466e-05
9.52164e-05
-0.00116578
0.0011584
-8.78408e-05
0.000104014
-0.00236979
0.00235649
-9.07086e-05
0.000120776
-0.00471823
0.00469004
-9.25823e-05
7.17079e-05
-0.00469824
0.0046832
-5.66606e-05
-5.03407e-05
0.00928126
4.19732e-05
4.25869e-05
-2.82354e-05
0.00925368
-1.29707e-05
0.0092302
-1.05881e-05
0.00922765
-2.24026e-05
0.00920953
-1.76229e-05
0.00915428
0.00913767
1.59872e-07
0.00915934
2.24469e-06
0.00916547
5.89963e-06
0.00917064
1.08365e-05
0.00917905
1.82229e-05
0.00918899
2.89159e-05
0.0091992
4.29158e-05
0.00922434
3.707e-05
0.00925508
2.80624e-05
-0.00463687
-0.00464042
-0.00463979
0.00463223
4.46319e-05
-0.00462894
0.00463523
4.07334e-05
-4.70256e-05
-0.00230716
-8.81564e-06
0.0023323
-1.63284e-05
-0.00114996
3.38091e-05
0.00113148
-1.53244e-05
-0.000304951
6.30082e-06
0.00031448
-1.58299e-05
3.327e-05
-0.00112874
0.00227021
-6.97037e-05
2.83102e-05
-0.00113335
-0.00232849
7.10296e-05
0.00232458
-6.7119e-05
8.91614e-05
-0.00466872
0.00465279
-7.32285e-05
5.96592e-05
-0.00467216
0.00466875
-5.62481e-05
-4.61138e-05
0.00925608
3.32933e-05
3.79985e-05
-2.73007e-05
0.00923486
-1.37395e-05
0.00921663
-2.57148e-05
0.00923962
9.88477e-07
0.00918282
-1.93616e-05
0.00917463
0.00913191
6.71595e-07
0.00915813
2.70944e-06
0.00916343
5.596e-06
0.00916776
9.40948e-06
0.00917524
1.54838e-05
0.00918292
2.14823e-05
0.0091932
1.64188e-05
0.0092294
-4.83461e-06
0.00930321
-2.68798e-05
-0.00464142
0.00465897
-2.2383e-05
-0.00464495
0.00462447
2.28489e-07
2.02466e-05
-0.00229775
-1.8548e-05
0.00229369
2.26107e-05
-0.00226103
-1.44989e-05
0.00226745
8.08028e-06
-0.000857022
2.52391e-05
0.0018163
-5.16181e-05
-0.000932901
-0.00229944
6.00524e-05
0.00229397
-5.4583e-05
-0.0046237
6.71124e-05
0.0046353
-0.00012233
4.36143e-05
0.000114219
-0.00464446
0.00463334
-0.000103099
-0.000126687
0.00925095
6.29576e-05
9.46638e-05
-0.00468479
-0.00459709
-0.000100419
0.00922981
-8.05634e-05
0.00921501
-6.25575e-05
0.00919863
-8.28292e-06
0.00918535
1.18535e-06
0.00917336
8.55615e-06
0.00916726
0.00915704
1.09368e-06
0.0091572
2.27846e-06
0.00916225
4.0388e-06
0.009166
6.81315e-06
0.00917246
9.59512e-06
0.00918014
8.62729e-06
0.00919417
-1.46319e-05
0.00925266
-2.70098e-05
0.00930455
1.10437e-05
-0.00465514
0.00462583
2.30081e-06
-0.0046113
0.00461026
1.89726e-05
-1.79312e-05
-0.00459333
0.00460099
8.47401e-06
-1.61422e-05
-0.00228226
1.11311e-07
0.00228564
-3.49349e-06
-0.00187127
1.77727e-05
0.00189203
-3.85305e-05
-0.00229338
3.69494e-05
0.00459814
-8.29372e-05
-0.00229435
3.55668e-05
-0.00462705
9.30872e-05
0.00462109
-8.71314e-05
-0.00462664
8.28531e-05
0.00462095
-7.71632e-05
-9.30267e-05
0.00921531
5.99247e-05
6.87344e-05
-6.48701e-05
0.00920166
-5.50903e-05
0.00920523
-4.97717e-05
0.00919331
-4.39987e-05
0.00917958
-3.71662e-05
0.00916652
-2.74665e-05
0.00915756
0.00914845
5.34819e-07
0.00915717
1.69809e-06
0.00916108
2.67289e-06
0.00916502
3.78562e-06
0.00917135
4.25874e-06
0.00917966
-5.95341e-06
0.00920438
-2.15043e-05
0.00926821
1.02827e-05
0.00927276
7.13081e-06
0.00924167
-0.00462415
-0.00461805
3.67704e-06
-0.00461223
0.00461295
6.40737e-06
-0.00460752
0.00461298
-2.00925e-06
-3.45917e-06
-0.00458388
9.8457e-06
0.0045873
-1.32591e-05
-0.00405044
3.03241e-05
0.00407546
-5.53454e-05
-0.00460777
5.83806e-05
0.00461178
-6.23957e-05
-0.00461614
6.23792e-05
0.00461369
-5.99326e-05
-0.00461723
5.87717e-05
0.00461452
-5.60627e-05
-9.09317e-05
0.0092046
4.95817e-05
5.20633e-05
-7.55711e-05
0.0091863
-5.94287e-05
0.00918908
-4.26361e-05
0.00917652
-2.76151e-05
0.00916455
-2.14044e-05
0.00916031
-1.96672e-05
0.00915582
0.00914935
1.23566e-07
0.00915759
2.01034e-07
0.00916101
-1.25641e-07
0.00916535
-8.91275e-08
0.00917131
-3.66104e-06
0.00918324
-2.49407e-05
0.00922566
-2.34643e-05
0.00926673
-4.64124e-07
0.00924976
-5.22134e-06
0.00924643
-5.58189e-06
0.00923765
-0.00461433
-0.00461422
-8.7427e-06
-0.00461787
0.00462193
-9.64841e-06
-0.00458596
1.71869e-05
0.00457322
-4.44819e-06
-0.00409916
2.71471e-05
0.0041289
-5.68937e-05
-0.00461599
4.10725e-05
0.00461991
-4.49947e-05
-8.76236e-05
0.00922275
-0.00461317
-0.00461085
4.28684e-05
4.60186e-05
-8.52974e-05
0.00922097
-0.00461248
-0.00461082
-7.80554e-05
0.00919736
-7.17135e-05
0.00917995
-5.76113e-05
0.00917498
-4.54012e-05
0.00916431
-3.51625e-05
0.00915432
-2.68298e-05
0.00915198
-1.49938e-05
0.00914398
0.00915597
-5.28288e-07
0.00915848
-1.52075e-06
0.009162
-2.06889e-06
0.0091659
-2.92859e-06
0.00917217
-5.66862e-06
0.00918598
-2.17364e-05
0.00924173
-1.29887e-05
0.00925798
-3.76612e-06
0.00924054
-1.08739e-05
0.00925354
-1.98776e-05
0.00924665
-2.60904e-05
0.00925713
-0.00462891
-0.00462201
-4.99423e-05
0.00879991
-0.00452067
-0.00425539
-7.43931e-05
0.00870988
-0.00419214
-0.00449329
-7.42843e-05
0.00925336
-0.00462551
-0.00462795
-7.38877e-05
0.00922236
-7.28354e-05
0.00921992
-6.77141e-05
0.00919224
-6.27983e-05
0.00917504
-5.27631e-05
0.00916495
-4.42206e-05
0.00915576
-3.80975e-05
0.00914819
-2.80957e-05
0.00914198
-1.97406e-05
0.00913563
0.00915839
-1.33222e-06
0.00915977
-2.33304e-06
0.009163
-3.99412e-06
0.00916756
-5.55983e-06
0.00917374
-8.65241e-06
0.00918907
-1.75399e-05
0.00925062
-1.25706e-05
0.00925302
-9.10718e-06
0.00923707
-1.43946e-05
0.00925882
-2.2508e-05
0.00925477
-2.8083e-05
0.0092627
-4.25172e-05
0.00881434
-5.68173e-05
0.00872418
-6.00521e-05
0.00925659
-6.30844e-05
0.00922539
-6.27059e-05
0.00921954
-5.93967e-05
0.00918893
-5.54501e-05
0.00917109
-4.83273e-05
0.00915782
-4.1516e-05
0.00914895
-3.53119e-05
0.00914199
-2.79805e-05
0.00913465
-2.10966e-05
0.00912875
0.00915961
-2.2252e-06
0.00916143
-4.16011e-06
0.00916493
-6.31294e-06
0.00916971
-8.41637e-06
0.00917584
-1.05972e-05
0.00919125
-1.35201e-05
0.00925354
-1.28689e-05
0.00925236
-1.27604e-05
0.00923697
-1.72869e-05
0.00926335
-2.45176e-05
0.009262
-2.81558e-05
0.00926634
-3.82521e-05
0.00882444
-4.81951e-05
0.00873412
-5.05737e-05
0.00925897
-5.44665e-05
0.00922928
-5.43776e-05
0.00921945
-5.22836e-05
0.00918684
-4.95966e-05
0.0091684
-4.44325e-05
0.00915266
-3.89802e-05
0.0091435
-3.34725e-05
0.00913648
-2.71713e-05
0.00912835
-2.11854e-05
0.00912276
0.00916058
-3.16492e-06
0.0091634
-5.44883e-06
0.00916722
-7.47551e-06
0.00917174
-9.97261e-06
0.00917834
-1.25391e-05
0.00919382
-1.33033e-05
0.00925431
-1.482e-05
0.00925388
-1.84937e-05
0.00924064
-1.9212e-05
0.00926407
-2.53634e-05
0.00926815
-2.83411e-05
0.00926932
-3.50459e-05
0.00883114
-4.16698e-05
0.00874074
-4.41363e-05
0.00926144
-4.75436e-05
0.00923269
-4.76332e-05
0.00921954
-4.64416e-05
0.00918564
-4.47143e-05
0.00916668
-4.01496e-05
0.0091481
-3.67436e-05
0.00914009
-3.1218e-05
0.00913096
-2.62931e-05
0.00912342
-2.15982e-05
0.00911807
0.00916073
-4.62683e-06
0.00916609
-6.17574e-06
0.00916877
-8.97624e-06
0.00917454
-1.12468e-05
0.00918061
-1.40403e-05
0.00919661
-1.50047e-05
0.00925527
-1.67164e-05
0.00925559
-2.02666e-05
0.00924419
-2.0388e-05
0.00926419
-2.55787e-05
0.00927334
-2.80337e-05
0.00927177
-3.24824e-05
0.00883559
-3.67918e-05
0.00874505
-3.90737e-05
0.00926372
-4.20196e-05
0.00923564
-4.2152e-05
0.00921968
-4.14575e-05
0.00918495
-3.97214e-05
0.00916494
-3.69705e-05
0.00914534
-3.38675e-05
0.00913699
-2.91235e-05
0.00912621
-2.4927e-05
0.00911922
-2.04179e-05
0.00911356
0.00916147
-5.09213e-06
0.00916846
-7.83886e-06
0.00917151
-1.03205e-05
0.00917702
-1.27745e-05
0.00918306
-1.568e-05
0.00919952
-1.6236e-05
0.00925583
-1.80664e-05
0.00925742
-2.13997e-05
0.00924752
-2.35965e-05
0.00926639
-2.55962e-05
0.00927534
-2.74651e-05
0.00927364
-3.03919e-05
0.00883852
-3.31037e-05
0.00874776
-3.51004e-05
0.00926571
-3.75714e-05
0.00923811
-3.77172e-05
0.00921982
-3.72987e-05
0.00918453
-3.60063e-05
0.00916365
-3.33547e-05
0.00914269
-3.08468e-05
0.00913448
-2.77249e-05
0.00912309
-2.41132e-05
0.00911561
-2.06772e-05
0.00911012
0.00916123
-6.05881e-06
0.00917094
-8.43474e-06
0.00917389
-1.15283e-05
0.00918011
-1.4093e-05
0.00918563
-1.65289e-05
0.00920195
-1.71053e-05
0.0092564
-1.90718e-05
0.00925939
-2.21427e-05
0.00925059
-2.50879e-05
0.00926933
-2.53558e-05
0.00927561
-2.68117e-05
0.0092751
-2.84512e-05
0.00884016
-3.02777e-05
0.00874959
-3.16517e-05
0.00926709
-3.39069e-05
0.00924036
-3.40439e-05
0.00921996
-3.38959e-05
0.00918438
-3.2954e-05
0.00916271
-3.12315e-05
0.00914097
-2.91661e-05
0.00913242
-2.55402e-05
0.00911946
-2.23943e-05
0.00911247
-1.94253e-05
0.00910715
0.00916139
-7.02291e-06
0.00917348
-9.47473e-06
0.00917634
-1.21166e-05
0.00918275
-1.47366e-05
0.00918825
-1.76557e-05
0.00920487
-1.8206e-05
0.00925695
-1.97449e-05
0.00926093
-2.25929e-05
0.00925344
-2.52557e-05
0.00927199
-3.08669e-05
0.00928122
-3.03802e-05
0.00927461
-3.06118e-05
0.00884039
-3.06815e-05
0.00874966
-3.17651e-05
0.00926817
-3.32117e-05
0.00924181
-3.32646e-05
0.00922001
-3.33872e-05
0.0091845
-3.29423e-05
0.00916226
-3.25255e-05
0.00914055
-2.82921e-05
0.00912818
-2.50534e-05
0.00911623
-2.17682e-05
0.00910918
-1.86757e-05
0.00910406
0.00916138
-7.98386e-06
0.00917603
-1.04653e-05
0.00917882
-1.26102e-05
0.0091849
-1.57465e-05
0.00919138
-1.81084e-05
0.00920723
-1.9106e-05
0.00925795
-2.02772e-05
0.0092621
-2.29065e-05
0.00925607
-2.78169e-05
0.0092769
-3.25852e-05
0.00928599
-3.33205e-05
0.00927535
-3.37987e-05
0.00884087
-3.42646e-05
0.00875013
-3.55247e-05
0.00926943
-3.68301e-05
0.00924311
-3.67924e-05
0.00921997
-3.66661e-05
0.00918438
-3.54085e-05
0.009161
-3.42071e-05
0.00913935
-3.26628e-05
0.00912664
-3.01935e-05
0.00911376
-2.81586e-05
0.00910715
-2.53517e-05
0.00910125
0.00915367
-8.93865e-06
0.00917855
-1.14128e-05
0.0091813
-1.40286e-05
0.00918751
-1.61448e-05
0.0091935
-1.84327e-05
0.00920952
-1.93599e-05
0.00925888
-2.07332e-05
0.00926347
-2.5581e-05
0.00926092
-2.9821e-05
0.00928114
-3.24444e-05
0.00928861
-3.28149e-05
0.00927572
-3.28841e-05
0.00884093
-3.28572e-05
0.0087501
-3.37556e-05
0.00927033
-3.48203e-05
0.00924418
-3.47548e-05
0.00921991
-3.4601e-05
0.00918422
-3.38373e-05
0.00916024
-3.2281e-05
0.0091378
-3.08808e-05
0.00912524
-2.91129e-05
0.00911199
-2.67652e-05
0.0091048
-2.46611e-05
0.00909915
0.00914564
-9.88428e-06
0.009181
-1.18181e-05
0.00918323
-1.43743e-05
0.00919007
-1.64559e-05
0.00919558
-1.91602e-05
0.00921222
-2.00154e-05
0.00925973
-2.34688e-05
0.00926693
-2.82005e-05
0.00926565
-3.00624e-05
0.00928301
-3.22836e-05
0.00929083
-3.25452e-05
0.00927598
-3.22002e-05
0.00884059
-3.17453e-05
0.00874964
-3.24732e-05
0.00927106
-3.32947e-05
0.009245
-3.31429e-05
0.00921976
-3.29331e-05
0.00918402
-3.21303e-05
0.00915944
-3.11535e-05
0.00913682
-2.93409e-05
0.00912343
-2.72198e-05
0.00910987
-2.59796e-05
0.00910356
-2.35214e-05
0.00909669
0.00913771
-1.03108e-05
0.00918286
-1.31867e-05
0.00918611
-1.51588e-05
0.00919204
-1.76973e-05
0.00919812
-1.93096e-05
0.00921384
-2.31142e-05
0.00926354
-2.69069e-05
0.00927072
-2.85914e-05
0.00926734
-3.0328e-05
0.00928474
-3.23281e-05
0.00929283
-3.23275e-05
0.00927598
-3.17409e-05
0.00884
-3.08954e-05
0.0087488
-3.14201e-05
0.00927158
-3.21346e-05
0.00924572
-3.18361e-05
0.00921946
-3.16064e-05
0.00918379
-3.0733e-05
0.00915856
-2.9801e-05
0.00913589
-2.8026e-05
0.00912165
-2.64924e-05
0.00910833
-2.43168e-05
0.00910138
-2.24386e-05
0.00909481
0.00912982
-1.17114e-05
0.00918508
-1.35025e-05
0.0091879
-1.53772e-05
0.00919392
-1.78667e-05
0.00920061
-2.29167e-05
0.00921889
-2.91802e-05
0.0092698
-2.73469e-05
0.00926889
-2.89389e-05
0.00926893
-3.05419e-05
0.00928635
-3.24442e-05
0.00929473
-3.23774e-05
0.00927591
-3.15041e-05
0.00883913
-3.04341e-05
0.00874773
-3.07688e-05
0.00927192
-3.11951e-05
0.00924614
-3.08903e-05
0.00921915
-3.05844e-05
0.00918348
-2.96133e-05
0.00915759
-2.81984e-05
0.00913447
-2.74151e-05
0.00912087
-2.54365e-05
0.00910635
-2.37675e-05
0.00909971
-2.19249e-05
0.00909297
0.00912142
-1.2058e-05
0.00918664
-1.42623e-05
0.0091901
-1.65238e-05
0.00919618
-1.79655e-05
0.00920205
-3.29946e-05
0.00923392
-2.9162e-05
0.00926597
-2.78121e-05
0.00926754
-2.93644e-05
0.00927048
-3.09234e-05
0.00928791
-3.27016e-05
0.00929651
-3.257e-05
0.00927578
-3.14942e-05
0.00883805
-3.01589e-05
0.00874639
-3.03432e-05
0.0092721
-3.06496e-05
0.00924645
-3.01636e-05
0.00921867
-2.97802e-05
0.0091831
-2.87369e-05
0.00915655
-2.78204e-05
0.00913356
-2.60062e-05
0.00911906
-2.50486e-05
0.0091054
-2.28487e-05
0.00909751
-2.10052e-05
0.00909113
0.00911295
-1.33283e-05
0.00918851
-1.44425e-05
0.00919122
-1.65739e-05
0.00919831
-2.70533e-05
0.00921253
-3.39316e-05
0.00924079
-3.01115e-05
0.00926215
-2.81887e-05
0.00926561
-2.97691e-05
0.00927206
-3.13183e-05
0.00928945
-3.31297e-05
0.00929832
-3.2951e-05
0.0092756
-3.1732e-05
0.00883684
-3.02788e-05
0.00874494
-3.01758e-05
0.009272
-3.03168e-05
0.00924659
-2.97204e-05
0.00921807
-2.92745e-05
0.00918265
-2.80744e-05
0.00915535
-2.71676e-05
0.00913265
-2.57769e-05
0.00911766
-2.3848e-05
0.00910347
-2.2071e-05
0.00909574
-1.971e-05
0.00908876
0.00910485
-1.3477e-05
0.00918964
-1.55311e-05
0.00919327
-1.70104e-05
0.00919979
-3.00281e-05
0.00922555
-3.32608e-05
0.00924403
-3.00117e-05
0.0092589
-2.85595e-05
0.00926416
-3.02004e-05
0.0092737
-3.17649e-05
0.00929102
-3.37365e-05
0.00930029
-3.37177e-05
0.00927558
-3.22483e-05
0.00883537
-3.06768e-05
0.00874337
-3.02511e-05
0.00927157
-3.0228e-05
0.00924657
-2.94167e-05
0.00921726
-2.89441e-05
0.00918218
-2.75932e-05
0.009154
-2.67287e-05
0.00913178
-2.52229e-05
0.00911616
-2.38321e-05
0.00910208
-2.14453e-05
0.00909335
-1.9556e-05
0.00908687
0.00909608
-1.39163e-05
0.00919051
-1.5489e-05
0.00919484
-1.67537e-05
0.00920105
-2.68918e-05
0.00923569
-3.19163e-05
0.00924905
-3.08943e-05
0.00925788
-2.87424e-05
0.00926201
-3.07113e-05
0.00927567
-3.22468e-05
0.00929255
-3.46557e-05
0.0093027
-3.49833e-05
0.00927591
-3.31373e-05
0.00883352
-3.14664e-05
0.0087417
-3.05636e-05
0.00927067
-3.04105e-05
0.00924641
-2.92179e-05
0.00921607
-2.89106e-05
0.00918187
-2.77437e-05
0.00915283
-2.65463e-05
0.00913059
-2.48271e-05
0.00911444
-2.30733e-05
0.00910032
-2.14911e-05
0.00909177
-1.91452e-05
0.00908453
0.00908708
-1.4695e-05
-1.63192e-05
-1.6873e-05
-2.21479e-05
-2.49336e-05
-3.12129e-05
-2.89007e-05
-3.11207e-05
-3.25418e-05
-3.55652e-05
-3.653e-05
-3.43632e-05
-3.2707e-05
-3.10523e-05
-3.0622e-05
-2.91284e-05
-2.89496e-05
-2.70159e-05
-2.65075e-05
-2.45686e-05
-2.34648e-05
-2.07037e-05
-1.94078e-05
9.81928e-05
-0.000107974
-0.00121834
0.00128225
0.000129926
-0.00126866
-7.0573e-05
-7.29383e-05
-0.00115039
-0.000160494
0.00116603
3.24403e-05
-3.42221e-05
-0.00126803
0.00133692
3.58199e-05
-0.00133507
-1.74996e-05
-2.01612e-05
0.0012941
-6.50944e-05
-6.72026e-05
-3.38731e-05
3.88708e-05
-0.00125738
0.00130577
-5.91823e-05
-0.00131304
3.42159e-05
3.224e-05
0.00133729
-1.02295e-05
-1.2842e-05
-6.716e-05
7.42053e-05
-0.00120557
0.00123254
-0.000103542
-0.00124232
0.000113318
0.00129785
3.87914e-05
3.70105e-05
-6.30627e-05
6.83484e-05
-0.00115362
0.00115945
-9.85326e-05
-0.00116782
0.000106903
0.000114965
0.00122232
3.58097e-05
-5.04666e-05
-0.0011353
-6.74858e-06
0.000347205
-3.9209e-06
-0.000177441
-0.000159095
-2.08565e-05
-0.000128375
-0.000162469
0.00112098
-5.13744e-05
-0.00111973
5.0125e-05
0.000101999
0.00115267
9.99754e-05
-0.000110443
-0.00111464
-0.00104909
-5.79336e-07
0.00103661
0.000134332
-0.00113702
-0.000147706
-0.00111183
-5.35556e-05
0.00111766
9.77033e-05
-0.000116453
-0.00237391
0.00122319
-0.00121446
8.94594e-05
-0.00113692
9.56315e-05
0.0011476
0.000309773
0.000123929
-0.000611616
0.000311043
-6.57913e-05
-6.73371e-05
0.000112895
-0.000538274
-0.000122651
0.00054803
0.00011782
-0.00126344
0.00246614
0.000127551
-0.00244205
-0.000151643
-0.002363
-0.000172625
0.00238905
4.49479e-05
-5.10119e-05
-0.00243088
0.00126224
-0.00126053
3.07209e-05
8.28892e-05
0.00123128
0.00125675
6.75902e-05
-7.3163e-05
-0.00125118
0.000642327
-2.30598e-05
-0.000640666
4.32879e-05
-2.18885e-05
-0.00062878
-6.60846e-05
6.35897e-05
0.000631275
0.000328225
8.93647e-06
-0.000336682
-4.79406e-07
-0.000330938
5.07672e-05
-5.58583e-05
0.000336029
3.36021e-05
-0.00132464
0.00252265
4.84782e-05
-0.0025158
-5.53326e-05
-0.000132496
0.00248731
-1.77063e-05
2.46753e-05
-0.00243509
0.00124778
-0.0012522
-2.94567e-05
2.21393e-05
0.00126342
0.00126808
-3.16745e-06
4.85713e-06
-0.00126977
0.000659502
7.26085e-06
-0.000660661
-7.64145e-06
1.53975e-06
-0.000657084
-8.51766e-06
1.46583e-05
0.000656988
-6.04488e-06
0.000304689
-7.57951e-07
-0.000304327
3.9572e-07
-0.000306904
-4.8713e-07
0.000307233
1.58765e-07
-5.21647e-05
-0.00130787
0.00250355
-4.13365e-05
-0.00251455
5.23339e-05
-2.67284e-05
0.00252471
-5.89526e-05
7.18994e-05
-0.00239575
0.0011992
-0.00120574
-6.06206e-05
-3.56166e-05
0.00124291
0.00122708
-5.62751e-05
6.33046e-05
-0.00123411
4.70491e-05
0.000618727
-0.000621686
-4.40901e-05
-0.000639898
1.70071e-05
-3.14926e-05
0.000636693
1.769e-05
0.000330743
-4.21143e-05
-0.000339155
5.05269e-05
-0.000315434
-9.67359e-06
2.50357e-06
0.000322604
-9.41051e-05
-0.00124183
0.00243634
-9.7422e-05
-0.00245547
0.000116556
7.41521e-05
0.00248982
0.000574605
-7.40628e-05
-0.000576875
3.84786e-05
3.7854e-05
-0.00030037
-3.72969e-05
3.80756e-05
0.000299591
-9.08861e-05
-0.00117342
0.00236299
-0.000107941
-0.00238004
0.000124989
0.000124634
0.00241738
0.000533776
-5.33002e-05
-0.000535768
5.52925e-05
-0.000553024
-6.64421e-05
6.90456e-05
0.00055042
-2.15484e-05
1.43054e-05
-0.00225378
-1.35483e-05
0.000890197
-0.000870249
-6.39978e-06
-1.73163e-06
0.000355238
-3.51784e-05
-0.000835392
-6.57363e-05
0.0022901
-0.00229901
7.46499e-05
2.88367e-05
0.00112542
-6.74724e-05
-0.000627375
6.60673e-05
-9.09025e-05
-0.000597338
8.52707e-05
0.000602969
-0.00118224
0.000113006
0.0011951
-0.000125861
-0.000598382
0.000604862
-4.90565e-05
-4.83262e-05
0.00062979
-0.000631175
-3.3329e-05
-3.27586e-05
8.64457e-05
-0.00053596
0.000543126
-9.36119e-05
9.29363e-05
-9.87814e-05
-0.000592537
4.50598e-05
-0.000333057
-4.29416e-05
6.16977e-05
-6.35146e-05
0.00031159
-0.0012211
0.000150789
-0.000167654
0.00123796
-0.000617009
-6.0896e-05
0.000624715
0.000114888
0.000332392
4.5149e-05
-0.000332481
-7.26776e-06
-0.000657337
1.76077e-05
-1.00876e-05
-2.33574e-05
4.21004e-05
0.000647899
-2.43148e-05
5.89412e-05
0.0012615
-6.36889e-05
-0.000319447
0.000322215
-2.6125e-05
0.000334671
-7.81579e-06
-0.000334123
0.000316815
0.000317063
-3.3831e-05
-3.6342e-05
-2.35497e-05
-0.000318957
-2.16863e-06
-0.000308722
3.98655e-06
1.52636e-05
-4.91071e-06
0.000317873
-0.0013206
7.435e-05
0.00132687
-3.90508e-05
-4.15649e-05
-0.000332338
0.000325761
2.18402e-05
0.000336262
6.53827e-07
-0.000339085
0.000336138
4.70207e-05
1.65747e-05
-0.000339976
8.67666e-05
-0.00131324
-4.58026e-05
-4.83286e-05
1.70214e-05
-0.000642812
-2.90323e-05
1.49253e-05
6.41561e-06
-1.23625e-05
0.000653889
1.15598e-05
-1.132e-05
0.00126518
1.42278e-05
-0.000340992
0.000337062
1.03453e-05
0.000323008
1.86471e-05
-0.000324633
0.000333581
-7.42748e-06
6.49038e-06
-0.000340221
-1.6076e-05
-0.000306764
7.40623e-06
-1.46741e-06
0.000304752
1.40528e-06
-0.00133003
-2.77083e-05
0.00132524
1.73275e-05
1.517e-05
-0.000333827
0.000335355
-2.99516e-06
0.000321068
-2.14083e-05
-0.000315736
0.00033479
9.84936e-07
-2.51154e-06
-0.000332073
-1.57882e-05
-0.0013337
1.0848e-05
8.61109e-06
-0.000616373
-4.79372e-05
0.000614131
2.42775e-05
2.59013e-05
0.000593182
-4.99024e-05
5.17296e-05
-0.000595009
0.000320477
1.95381e-05
-0.000618907
2.48265e-05
2.47567e-05
-3.87557e-05
-0.000302162
4.05478e-05
-4.58821e-05
5.81932e-05
0.000318432
-0.00127102
-9.30174e-05
0.00126144
5.16062e-05
5.09915e-05
-0.000327547
0.000320574
-3.89096e-05
0.000605737
3.83009e-05
-7.21906e-05
-0.000610603
0.000327419
-1.60243e-05
-3.72221e-05
-0.000332439
-8.82185e-05
-0.00128035
4.93394e-05
4.82096e-05
-0.000577056
-4.8624e-05
0.000574904
5.07764e-05
0.000561777
-4.30022e-05
4.44842e-05
-0.000563259
-4.99694e-05
0.000592183
5.09681e-05
-4.89229e-05
5.12364e-05
-0.00057937
-6.72081e-05