/*--------------------------------*- C++ -*----------------------------------*\
| =========                 |                                                 |
| \\      /  F ield         | OpenFOAM: The Open Source CFD Toolbox           |
|  \\    /   O peration     | Version:  5.x                                   |
|   \\  /    A nd           | Web:      www.OpenFOAM.org                      |
|    \\/     M anipulation  |                                                 |
\*---------------------------------------------------------------------------*/
FoamFile
{
    version     2.0;
    format      ascii;
    class       volScalarField;
    location    "300";
    object      pSat;
}
// * * * * * * * * * * * * * * * * * * * * * * * * * * * * * * * * * * * * * //

dimensions      [0 2 -2 0 0 0 0];

internalField   nonuniform List<scalar> 
6584
(
697.948
697.948
697.948
697.948
697.948
697.948
697.948
697.948
697.948
697.948
697.948
697.948
697.948
697.948
697.948
697.948
697.948
697.948
697.948
697.948
697.948
697.948
697.948
697.948
697.948
697.948
697.948
697.948
697.948
697.948
697.948
697.948
697.948
697.948
697.948
697.948
697.948
697.948
697.948
697.948
697.948
697.948
697.948
697.948
697.948
697.948
697.948
697.948
697.948
697.948
697.948
697.948
697.948
697.948
697.948
697.948
697.948
697.948
697.948
697.948
697.948
697.948
697.948
697.948
697.948
697.948
697.948
697.948
697.948
697.948
697.948
697.948
697.948
697.948
697.948
697.948
697.948
697.948
697.948
697.948
697.948
697.948
697.948
697.948
697.948
697.948
697.948
697.948
697.948
697.948
697.948
697.948
697.948
697.948
697.948
697.948
697.948
697.948
697.948
697.948
697.948
697.948
697.948
697.948
697.948
697.948
697.948
697.948
697.948
697.948
697.948
697.948
697.948
697.948
697.948
697.948
697.948
697.948
697.948
697.948
697.948
697.948
697.948
697.948
697.948
697.948
697.948
697.948
697.948
697.948
697.948
697.948
697.948
697.948
697.948
697.948
697.948
697.948
697.948
697.948
697.948
697.948
697.948
697.948
697.948
697.948
697.948
697.948
697.948
697.948
697.948
697.948
697.948
697.948
697.948
697.948
697.948
697.948
697.948
697.948
697.948
697.948
697.948
697.948
697.948
697.948
697.948
697.948
697.948
697.948
697.948
697.948
697.948
697.948
697.948
697.948
697.948
697.948
697.948
697.948
697.948
697.948
697.948
697.948
697.948
697.948
697.948
697.948
697.948
697.948
697.948
697.948
697.948
697.948
697.948
697.948
697.948
697.948
697.948
697.948
697.948
697.948
697.948
697.948
697.948
697.948
697.948
697.948
697.948
697.948
697.948
697.948
697.948
697.948
697.948
697.948
697.948
697.948
697.948
697.948
697.948
697.948
697.948
697.948
697.948
697.948
697.948
697.948
697.948
697.948
697.948
697.948
697.948
697.948
697.948
697.948
697.948
697.948
697.948
697.948
697.948
697.948
697.948
697.948
697.948
697.948
697.948
697.948
697.948
697.948
697.948
697.948
697.948
697.948
697.948
697.948
697.948
697.948
697.948
697.948
697.948
697.948
697.948
697.948
697.948
697.948
697.948
697.948
697.948
697.948
697.948
697.948
697.948
697.948
697.948
697.948
697.948
697.948
697.948
697.948
697.948
697.948
697.948
697.948
697.948
697.948
697.948
697.948
697.948
697.948
697.948
697.948
697.948
697.948
697.948
697.948
697.948
697.948
697.948
697.948
697.948
697.948
697.948
697.948
697.948
697.948
697.948
697.948
697.948
697.948
697.948
697.948
697.948
697.948
697.948
697.948
697.948
697.948
542.964
697.948
697.948
697.948
697.948
697.948
697.948
697.948
697.948
697.948
697.948
697.948
697.948
697.948
697.948
697.948
697.948
697.948
697.948
697.948
697.948
697.948
697.948
697.947
653.779
697.948
697.948
697.948
697.948
697.948
697.948
697.948
697.948
697.948
697.948
697.948
697.948
697.948
697.948
697.948
697.948
697.948
697.948
697.948
697.948
697.948
697.948
697.947
657.185
697.948
697.948
697.948
697.948
697.948
697.948
697.948
697.948
697.948
697.948
697.948
697.948
697.948
697.948
697.948
697.948
697.948
697.948
697.948
697.948
697.948
697.948
697.595
678.664
697.948
697.948
697.948
697.948
697.948
697.948
697.948
697.948
697.948
697.948
697.948
697.948
697.948
697.948
697.948
697.948
697.948
697.948
697.948
697.948
697.948
697.948
697.424
679.175
697.948
697.948
697.948
697.948
697.948
697.948
697.948
697.948
697.948
697.948
697.948
697.948
697.948
697.948
697.948
697.948
697.948
697.948
697.948
697.948
697.948
697.884
677.558
689.085
697.947
697.948
697.948
697.948
697.948
697.948
697.948
697.948
697.948
697.948
697.948
697.948
697.948
697.948
697.948
697.948
697.948
697.948
697.948
697.948
697.948
697.819
677.651
689.145
697.946
697.948
697.948
697.948
697.948
697.948
697.948
697.948
697.948
697.948
697.948
697.948
697.948
697.948
697.948
697.948
697.948
697.948
697.948
697.948
697.947
697.755
677.738
689.196
697.945
697.948
697.948
697.948
697.948
697.948
697.948
697.948
697.948
697.948
697.948
697.948
697.948
697.948
697.948
697.948
697.948
697.948
697.948
697.948
697.947
697.691
677.821
689.24
697.944
697.948
697.948
697.948
697.948
697.948
697.948
697.948
697.948
697.948
697.948
697.948
697.948
697.948
697.948
697.948
697.948
697.948
697.948
697.948
697.946
697.628
677.901
689.279
697.943
697.948
697.948
697.948
697.948
697.948
697.948
697.948
697.948
697.948
697.948
697.948
697.948
697.948
697.948
697.948
697.948
697.948
697.948
697.948
697.945
697.566
677.978
689.315
697.942
697.948
697.948
697.948
697.948
697.948
697.948
697.948
697.948
697.948
697.948
697.948
697.948
697.948
697.948
697.948
697.948
697.948
697.948
697.948
697.943
697.507
678.052
689.348
697.941
697.948
697.948
697.948
697.948
697.948
697.948
697.948
697.948
697.948
697.948
697.948
697.948
697.948
697.948
697.948
697.948
697.948
697.948
697.948
697.942
697.44
678.13
689.381
697.94
697.948
697.948
697.948
697.948
697.948
697.948
697.948
697.948
697.948
697.948
697.948
697.948
697.948
697.948
697.948
697.948
697.948
697.948
697.948
697.94
697.368
678.212
689.418
697.939
697.948
697.948
697.948
697.948
697.948
697.948
697.948
697.948
697.948
697.948
697.948
697.948
697.948
697.948
697.948
697.948
697.948
697.948
697.948
697.937
697.297
678.292
689.453
697.938
697.948
697.948
697.948
697.948
697.948
697.948
697.948
697.948
697.948
697.948
697.948
697.948
697.948
697.948
697.948
697.948
697.948
697.948
697.948
697.935
697.228
678.372
689.487
697.937
697.948
697.948
697.948
697.948
697.948
697.948
697.948
697.948
697.948
697.948
697.948
697.948
697.948
697.948
697.948
697.948
697.948
697.948
697.948
697.932
697.16
678.451
689.521
697.936
697.948
697.948
697.948
697.948
697.948
697.948
697.948
697.948
697.948
697.948
697.948
697.948
697.948
697.948
697.948
697.948
697.948
697.948
697.948
697.929
697.092
678.531
689.554
697.935
697.948
697.948
697.948
697.948
697.948
697.948
697.948
697.948
697.948
697.948
697.948
697.948
697.948
697.948
697.948
697.948
697.948
697.948
697.948
697.925
697.024
678.61
689.586
697.934
697.948
697.948
697.948
697.948
697.948
697.948
697.948
697.948
697.948
697.948
697.948
697.948
697.948
697.948
697.948
697.948
697.948
697.948
697.948
697.922
696.957
678.689
689.619
697.933
697.948
697.948
697.948
697.948
697.948
697.948
697.948
697.948
697.948
697.948
697.948
697.948
697.948
697.948
697.948
697.948
697.948
697.948
697.948
697.918
696.888
678.769
689.652
697.932
697.948
697.948
697.948
697.948
697.948
697.948
697.948
697.948
697.948
697.948
697.948
697.948
697.948
697.948
697.948
697.948
697.948
697.948
697.948
697.914
696.818
678.851
689.686
697.931
697.948
697.948
697.948
697.948
697.948
697.948
697.948
697.948
697.948
697.948
697.948
697.948
697.948
697.948
697.948
697.948
697.948
697.948
697.948
697.909
696.745
678.933
689.72
697.93
697.948
697.948
697.948
697.948
697.948
697.948
697.948
697.948
697.948
697.948
697.948
697.948
697.948
697.948
697.948
697.948
697.948
697.948
697.948
697.948
697.948
697.948
697.948
697.948
697.948
697.948
536.795
537.994
697.948
697.948
697.948
697.948
697.948
697.948
697.948
697.948
697.948
697.948
697.948
697.948
697.948
697.948
697.948
697.948
697.948
697.948
697.685
697.896
697.525
697.891
697.948
697.948
697.948
697.948
697.948
697.948
697.948
696.823
696.996
693.176
695.395
697.948
697.948
697.948
697.948
697.948
697.948
697.948
697.259
697.025
696.613
694.506
697.948
697.948
697.948
697.677
697.615
697.948
697.948
697.948
697.874
697.824
697.947
575.389
537.513
618.954
697.948
697.948
697.913
697.948
697.948
697.946
697.801
697.948
697.947
697.902
697.948
697.948
697.948
697.931
697.059
697.621
697.948
696.867
694.475
697.734
696.984
695.522
697.509
697.948
697.728
697.249
697.926
697.739
697.948
696.993
696.835
697.948
693.748
694.998
694.364
693.696
694.423
693.035
697.948
697.108
697.307
697.243
697.117
697.948
694.838
695.939
695.098
694.642
697.589
696.735
697.948
697.649
697.839
697.318
697.629
697.948
696.79
697.173
696.059
696.718
697.813
697.701
697.847
697.89
697.948
697.461
697.206
697.217
697.439
697.895
697.879
697.948
697.948
697.948
697.931
697.948
697.948
697.948
697.948
697.948
697.656
697.519
690.898
687.243
697.948
697.948
697.948
697.948
697.929
697.948
697.948
697.948
697.495
697.292
697.948
541.074
564.632
641.087
655.592
565.83
590.902
686.537
679.899
697.948
697.894
697.916
657.28
665.954
697.919
697.929
697.948
697.948
697.948
697.948
697.948
697.948
697.948
697.923
697.948
697.937
697.948
697.94
697.948
697.657
697.754
694.385
694.509
695.884
695.642
697.592
680.348
697.745
693.713
691.311
691.794
693.93
697.85
694.282
697.93
687.407
696.677
685.459
697.913
696.949
697.927
697.948
697.869
695.267
697.938
697.94
695.54
695.39
697.534
697.481
696.326
696.437
697.278
697.943
697.945
697.941
697.943
697.276
697.859
697.947
697.948
697.946
697.947
697.828
694.323
694.396
693.772
693.715
691.484
691.691
697.037
697.941
697.941
697.942
697.942
697.035
697.192
697.941
697.941
697.941
697.941
697.184
541.128
695.372
560.03
521.419
595.394
562.765
695.527
693.799
521.512
694.009
697.324
697.266
697.464
697.943
697.942
697.944
697.943
697.496
619.382
637.95
696.377
622.435
597.743
644.383
625.254
696.471
593.503
616.619
697.774
687.673
691.386
681.181
686.927
697.759
678.252
665.823
669.206
556.194
666.971
664.516
575.349
693.711
693.94
697.946
697.948
697.948
697.948
697.948
697.85
697.834
608.966
697.633
697.821
697.947
697.756
697.671
697.948
550.43
555.152
520.82
665.804
665.921
559.618
567.475
692.232
693.624
476.02
697.948
697.948
697.948
697.948
697.948
697.948
697.805
697.946
697.944
697.535
697.381
697.832
696.838
697.93
697.93
697.933
697.93
696.86
693.724
695.028
696.305
694.711
662.987
656.535
697.857
694.159
695.685
696.383
696.442
570.995
697.948
697.942
697.948
697.918
697.618
697.452
697.946
697.948
697.948
697.948
697.948
697.945
697.284
697.938
697.934
697.943
697.939
697.364
696.285
671.926
686.694
660.29
663.232
694.841
688.188
689.78
697.23
695.87
696.795
697.468
697.909
697.912
697.882
697.887
697.263
697.93
697.931
696.888
694.028
650.633
641.336
694.068
655.885
659.412
639.706
642.216
693.602
693.281
692.253
697.071
697.882
697.879
697.873
697.897
697.202
697.223
697.877
697.88
697.879
697.877
697.147
697.492
691.751
693.045
689.986
689.155
696.995
697.8
697.945
697.944
697.946
697.945
697.811
696.979
660.087
646.626
673.57
669.489
697.033
594.663
600.495
697.329
677.942
674.796
587.947
592.957
670.853
664.666
697.945
697.947
697.947
656.624
689.548
660.878
663.993
663.035
689.079
697.948
697.938
697.948
697.91
697.947
547.269
553.547
550.992
550.566
648.158
566.468
561.554
576.609
567.846
650.034
572.078
576.891
684.077
682.955
661.567
589.958
581.18
568.231
572.449
697.903
697.945
697.948
697.931
697.943
697.886
697.542
697.821
693.857
694.901
696.229
694.842
681.908
693.618
692.678
694.609
693.914
681.618
690.525
689.633
692.385
691.029
692.863
673.482
677.247
666.641
671.612
692.508
653.01
655.138
691.907
697.609
697.293
697.888
697.7
693.091
695.26
694.593
697.042
695.553
697.758
697.942
697.91
697.633
697.393
697.833
697.659
697.923
697.692
697.879
697.924
697.733
697.859
697.945
697.906
697.846
667.043
669.718
696.063
646.321
635.316
674.175
648.713
619.171
609.004
631.896
623.441
694.976
664.241
666.335
686.354
683.629
694.247
688.728
680.429
677.328
683.156
681.214
697.298
690.139
691.122
695.989
696.734
697.897
697.906
697.359
697.267
697.888
697.895
652.804
652.247
694.112
591.708
591.074
553.975
587.04
586.679
599.751
590.101
587.201
650.598
654.687
693.982
592.749
582.439
606.444
595.964
563.46
552.852
578.534
567.999
693.619
644.187
648.992
692.495
692.099
697.888
697.884
697.061
697.137
697.895
697.889
697.876
697.877
697.215
697.156
697.876
697.876
538.269
542.114
663.085
669.096
654.384
660.853
532.255
582.838
676.403
668.333
670.686
675.091
576.313
622.252
627.428
607.442
620.452
523.462
644.903
652.39
629.925
641.217
521.725
690.613
691.432
697.456
687.04
688.708
689.213
686.97
688.707
697.06
688.669
689.923
626.801
539.734
540.336
558.15
541.935
629.497
550.733
601.544
541.096
605.393
684.2
695.403
694.824
696.103
695.598
684.69
675.717
676.772
603.045
609.291
575.805
585.961
675.086
672.279
697.948
697.948
697.948
697.948
697.937
697.938
697.948
697.948
697.948
697.948
697.948
697.948
697.948
697.948
697.948
697.948
697.947
697.834
697.529
696.812
696.716
693.324
695.269
697.933
697.935
697.121
691.767
691.382
694.567
693.331
693.993
697.68
697.941
697.948
697.948
696.456
696.892
697.847
697.938
697.917
697.946
697.703
694.295
696.259
695.638
696.615
696.508
697.448
697.628
697.63
697.254
697.919
697.923
697.755
696.91
697.931
697.933
657.368
652.85
694.711
694.272
692.304
692.125
692.895
697.099
697.624
697.623
697.236
697.624
697.626
697.621
697.62
697.127
693.402
664.364
659.59
697.349
697.879
697.876
697.869
697.946
697.946
548.051
548.812
681.355
678.882
697.36
547.102
547.468
695.829
696.164
697.89
697.935
697.924
541.496
546.859
548.384
562.883
567.053
542.868
544.974
558.921
555.94
587.355
674.195
672.994
680.927
597.201
591.511
662.747
697.948
697.948
697.948
697.898
697.921
697.938
697.943
697.86
697.877
697.948
697.948
697.947
697.276
697.229
697.59
697.793
697.633
697.547
694.139
694.634
692.849
693.156
696.043
695.342
691.541
692.231
683.225
683.372
687.263
686.735
680.351
683.737
684.16
697.698
694.257
694.981
693.377
689.542
694.923
694.295
697.455
697.199
696.087
679.206
676.996
692.702
688.23
681.912
697.947
697.945
697.842
697.804
697.53
697.668
696.039
697.766
697.834
691.442
693.181
697.671
674.155
671.581
696.217
696.545
697.937
697.94
697.894
697.763
697.927
697.932
694.629
652.281
652.418
691.496
691.824
697.619
697.619
697.199
697.175
697.618
697.618
541.11
556.75
596.459
600.145
558.801
562.714
521.907
668.268
665.367
693.599
512.2
509.026
529.889
530.528
522.169
552.824
555.804
507.176
509.457
697.886
697.883
697.367
697.557
697.893
697.89
610.455
673.573
675.204
670.117
671.849
606.285
689.383
695.773
696.241
696.14
695.966
689.956
682.431
688.664
687.946
676.455
674.66
678.649
560.919
563.066
564.755
547.024
669.746
608.819
600.113
616.934
611.028
663.142
647.868
648.552
678.257
681.418
694.502
697.945
697.945
697.936
550.691
551.989
603.349
603.418
516.524
564.032
555.846
555.989
552.701
554.548
566.303
477.927
672.517
674.887
697.948
697.948
697.948
696.995
696.905
697.531
697.202
697.497
697.695
697.404
697.459
693.561
695.147
689.727
690.21
690.286
689.733
694.629
691.11
690.936
661.55
650.453
650.346
652.478
652.014
659.724
697.568
697.783
697.79
697.755
697.775
697.513
695.752
697.271
696.387
696.082
697.259
697.631
697.634
692.302
692.411
693.958
692.503
697.628
697.626
697.083
697.622
697.623
697.23
697.138
697.619
697.619
690.003
691.71
691.034
692.275
692.062
689.82
549.789
551.323
547.36
547.028
589.643
564.806
563.448
651.783
651.906
668.969
655.915
658.593
651.126
653.099
666.773
697.941
697.937
697.943
697.934
697.946
697.947
697.948
697.942
697.945
697.941
659.993
676.046
675.106
678.661
677.305
661.062
666.958
671.599
669.662
674.348
673.364
665.347
697.942
697.946
697.944
697.831
697.735
697.929
697.911
542.917
559.648
549.183
548.495
550.925
550.761
586.522
589.23
563.647
540.763
540.958
568.886
542.965
541.289
543.102
582.444
549.981
543.884
675.054
676.79
685.057
670.128
670.651
668.784
669.135
681.864
672.483
673.216
569.026
548.456
550.622
546.307
546.651
570.26
697.929
697.933
697.914
697.84
697.888
697.922
696.867
697.556
697.162
697.082
697.265
697.338
697.097
697.187
693.995
694.765
690.864
691
690.425
690.651
696.148
693.319
693.433
690.862
691.053
695.053
690.952
684.718
683.629
680.947
686.293
685.72
690.156
684.829
684.683
686.553
685.563
689.894
692.036
687.365
687.915
685.328
686.395
691.57
684.276
668.286
680.8
679.855
651.853
652.918
691.287
695.461
695.196
690.728
694.097
696.504
695.88
682.907
680.936
690.488
690.929
694.831
687.161
685.055
696.806
697.154
697.724
697.358
696.378
694.969
696.286
697.803
697.877
697.893
697.807
697.837
697.687
697.512
697.643
697.891
697.827
697.802
697.896
697.843
697.906
697.765
697.767
697.675
697.786
643.384
639.137
666.983
635.632
639.273
627.97
650.807
615.363
611.979
628.868
626.237
684.948
671.898
674.798
666.156
668.923
684.168
693.594
688.3
689.76
676.493
684.856
692.043
669.217
664.672
679.621
648.157
650.998
643.242
645.671
678.71
682.67
661.525
663.693
654.167
657.682
681.976
696.108
696.648
592.761
555.467
560.516
545.352
550.178
592.011
562.276
563.43
563.392
575.414
588.552
519.717
524.391
527.802
520.025
592.877
589.148
536.914
540.946
529.195
533.269
588.216
589.985
586.855
603.798
599.638
559.373
555.643
575.108
572.148
691.825
691.957
697.207
697.62
697.621
697.618
697.618
697.165
540.497
584.359
591.421
551.48
524.817
568.391
576.072
519.37
515.61
623.827
561.688
561.284
613.82
552.777
540.784
560.572
558.311
617.932
528.079
523.502
542.54
549.007
523.044
517.424
530.385
690.979
694.203
693.948
694.577
694.397
691.206
687.614
688.417
688.426
686.852
686.854
687.563
688.638
692.773
692.482
693.591
693.169
689.171
539.345
560.969
563.368
557.533
559.185
539.687
552.294
577.756
582.798
567.019
572.092
546.61
549.614
535.236
535.561
538.993
536.884
541.609
551.994
555.44
539.286
545.67
540.912
689.743
689.28
683.563
675.496
677.95
554.23
558.673
579.727
553.904
548.743
561.762
558.985
583.3
547.759
547.775
649.063
649.788
697.948
697.948
697.948
697.948
697.948
697.948
697.948
697.948
697.948
697.948
697.948
697.948
697.948
697.948
697.948
697.948
697.948
697.948
697.948
697.948
697.948
697.948
697.948
697.948
697.948
697.948
697.948
697.948
697.948
697.948
697.948
697.948
697.948
697.948
697.948
697.948
697.948
697.948
697.948
697.948
697.948
697.948
697.948
697.948
697.948
697.948
697.948
697.948
697.948
697.948
697.948
697.948
697.948
697.948
697.948
697.948
697.948
697.948
697.948
697.948
697.948
697.948
697.948
697.948
697.948
697.948
697.948
697.948
697.948
697.948
697.948
697.948
697.948
697.948
697.948
697.948
697.948
697.948
697.948
697.948
697.948
697.948
697.948
697.948
697.948
697.946
697.946
697.948
697.948
697.948
697.948
697.948
697.948
697.948
697.948
697.948
697.948
697.948
697.948
697.948
697.946
697.946
697.948
697.948
697.948
697.948
697.948
697.948
697.948
697.948
697.948
697.948
697.947
697.947
697.948
697.948
697.948
697.948
697.948
697.948
697.948
697.948
697.948
697.948
697.948
697.948
697.948
697.948
697.948
697.948
697.948
697.948
697.948
697.948
697.948
697.948
697.81
697.806
558.673
689.565
690.345
697.948
697.948
697.948
697.948
697.948
697.948
697.948
697.948
697.948
697.948
697.948
697.948
697.947
617.16
615.353
656.381
697.948
697.948
697.948
697.948
697.948
697.948
697.948
697.948
697.948
697.948
697.948
697.731
655.603
617.701
678.402
697.936
697.948
697.948
697.948
697.948
697.948
697.948
697.948
697.948
697.948
697.948
697.948
697.948
697.948
697.947
697.947
697.948
697.948
697.947
697.946
697.948
697.948
697.948
697.946
697.946
697.948
697.948
697.946
697.947
697.946
697.946
697.948
697.947
697.947
697.948
697.948
697.947
697.948
697.947
697.947
697.948
697.948
697.948
697.948
697.948
697.948
697.948
697.805
697.854
697.948
516.344
593.166
594.221
640.361
640.513
479.012
697.948
697.948
697.948
697.948
697.948
697.948
697.948
697.948
697.947
697.948
697.948
697.948
697.948
697.948
697.948
697.948
697.948
697.948
697.948
697.948
697.948
697.948
697.948
697.948
697.948
697.948
697.948
697.948
697.948
697.948
697.946
697.941
697.948
697.948
697.948
697.948
697.948
697.948
697.948
697.948
697.948
697.948
697.948
697.948
697.948
697.948
697.948
697.948
697.948
697.948
697.948
697.948
697.948
697.948
697.948
697.948
697.732
697.888
697.875
697.936
697.931
697.879
697.827
697.76
697.87
697.948
697.948
697.948
697.948
697.948
697.948
697.948
697.948
697.948
697.948
697.948
697.948
697.948
697.948
697.948
697.948
697.948
697.948
697.946
697.946
697.948
696.818
697.664
697.666
697.703
697.689
696.94
697.948
697.948
697.948
697.948
697.948
697.948
697.948
697.948
697.948
697.948
697.948
697.948
697.948
697.948
697.948
697.948
697.948
697.948
697.946
697.946
697.948
697.155
697.935
697.937
697.713
697.721
697.056
696.493
693.94
694.279
697.948
697.948
697.948
697.948
697.948
697.948
697.948
697.948
697.948
697.651
695.865
696.268
696.962
697.033
697.639
697.948
697.948
697.948
697.948
697.948
697.948
697.948
697.948
697.948
697.869
697.648
697.669
697.467
697.505
697.833
697.871
697.81
697.947
571.98
696.451
696.455
666.369
667.344
540.429
697.666
697.64
611.604
697.948
697.922
697.935
697.938
697.922
697.948
697.925
697.943
697.941
697.948
697.948
697.944
697.948
697.948
697.948
697.944
697.872
697.934
697.948
697.948
697.948
697.942
697.946
697.948
697.908
697.864
697.853
697.947
697.946
697.947
697.948
697.948
697.948
697.948
697.948
697.948
697.945
697.946
697.939
697.13
697.738
697.719
697.859
697.84
697.537
697.948
697.947
697.948
696.713
695.022
695.47
689.878
690.095
694.59
695.76
695.964
697.077
697.948
697.947
697.948
697.703
697.827
697.84
697.901
697.942
697.944
697.847
697.853
697.745
697.948
697.948
697.948
696.962
697.698
697.705
697.668
697.672
696.851
697.948
697.946
697.946
693.845
688.193
687.963
690.714
690.472
694.896
694.261
689.468
689.671
687.803
687.706
693.636
697.946
697.946
697.948
697.725
697.716
697.289
697.948
697.946
697.946
695.026
681.879
679.138
690.475
690.006
695.811
695.195
691.204
690.963
678.211
674.959
694.439
697.56
696.791
696.882
694.641
694.943
696.842
697.947
697.947
697.948
697.699
697.906
697.903
697.92
697.918
697.83
697.327
697.738
697.732
697.9
697.897
697.573
697.948
697.947
697.947
696.857
693.896
693.641
695.091
694.928
697.13
696.172
691.323
690.91
693.368
693.077
696.64
697.802
697.376
697.424
696.386
696.694
697.722
697.855
697.924
697.922
697.947
697.947
697.875
697.948
697.948
697.948
697.514
683.872
682.076
681.281
683.222
697.498
697.257
695.38
695.241
697.893
696.216
696.282
697.948
697.948
697.948
697.948
697.948
697.948
697.948
697.948
697.948
697.948
697.948
697.948
697.948
697.948
697.948
697.948
697.948
697.948
697.947
697.947
697.948
697.604
697.931
697.932
697.929
697.93
697.584
690.455
685.301
686.073
680.139
681.367
687.933
697.948
697.948
697.948
697.948
697.948
697.948
697.886
697.92
697.94
697.948
697.948
697.948
697.948
697.948
697.948
697.948
697.948
697.948
697.416
697.939
697.928
697.937
697.939
697.387
697.948
697.947
697.946
643.756
617.153
614.414
631.208
628.583
653.741
685.834
677.904
678.937
697.948
697.948
697.948
697.905
697.947
697.947
697.946
697.947
697.908
658.878
636.266
633.81
647.008
645.339
664.915
697.924
697.947
697.947
697.947
697.947
697.926
697.948
697.948
697.948
697.948
697.948
697.948
697.948
697.948
697.948
697.948
697.948
697.948
697.948
697.948
697.948
697.948
697.948
697.948
697.948
697.948
697.948
697.948
697.947
697.948
697.948
697.948
697.948
697.945
697.946
697.943
697.948
697.948
697.948
695.167
695.702
697.623
697.731
697.325
697.371
693.464
690.065
690.484
686.783
687.4
691.684
692.858
696.437
696.297
696.675
696.562
693.149
697.842
697.541
697.572
697.693
697.838
697.939
697.885
697.055
697.599
697.18
697.693
697.585
697.943
697.936
697.905
697.948
697.948
697.948
697.923
697.916
697.934
697.942
697.933
697.928
691.85
692.16
695.695
695.249
691.312
691.571
696.943
697.077
697.584
697.423
696.682
696.812
697.652
697.661
697.286
697.944
697.934
697.932
697.938
697.936
697.945
697.942
697.928
697.926
697.93
697.929
697.942
697.273
697.643
697.647
697.909
697.916
697.876
697.948
697.946
697.945
697.947
697.947
697.948
697.946
697.941
697.94
697.944
697.942
697.947
697.797
697.887
697.899
689.31
689.181
694.255
694.47
689.581
689.442
688.377
688.546
693.835
693.672
688.073
688.218
697.639
697.635
697.043
697.941
697.926
697.926
697.925
697.925
697.941
697.942
697.928
697.929
697.927
697.928
697.942
697.046
697.65
697.644
697.941
697.924
697.924
697.926
697.925
697.941
697.941
697.924
697.925
697.924
697.924
697.941
688.335
682.76
695.208
592.496
627.464
630.767
603.261
606.494
565.898
695.674
689.476
688.916
694.225
673.588
669.394
696.137
696.271
697.374
697.198
695.789
695.973
697.787
697.777
697.427
697.943
697.931
697.932
697.93
697.931
697.943
697.944
697.934
697.935
697.933
697.934
697.944
697.521
697.804
697.796
621.872
591.039
588.702
611.157
607.355
635.235
692.093
691.721
696.278
619.027
650.415
652.791
633.435
636.152
600.097
636.104
679.358
680.595
676.665
678.034
633.17
696.558
692.766
692.441
595.815
561.808
560.506
585.971
582.305
613.354
697.265
697.323
697.789
688.265
692.242
691.872
694.337
694.079
690.957
691.447
690.989
686.079
697.741
697.127
697.199
667.074
624.834
618.844
632.201
627.024
668.27
667.946
650.37
648.698
693.5
682.261
684.101
690.875
691.249
694.146
697.948
697.948
697.948
697.948
697.948
697.948
697.845
697.937
697.938
697.936
697.937
697.84
683.552
683.085
605.927
697.634
695.793
695.833
695.809
695.802
697.662
697.725
697.935
697.936
697.933
697.934
697.713
697.948
697.947
697.947
557.344
552.19
517.054
665.469
634.522
625.886
636.155
635.21
665.537
693.238
677.426
675.264
683.674
686.565
693.657
476.451
579.345
603.963
697.948
697.948
697.948
697.948
697.948
697.948
697.948
697.948
697.948
697.948
697.948
697.948
697.948
697.948
697.948
697.948
697.948
697.948
697.909
697.899
697.771
697.946
697.936
697.939
697.929
697.933
697.945
697.848
697.711
697.685
697.665
697.664
696.823
697.93
697.876
697.876
697.876
697.876
697.93
697.932
697.882
697.886
697.877
697.879
697.931
696.895
697.677
697.669
693.546
693.698
696.39
697.6
697.625
697.863
695.348
696.866
696.776
697.018
696.946
695.524
696.41
686.683
681.586
686.916
686.821
696.429
570.005
653.307
653.233
697.948
697.948
697.948
697.948
697.948
697.948
697.948
697.948
697.948
697.877
697.87
697.913
697.948
697.948
697.947
697.948
697.948
697.948
697.948
697.948
697.948
697.948
697.948
697.947
697.948
697.948
697.948
697.942
697.947
697.947
697.778
697.758
697.206
697.936
697.9
697.905
697.89
697.895
697.935
697.942
697.92
697.925
697.91
697.915
697.94
697.448
697.82
697.799
693.621
694.356
696.511
676.387
688.994
686.844
692.523
691.22
683.165
661.213
680.567
680.178
681.406
680.978
662.2
694.714
690.325
690.567
688.921
693.585
693.191
694.112
693.869
689.394
697.157
696.127
696.274
697.755
697.802
697.634
697.911
697.901
697.885
697.883
697.812
697.809
697.818
697.814
697.885
697.931
697.877
697.877
697.879
697.878
697.931
696.869
697.676
697.68
688.69
688.448
693.934
647.782
676.284
677.079
674.592
675.381
644.301
689.071
689.265
694.16
657.158
678.973
678.535
679.803
679.41
658.441
639.247
673.848
674.081
674.277
673.872
640.451
693.628
687.671
687.701
697.881
697.806
697.808
697.804
697.805
697.88
697.834
697.839
697.899
697.256
697.703
697.689
697.878
697.803
697.802
697.807
697.805
697.879
697.878
697.801
697.802
697.8
697.801
697.877
696.587
696.691
697.527
692.185
695.005
694.778
695.441
695.234
692.65
696.926
695.154
695.307
697.911
697.909
697.789
697.945
697.937
697.938
697.936
697.937
697.945
697.946
697.94
697.94
697.939
697.939
697.945
697.821
697.916
697.914
694.356
694.133
696.92
654.539
683.785
684.704
681.736
682.796
652.612
672.276
686.98
687.622
685.53
686.287
670.929
697.083
694.752
694.562
596.434
570.791
569.179
574.791
572.577
598.332
695.631
695.51
697.295
676.958
689.25
689.711
688.214
688.753
675.917
567.651
566.191
591.288
697.948
697.947
697.946
683.86
684.547
690.002
688.553
682.412
683.194
697.947
697.948
697.948
697.948
697.948
697.947
697.944
697.936
697.942
621.741
619.526
646.045
565.161
591.397
593.351
572.55
600.407
603.762
595.332
597.608
569.697
651.964
626.162
623.888
640.33
638.431
660.299
588.011
613.22
615.38
607.297
610.552
585.189
697.946
697.942
697.94
697.946
697.944
697.947
697.935
697.916
697.909
697.936
697.926
697.94
697.672
697.66
697.81
693.294
689.438
690.09
688.333
688.819
692.974
694.392
691.421
691.781
690.648
691.068
694.167
689.092
689.607
693.182
675.072
684.283
683.462
685.601
684.979
676.253
682.563
681.667
669.809
692.109
687.974
688.544
697.523
696.832
696.992
696.388
696.667
697.428
697.852
697.669
697.769
697.2
697.455
697.788
695.037
691.258
691.605
696.53
694.085
695.723
692.079
692.873
695.978
697.885
697.801
697.446
697.936
697.906
697.929
697.827
697.871
697.926
697.929
697.902
697.887
697.941
697.937
697.944
697.88
697.92
697.929
697.901
697.91
697.859
667.793
683.905
683.419
685.396
684.516
668.629
695.87
692.528
692.998
690.815
691.062
695.11
664.997
682.225
681.833
682.993
682.602
665.659
696.413
696.549
697.362
690.485
694.563
694.34
694.999
694.782
690.815
697.9
697.845
697.838
697.869
697.855
697.903
697.307
697.678
697.708
697.637
697.64
697.27
697.89
697.825
697.821
697.833
697.829
697.892
653.139
678.233
678.433
677.642
677.993
652.954
694.184
689.046
688.89
652.234
677.26
676.766
678.115
677.703
653.544
693.907
688.716
688.889
687.81
687.938
693.633
646.009
675.325
674.802
676.273
675.8
647.487
697.886
697.813
697.815
697.809
697.811
697.885
697.051
697.633
697.63
697.675
697.661
697.079
697.892
697.825
697.83
697.818
697.821
697.891
697.876
697.8
697.799
697.801
697.8
697.876
697.876
697.799
697.8
697.799
697.799
697.876
665.146
633.326
629.129
639.607
636.768
667.26
656.418
615.933
612.647
624.446
619.873
658.582
619.127
623.189
588.436
677.595