/*--------------------------------*- C++ -*----------------------------------*\
| =========                 |                                                 |
| \\      /  F ield         | OpenFOAM: The Open Source CFD Toolbox           |
|  \\    /   O peration     | Version:  5.x                                   |
|   \\  /    A nd           | Web:      www.OpenFOAM.org                      |
|    \\/     M anipulation  |                                                 |
\*---------------------------------------------------------------------------*/
FoamFile
{
    version     2.0;
    format      ascii;
    class       volScalarField;
    location    "300";
    object      T;
}
// * * * * * * * * * * * * * * * * * * * * * * * * * * * * * * * * * * * * * //

dimensions      [0 0 0 1 0 0 0];

internalField   nonuniform List<scalar> 
6584
(
275
275
275
275
275
275
275
275
275
275
275
275
275
275
275
275
275
275
275
275
275
275
275
275
275
275
275
275
275
275
275
275
275
275
275
275
275
275
275
275
275
275
275
275
275
275
275
275
275
275
275
275
275
275
275
275
275
275
275
275
275
275
275
275
275
275
275
275
275
275
275
275
275
275
275
275
275
275
275
275
275
275
275
275
275
275
275
275
275
275
275
275
275
275
275
275
275
275
275
275
275
275
275
275
275
275
275
275
275
275
275
275
275
275
275
275
275
275
275
275
275
275
275
275
275
275
275
275
275
275
275
275
275
275
275
275
275
275
275
275
275
275
275
275
275
275
275
275
275
275
275
275
275
275
275
275
275
275
275
275
275
275
275
275
275
275
275
275
275
275
275
275
275
275
275
275
275
275
275
275
275
275
275
275
275
275
275
275
275
275
275
275
275
275
275
275
275
275
275
275
275
275
275
275
275
275
275
275
275
275
275
275
275
275
275
275
275
275
275
275
275
275
275
275
275
275
275
275
275
275
275
275
275
275
275
275
275
275
275
275
275
275
275
275
275
275
275
275
275
275
275
275
275
275
275
275
275
275
275
275
275
275
275
275
275
275
275
275
275
275
275
275
275
275
275
275
275
275
275
275
275
275
275
275
275
275
275
275
275
275
275
275
275
275
275
275
275
275
275
275
275
275
275
275
275
275
275
275
275
275
275
275
275
275
275
275
275
275
271.534
275
275
275
275
275
275
275
275
275
275
275
275
275
275
275
275
275
275
275
275
275
275
275
274.088
275
275
275
275
275
275
275
275
275
275
275
275
275
275
275
275
275
275
275
275
275
275
275
274.16
275
275
275
275
275
275
275
275
275
275
275
275
275
275
275
275
275
275
275
275
275
275
274.993
274.608
275
275
275
275
275
275
275
275
275
275
275
275
275
275
275
275
275
275
275
275
275
275
274.989
274.619
275
275
275
275
275
275
275
275
275
275
275
275
275
275
275
275
275
275
275
275
275
274.999
274.586
274.821
275
275
275
275
275
275
275
275
275
275
275
275
275
275
275
275
275
275
275
275
275
274.997
274.588
274.822
275
275
275
275
275
275
275
275
275
275
275
275
275
275
275
275
275
275
275
275
275
274.996
274.589
274.823
275
275
275
275
275
275
275
275
275
275
275
275
275
275
275
275
275
275
275
275
275
274.995
274.591
274.824
275
275
275
275
275
275
275
275
275
275
275
275
275
275
275
275
275
275
275
275
275
274.994
274.593
274.825
275
275
275
275
275
275
275
275
275
275
275
275
275
275
275
275
275
275
275
275
275
274.992
274.594
274.826
275
275
275
275
275
275
275
275
275
275
275
275
275
275
275
275
275
275
275
275
275
274.991
274.596
274.827
275
275
275
275
275
275
275
275
275
275
275
275
275
275
275
275
275
275
275
275
275
274.99
274.597
274.827
275
275
275
275
275
275
275
275
275
275
275
275
275
275
275
275
275
275
275
275
275
274.988
274.599
274.828
275
275
275
275
275
275
275
275
275
275
275
275
275
275
275
275
275
275
275
275
275
274.987
274.601
274.829
275
275
275
275
275
275
275
275
275
275
275
275
275
275
275
275
275
275
275
275
275
274.986
274.602
274.829
275
275
275
275
275
275
275
275
275
275
275
275
275
275
275
275
275
275
275
275
275
274.984
274.604
274.83
275
275
275
275
275
275
275
275
275
275
275
275
275
275
275
275
275
275
275
275
275
274.983
274.606
274.831
275
275
275
275
275
275
275
275
275
275
275
275
275
275
275
275
275
275
275
275
275
274.981
274.607
274.831
275
275
275
275
275
275
275
275
275
275
275
275
275
275
275
275
275
275
275
275
274.999
274.98
274.609
274.832
275
275
275
275
275
275
275
275
275
275
275
275
275
275
275
275
275
275
275
275
274.999
274.979
274.611
274.833
275
275
275
275
275
275
275
275
275
275
275
275
275
275
275
275
275
275
275
275
274.999
274.977
274.612
274.833
275
275
275
275
275
275
275
275
275
275
275
275
275
275
275
275
275
275
275
275
274.999
274.976
274.614
274.834
275
275
275
275
275
275
275
275
275
275
275
275
275
275
275
275
275
275
275
275
275
275
275
275
275
275
275
271.379
271.409
275
275
275
275
275
275
275
275
275
275
275
275
275
275
275
275
275
275
274.995
274.999
274.992
274.999
275
275
275
275
275
275
275
274.977
274.981
274.904
274.949
275
275
275
275
275
275
275
274.986
274.981
274.973
274.931
275
275
275
274.995
274.993
275
275
275
274.998
274.997
275
272.326
271.397
273.33
275
275
274.999
275
275
275
274.997
275
275
274.999
275
275
275
275
274.982
274.993
275
274.978
274.93
274.996
274.981
274.951
274.991
275
274.996
274.986
275
274.996
275
274.981
274.978
275
274.916
274.941
274.928
274.914
274.929
274.901
275
274.983
274.987
274.986
274.983
275
274.937
274.96
274.943
274.934
274.993
274.976
275
274.994
274.998
274.987
274.994
275
274.977
274.984
274.962
274.975
274.997
274.995
274.998
274.999
275
274.99
274.985
274.985
274.99
274.999
274.999
275
275
275
275
275
275
275
275
275
274.994
274.991
274.858
274.784
275
275
275
275
275
275
275
275
274.991
274.987
275
271.487
272.068
273.816
274.127
272.097
272.691
274.769
274.634
275
274.999
274.999
274.162
274.345
274.999
275
275
275
275
275
275
275
275
274.999
275
275
275
275
275
274.994
274.996
274.928
274.931
274.959
274.954
274.993
274.643
274.996
274.915
274.866
274.876
274.919
274.998
274.926
275
274.787
274.974
274.747
274.999
274.98
275
275
274.998
274.946
275
275
274.952
274.949
274.992
274.991
274.967
274.97
274.987
275
275
275
275
274.987
274.998
275
275
275
275
274.998
274.927
274.929
274.916
274.915
274.87
274.874
274.982
275
275
275
275
274.982
274.985
275
275
275
275
274.985
271.488
274.948
271.956
270.985
272.795
272.023
274.951
274.917
270.987
274.921
274.987
274.986
274.99
275
275
275
275
274.991
273.339
273.748
274.968
273.407
272.849
273.887
273.47
274.97
272.751
273.278
274.997
274.793
274.868
274.66
274.777
274.996
274.6
274.342
274.413
271.862
274.366
274.315
272.325
274.915
274.919
275
275
275
275
275
274.998
274.998
273.105
274.994
274.997
275
274.996
274.994
275
271.72
271.837
270.969
274.342
274.344
271.946
272.137
274.885
274.913
269.757
275
275
275
275
275
275
274.997
275
275
274.992
274.989
274.998
274.978
275
275
275
275
274.978
274.915
274.941
274.967
274.935
274.283
274.147
274.998
274.924
274.955
274.969
274.97
272.221
275
275
275
274.999
274.993
274.99
275
275
275
275
275
275
274.987
275
275
275
275
274.988
274.967
274.469
274.773
274.226
274.288
274.938
274.803
274.835
274.986
274.958
274.977
274.99
274.999
274.999
274.999
274.999
274.986
275
275
274.979
274.921
274.021
273.821
274.922
274.133
274.207
273.786
273.84
274.913
274.906
274.885
274.982
274.999
274.999
274.998
274.999
274.985
274.985
274.999
274.999
274.999
274.999
274.984
274.991
274.875
274.901
274.839
274.823
274.981
274.997
275
275
275
275
274.997
274.981
274.222
273.935
274.503
274.419
274.982
272.778
272.912
274.988
274.593
274.529
272.622
272.739
274.447
274.318
275
275
275
274.148
274.831
274.238
274.304
274.284
274.821
275
275
275
274.999
275
271.642
271.797
271.734
271.724
273.968
272.112
271.993
272.355
272.145
274.008
272.247
272.362
274.719
274.696
274.253
272.669
272.463
272.155
272.256
274.999
275
275
275
275
274.999
274.992
274.997
274.918
274.939
274.965
274.938
274.675
274.913
274.894
274.933
274.919
274.669
274.85
274.832
274.888
274.861
274.898
274.501
274.579
274.359
274.463
274.89
274.072
274.117
274.878
274.993
274.987
274.999
274.995
274.902
274.946
274.933
274.982
274.952
274.996
275
274.999
274.994
274.989
274.998
274.994
274.999
274.995
274.999
275
274.996
274.998
275
274.999
274.998
274.368
274.423
274.962
273.929
273.691
274.516
273.98
273.335
273.106
273.616
273.43
274.94
274.309
274.353
274.766
274.71
274.926
274.814
274.645
274.581
274.7
274.661
274.987
274.843
274.862
274.961
274.976
274.999
274.999
274.988
274.986
274.999
274.999
274.067
274.056
274.923
272.71
272.695
271.808
272.601
272.593
272.895
272.672
272.605
274.02
274.107
274.92
272.734
272.493
273.048
272.808
272.04
271.78
272.401
272.149
274.913
273.883
273.986
274.89
274.882
274.999
274.999
274.982
274.984
274.999
274.999
274.999
274.999
274.985
274.984
274.999
274.999
271.416
271.513
274.285
274.41
274.101
274.238
271.264
272.502
274.562
274.394
274.443
274.535
272.348
273.403
273.518
273.071
273.363
271.038
273.898
274.059
273.573
273.819
270.993
274.852
274.869
274.99
274.78
274.814
274.824
274.778
274.814
274.982
274.813
274.838
273.504
271.453
271.468
271.91
271.508
273.563
271.728
272.936
271.487
273.024
274.722
274.949
274.937
274.963
274.953
274.732
274.548
274.569
272.971
273.113
272.336
272.576
274.535
274.476
275
275
275
275
275
275
275
275
275
275
275
275
275
275
275
275
275
274.998
274.992
274.977
274.975
274.907
274.946
275
275
274.983
274.876
274.868
274.932
274.907
274.92
274.995
275
275
275
274.97
274.979
274.998
275
274.999
275
274.995
274.927
274.966
274.954
274.973
274.971
274.99
274.994
274.994
274.986
274.999
274.999
274.996
274.979
275
275
274.164
274.068
274.935
274.926
274.886
274.883
274.898
274.983
274.993
274.993
274.986
274.993
274.994
274.993
274.993
274.984
274.909
274.312
274.211
274.988
274.999
274.999
274.998
275
275
271.661
271.68
274.664
274.613
274.988
271.638
271.647
274.957
274.964
274.999
275
275
271.497
271.632
271.67
272.025
272.126
271.532
271.585
271.929
271.856
272.608
274.516
274.491
274.655
272.837
272.705
274.278
275
275
275
274.999
274.999
275
275
274.998
274.999
275
275
275
274.987
274.986
274.993
274.997
274.994
274.992
274.923
274.933
274.897
274.904
274.962
274.948
274.871
274.885
274.702
274.705
274.784
274.773
274.643
274.712
274.721
274.995
274.926
274.94
274.908
274.83
274.939
274.927
274.99
274.985
274.963
274.619
274.574
274.894
274.804
274.675
275
275
274.998
274.997
274.992
274.994
274.962
274.996
274.998
274.869
274.904
274.994
274.515
274.462
274.965
274.972
275
275
274.999
274.996
275
275
274.933
274.056
274.059
274.87
274.877
274.993
274.993
274.985
274.984
274.993
274.993
271.488
271.876
272.82
272.904
271.926
272.021
270.997
274.393
274.333
274.913
270.743
270.659
271.203
271.219
271.004
271.779
271.853
270.61
270.671
274.999
274.999
274.988
274.992
274.999
274.999
273.139
274.503
274.537
274.432
274.468
273.045
274.827
274.956
274.966
274.964
274.96
274.839
274.686
274.813
274.798
274.563
274.526
274.608
271.978
272.03
272.071
271.636
274.424
273.102
272.904
273.285
273.152
274.286
273.962
273.977
274.6
274.665
274.931
275
275
275
271.727
271.759
272.978
272.979
270.857
272.053
271.854
271.857
271.776
271.822
272.108
269.811
274.481
274.531
275
275
275
274.981
274.979
274.992
274.985
274.991
274.995
274.989
274.99
274.912
274.944
274.834
274.844
274.846
274.834
274.933
274.862
274.859
274.252
274.017
274.015
274.06
274.051
274.214
274.992
274.997
274.997
274.996
274.997
274.991
274.956
274.986
274.969
274.963
274.986
274.994
274.994
274.886
274.889
274.92
274.89
274.994
274.994
274.983
274.993
274.993
274.986
274.984
274.993
274.993
274.84
274.874
274.861
274.886
274.881
274.836
271.704
271.742
271.644
271.636
272.662
272.072
272.039
274.046
274.048
274.408
274.133
274.19
274.032
274.074
274.362
275
275
275
275
275
275
275
275
275
275
274.22
274.554
274.535
274.608
274.58
274.242
274.366
274.462
274.422
274.519
274.499
274.332
275
275
275
274.998
274.996
275
274.999
271.533
271.947
271.689
271.672
271.732
271.728
272.589
272.652
272.044
271.479
271.484
272.171
271.534
271.492
271.538
272.493
271.709
271.557
274.534
274.57
274.739
274.432
274.443
274.404
274.411
274.674
274.481
274.496
272.174
271.671
271.725
271.618
271.626
272.204
275
275
274.999
274.998
274.999
274.999
274.978
274.992
274.984
274.983
274.986
274.988
274.983
274.985
274.92
274.936
274.857
274.86
274.848
274.853
274.964
274.907
274.909
274.857
274.861
274.942
274.859
274.732
274.71
274.655
274.764
274.753
274.843
274.735
274.732
274.77
274.75
274.838
274.881
274.786
274.797
274.745
274.767
274.872
274.723
274.393
274.652
274.633
274.047
274.07
274.866
274.95
274.945
274.854
274.923
274.971
274.958
274.695
274.655
274.85
274.859
274.937
274.782
274.739
274.977
274.984
274.995
274.988
274.968
274.94
274.967
274.997
274.999
274.999
274.997
274.998
274.995
274.991
274.994
274.999
274.998
274.997
274.999
274.998
274.999
274.996
274.996
274.995
274.997
273.866
273.774
274.366
273.698
273.777
273.53
274.025
273.25
273.173
273.549
273.491
274.737
274.469
274.529
274.349
274.407
274.721
274.912
274.805
274.835
274.564
274.735
274.881
274.413
274.318
274.628
273.968
274.029
273.863
273.915
274.609
274.691
274.252
274.297
274.096
274.171
274.676
274.963
274.974
272.734
271.844
271.968
271.594
271.714
272.717
272.011
272.039
272.038
272.327
272.636
270.94
271.062
271.15
270.948
272.737
272.65
271.382
271.484
271.185
271.289
272.628
272.67
272.597
272.988
272.893
271.94
271.849
272.319
272.249
274.877
274.879
274.985
274.993
274.993
274.993
274.993
274.984
271.472
272.538
272.703
271.746
271.073
272.159
272.342
270.931
270.833
273.438
271.996
271.987
273.215
271.778
271.48
271.969
271.914
273.307
271.157
271.039
271.524
271.685
271.027
270.88
271.216
274.86
274.925
274.92
274.932
274.929
274.864
274.791
274.808
274.808
274.776
274.776
274.79
274.812
274.896
274.89
274.912
274.904
274.823
271.443
271.979
272.037
271.895
271.935
271.452
271.766
272.382
272.501
272.126
272.247
271.625
271.7
271.339
271.348
271.434
271.381
271.5
271.759
271.844
271.442
271.602
271.483
274.835
274.825
274.709
274.543
274.594
271.814
271.923
272.429
271.806
271.678
271.998
271.931
272.513
271.654
271.654
273.988
274.003
275
275
275
275
275
275
275
275
275
275
275
275
275
275
275
275
275
275
275
275
275
275
275
275
275
275
275
275
275
275
275
275
275
275
275
275
275
275
275
275
275
275
275
275
275
275
275
275
275
275
275
275
275
275
275
275
275
275
275
275
275
275
275
275
275
275
275
275
275
275
275
275
275
275
275
275
275
275
275
275
275
275
275
275
275
275
275
275
275
275
275
275
275
275
275
275
275
275
275
275
275
275
275
275
275
275
275
275
275
275
275
275
275
275
275
275
275
275
275
275
275
275
275
275
275
275
275
275
275
275
275
275
275
275
275
275
274.997
274.997
271.923
274.831
274.847
275
275
275
275
275
275
275
275
275
275
275
275
275
273.29
273.249
274.143
275
275
275
275
275
275
275
275
275
275
275
274.996
274.127
273.302
274.603
275
275
275
275
275
275
275
275
275
275
275
275
275
275
275
275
275
275
275
275
275
275
275
275
275
275
275
275
275
275
275
275
275
275
275
275
275
275
275
275
275
275
275
275
275
275
275
274.997
274.998
275
270.852
272.744
272.768
273.8
273.804
269.841
275
275
275
275
275
275
275
275
275
275
275
275
275
275
275
275
275
275
275
275
275
275
275
275
275
275
275
275
275
275
275
275
275
275
275
275
275
275
275
275
275
275
275
275
275
275
275
275
275
275
275
275
275
275
275
275
274.996
274.999
274.999
275
275
274.999
274.998
274.996
274.998
275
275
275
275
275
275
275
275
275
275
275
275
275
275
275
275
275
275
275
275
275
274.977
274.994
274.994
274.995
274.995
274.98
275
275
275
275
275
275
275
275
275
275
275
275
275
275
275
275
275
275
275
275
275
274.984
275
275
274.995
274.995
274.982
274.971
274.919
274.926
275
275
275
275
275
275
275
275
275
274.994
274.958
274.966
274.98
274.982
274.994
275
275
275
275
275
275
275
275
275
274.998
274.994
274.994
274.99
274.991
274.998
274.998
274.997
275
272.245
274.97
274.97
274.353
274.374
271.471
274.994
274.994
273.165
275
274.999
275
275
274.999
275
275
275
275
275
275
275
275
275
275
275
274.998
275
275
275
275
275
275
275
274.999
274.998
274.998
275
275
275
275
275
275
275
275
275
275
275
275
274.984
274.996
274.995
274.998
274.998
274.992
275
275
275
274.975
274.941
274.95
274.837
274.842
274.932
274.956
274.96
274.983
275
275
275
274.995
274.998
274.998
274.999
275
275
274.998
274.998
274.996
275
275
275
274.98
274.995
274.995
274.994
274.994
274.978
275
275
275
274.917
274.803
274.798
274.854
274.849
274.939
274.926
274.829
274.833
274.795
274.793
274.913
275
275
275
274.996
274.995
274.987
275
275
275
274.941
274.674
274.618
274.849
274.84
274.957
274.945
274.864
274.859
274.599
274.532
274.929
274.992
274.977
274.979
274.934
274.94
274.978
275
275
275
274.995
274.999
274.999
274.999
274.999
274.998
274.988
274.996
274.996
274.999
274.999
274.992
275
275
275
274.978
274.919
274.913
274.943
274.939
274.984
274.964
274.867
274.858
274.908
274.902
274.974
274.997
274.989
274.989
274.969
274.975
274.995
274.998
275
274.999
275
275
274.999
275
275
275
274.991
274.715
274.678
274.662
274.702
274.991
274.986
274.948
274.946
274.999
274.965
274.967
275
275
275
275
275
275
275
275
275
275
275
275
275
275
275
275
275
275
275
275
275
274.993
275
275
275
275
274.993
274.849
274.744
274.76
274.639
274.664
274.798
275
275
275
275
275
275
274.999
274.999
275
275
275
275
275
275
275
275
275
275
274.989
275
275
275
275
274.989
275
275
275
273.874
273.29
273.228
273.601
273.543
274.087
274.755
274.593
274.614
275
275
275
274.999
275
275
275
275
274.999
274.196
273.711
273.658
273.944
273.908
274.323
275
275
275
275
275
275
275
275
275
275
275
275
275
275
275
275
275
275
275
275
275
275
275
275
275
275
275
275
275
275
275
275
275
275
275
275
275
275
275
274.944
274.955
274.993
274.996
274.987
274.988
274.91
274.841
274.85
274.774
274.787
274.874
274.898
274.97
274.967
274.974
274.972
274.903
274.998
274.992
274.992
274.995
274.998
275
274.999
274.982
274.993
274.985
274.995
274.993
275
275
274.999
275
275
275
274.999
274.999
275
275
275
275
274.877
274.883
274.955
274.946
274.866
274.872
274.98
274.983
274.993
274.989
274.975
274.977
274.994
274.994
274.987
275
275
275
275
275
275
275
275
275
275
275
275
274.986
274.994
274.994
274.999
274.999
274.999
275
275
275
275
275
275
275
275
275
275
275
275
274.997
274.999
274.999
274.826
274.823
274.926
274.93
274.831
274.828
274.807
274.81
274.917
274.914
274.801
274.804
274.994
274.994
274.982
275
275
275
275
275
275
275
275
275
275
275
275
274.982
274.994
274.994
275
275
275
275
275
275
275
275
275
275
275
275
274.806
274.692
274.945
272.728
273.519
273.591
272.976
273.049
272.098
274.954
274.829
274.818
274.925
274.504
274.417
274.964
274.966
274.988
274.985
274.957
274.96
274.997
274.997
274.99
275
275
275
275
275
275
275
275
275
275
275
275
274.991
274.997
274.997
273.395
272.694
272.64
273.155
273.069
273.689
274.882
274.875
274.966
273.331
274.016
274.067
273.65
273.709
272.903
273.708
274.623
274.648
274.567
274.595
273.644
274.972
274.896
274.889
272.805
271.999
271.968
272.576
272.49
273.204
274.986
274.987
274.997
274.805
274.885
274.878
274.927
274.922
274.859
274.869
274.86
274.76
274.996
274.984
274.985
274.368
273.46
273.327
273.623
273.509
274.393
274.386
274.016
273.98
274.911
274.682
274.72
274.857
274.865
274.924
275
275
275
275
275
275
274.998
275
275
275
275
274.998
274.709
274.699
273.036
274.994
274.957
274.958
274.957
274.957
274.994
274.996
275
275
275
275
274.995
275
275
275
271.89
271.764
270.871
274.335
273.673
273.484
273.709
273.688
274.336
274.905
274.583
274.538
274.711
274.77
274.914
269.769
272.42
272.992
275
275
275
275
275
275
275
275
275
275
275
275
275
275
275
275
275
275
274.999
274.999
274.996
275
275
275
275
275
275
274.998
274.995
274.995
274.994
274.994
274.977
275
274.999
274.999
274.999
274.999
275
275
274.999
274.999
274.999
274.999
275
274.979
274.995
274.994
274.911
274.915
274.969
274.993
274.994
274.998
274.948
274.978
274.976
274.981
274.98
274.951
274.969
274.772
274.668
274.777
274.775
274.969
272.197
274.078
274.077
275
275
275
275
275
275
275
275
275
274.999
274.998
274.999
275
275
275
275
275
275
275
275
275
275
275
275
275
275
275
275
275
275
274.997
274.996
274.985
275
274.999
274.999
274.999
274.999
275
275
274.999
275
274.999
274.999
275
274.99
274.997
274.997
274.913
274.928
274.971
274.561
274.819
274.776
274.891
274.864
274.701
274.245
274.647
274.639
274.665
274.656
274.266
274.935
274.846
274.851
274.818
274.912
274.904
274.923
274.918
274.827
274.984
274.963
274.966
274.996
274.997
274.994
274.999
274.999
274.999
274.999
274.997
274.997
274.997
274.997
274.999
275
274.999
274.999
274.999
274.999
275
274.978
274.995
274.995
274.813
274.808
274.919
273.96
274.559
274.576
274.524
274.541
273.885
274.821
274.825
274.924
274.16
274.615
274.606
274.632
274.624
274.187
273.776
274.509
274.514
274.518
274.51
273.802
274.913
274.792
274.793
274.999
274.997
274.997
274.997
274.997
274.999
274.998
274.998
274.999
274.986
274.995
274.995
274.999
274.997
274.997
274.997
274.997
274.999
274.999
274.997
274.997
274.997
274.997
274.999
274.973
274.975
274.992
274.884
274.941
274.936
274.95
274.945
274.893
274.979
274.944
274.947
274.999
274.999
274.997
275
275
275
275
275
275
275
275
275
275
275
275
274.997
274.999
274.999
274.928
274.923
274.979
274.104
274.713
274.732
274.671
274.693
274.063
274.476
274.778
274.791
274.749
274.764
274.448
274.983
274.936
274.932
272.819
272.216
272.178
272.312
272.259
272.863
274.953
274.951
274.987
274.573
274.825
274.834
274.804
274.814
274.552
272.141
272.106
272.7
275
275
275
274.715
274.729
274.84
274.81
274.685
274.701
275
275
275
275
275
275
275
275
275
273.392
273.343
273.923
272.081
272.703
272.748
272.258
272.91
272.987
272.794
272.846
272.19
274.05
273.49
273.44
273.8
273.758
274.226
272.624
273.201
273.25
273.068
273.141
272.558
275
275
275
275
275
275
275
274.999
274.999
275
275
275
274.994
274.994
274.997
274.906
274.828
274.842
274.806
274.816
274.9
274.928
274.869
274.876
274.853
274.861
274.924
274.821
274.832
274.904
274.534
274.723
274.707
274.75
274.738
274.559
274.688
274.67
274.425
274.882
274.799
274.81
274.991
274.978
274.981
274.969
274.974
274.99
274.998
274.994
274.996
274.985
274.99
274.997
274.941
274.865
274.872
274.972
274.922
274.955
274.882
274.898
274.96
274.999
274.997
274.99
275
274.999
275
274.998
274.998
275
275
274.999
274.999
275
275
275
274.999
274.999
275
274.999
274.999
274.998
274.383
274.716
274.706
274.746
274.728
274.401
274.958
274.891
274.9
274.856
274.861
274.943
274.325
274.681
274.673
274.697
274.689
274.339
274.969
274.972
274.988
274.85
274.932
274.927
274.941
274.936
274.856
274.999
274.998
274.998
274.998
274.998
274.999
274.987
274.995
274.995
274.994
274.994
274.986
274.999
274.998
274.997
274.998
274.998
274.999
274.075
274.599
274.604
274.587
274.595
274.071
274.924
274.82
274.817
274.055
274.579
274.569
274.597
274.589
274.083
274.919
274.814
274.817
274.795
274.798
274.913
273.922
274.54
274.529
274.559
274.549
273.954
274.999
274.997
274.997
274.997
274.997
274.999
274.982
274.994
274.994
274.995
274.994
274.983
274.999
274.998
274.998
274.997
274.997
274.999
274.999
274.997
274.997
274.997
274.997
274.999
274.999
274.997
274.997
274.997
274.997
274.999
274.328
273.647
273.555
273.784
273.722
274.372
274.144
273.262
273.188
273.452
273.35
274.19
273.334
273.424
272.634
274.586
274.114
274.062
274.475
273.892
273.839
274.005
273.947
274.505
272.205
273.135
273.233
272.058
272.014
273.475
273.962
272.969
272.848
273.122
273.053
274.014
273.644
272.276
272.14
272.675
272.468
273.73
274.989
274.969
274.971
274.95
274.953
274.984
272.811
272.749
273.448
273.626
272.976
272.886
272.122
272.044
272.864
273.118
272.372
272.239
274.945
274.899
274.905
274.884
274.892
274.941
274.96
274.921
274.926
274.91
274.916
274.956
274.744
274.851
274.843
273.037
272.473
272.383
272.585
272.563
273.1
274.524
274.281
274.278
274.225
274.254
274.501
275
275
275
275
275
275
275
275
275
275
275
275
275
275
275
275
275
275
275
275
275
275
275
275
275
275
275
275
275
275
275
275
275
275
275
275
274.998
275
274.999
274.983
274.996
274.996
274.912
274.956
274.953
274.961
274.959
274.916
274.994
274.983
274.984
275
275
275
274.973
274.989
274.987
274.992
274.991
274.976
275
275
275
275
275
275
275
275
275
274.991
274.994
274.996
274.948
274.978
274.971
274.985
274.982
274.96
274.996
274.998
274.998
274.995
274.995
274.98
275
274.999
274.999
274.999
274.999
275
274.121
274.648
274.661
274.629
274.637
274.089
274.937
274.845
274.841
274.286
274.701
274.713
274.674
274.687
274.253
274.996
274.996
274.988
275
275
274.998
275
275
275
274.648
274.858
274.865
274.843
274.851
274.631
274.989
274.958
274.956
274.96
274.984
274.983
274.986
274.985
274.962
272.783
273.376
273.423
273.292
273.333
272.741
274.301
273.873
273.837
275
275
275
275
275
275
275
275
275
275
275
275
275
275
275
275
275
275
274.985
274.986
274.995
274.931
274.967
274.964
274.971
274.969
274.936
275
275
275
274.999
275
274.999
274.877
274.95
274.945
274.964
274.956
274.888
274.994
274.985
274.988
274.999
274.999
275
274.998
274.999
274.997
274.837
274.834
274.932
274.052
274.617
274.622
274.608
274.612
274.054
274.372
274.743
274.754
274.724
274.734
274.352
274.989
274.996
274.996
274.997
274.997
274.992
273.892
273.958
273.24
272.965
273.762
273.829
274.902
274.894
274.816
274.932
274.936
274.968
274.85
274.916
274.91
274.083
274.05
274.406
273.044
273.579
273.625
273.475
273.527
272.976
273.241
273.774
273.817
273.681
273.729
273.197
274.622
274.775
274.763
274.798
274.787
274.645
274.927
274.872
274.879
272.924
272.384
272.452
272.428
272.401
272.945
270.86
271.751
271.765
272.105
272.218
269.788
274.543
273.923
273.617
274.219
274.117
274.533
275
275
275
275
275
275
275
275
275
275
275
275
275
275
275
275
275
275
275
275
275
275
275
275
275
275
275
275
275
275
275
275
275
275
275
275
275
275
275
275
275
275
275
275
275
275
275
275
275
275
275
275
275
275
275
275
275
275
275
275
275
275
275
275
275
275
275
275
275
275
275
275
275
275
275
275
275
275
275
275
275
275
275
275
275
275
275
275
275
275
275
275
275
275
275
275
275
275
275
275
275
275
275
275
275
275
275
275
275
275
275
275
275
275
275
275
275
271.662
273.807
273.797
275
275
275
275
275
275
275
275
275
275
274.998
274.998
274.109
274.979
274.979
275
275
275
275
275
275
275
275
275
275
275
275
275
275
275
274.991
274.137
274.132
274.614
275
275
275
275
275
275
275
275
275
275
275
275
275
275
275
275
275
275
275
275
275
275
275
275
275
275
275
275
275
275
275
275
275
275
275
275
275
275
275
275
275
275
275
275
274.985
274.996
274.996
275
275
275
272.785
272.796
271.414
275
275
275
275
275
275
275
275
275
274.999
275
275
274.994
274.998
274.998
274.998
274.998
274.993
275
275
274.999
274.991
274.965
274.963
274.962
274.96
274.989
274.995
274.995
274.999
275
275
275
275
275
275
275
275
275
274.994
274.998
274.999
274.998
274.998
274.992
275
275
275
275
275
275
275
275
275
275
275
275
274.99
274.998
274.998
274.997
274.997
274.987
274.999
275
275
275
275
274.999
274.999
275
275
275
275
275
275
275
275
275
275
275
275
275
275
274.884
274.936
274.932
274.955
274.953
274.914
273.833
274.332
274.362
274.11
274.15
273.527
275
275
275
275
275
275
275
275
275
274.928
274.96
274.958
275
275
275
275
275
275
274.184
274.529
274.548
274.39
274.416
273.98
275
275
275
275
275
275
275
275
275
275
275
275
275
275
275
275
275
275
275
274.999
274.999
274.999
274.999
275
275
275
275
275
275
275
275
275
275
274.999
274.995
274.996
275
275
275
275
275
275
275
275
275
275
275
275
275
275
275
275
275
275
275
275
275
275
275
275
275
275
275
275
275
275
275
275
275
275
275
275
275
275
275
275
275
275
275
275
275
275
275
275
275
275
275
275
275
275
275
275
275
275
275
275
275
275
275
275
275
275
275
275
275
274.997
275
275
275
275
274.997
273.865
273.837
271.787
274.826
274.524
274.539
274.523
274.522
274.827
275
275
275
275
275
275
275
275
275
275
275
275
274.997
274.998
275
273.277
274.857
274.853
274.869
274.863
273.264
274.979
274.979
274.127
275
275
275
275
275
275
275
275
275
275
275
275
275
275
275
275
275
275
275
275
275
275
275
275
275
275
275
275
275
275
275
275
275
275
275
275
275
275
275
274.997
275
275
275
275
274.998
275
275
275
271.777
271.788
270.869
270.081
272.141
272.085
275
275
275
275
275
275
275
275
275
275
275
275
275
275
275
275
275
275
275
275
275
275
275
275
275
275
275
275
275
275
275
275
275
275
275
275
275
275
275
275
275
275
275
275
275
275
275
275
275
275
275
275
275
275
275
275
275
275
275
275
275
275
275
275
275
275
274.996
274.996
274.985
275
274.999
274.999
274.999
274.999
275
275
275
275
274.961
274.983
274.981
274.985
274.984
274.964
274.071
274.067
272.268
274.97
274.779
274.779
274.361
273.739
273.726
273.758
273.75
274.368
271.434
272.804
272.806
274.959
274.96
274.994
273.219
274.724
274.717
275
275
275
275
275
274.999
275
275
275
275
275
275
274.999
275
275
275
275
274.999
275
275
275
275
275
275
275
275
274.999
275
275
275
275
275
275
275
275
275
275
275
275
275
275
275
275
275
275
274.656
274.857
274.864
274.843
274.85
274.637
274.579
274.827
274.835
274.808
274.818
274.557
275
275
275
274.998
274.998
274.995
274.993
274.998
274.997
275
275
275
275
275
275
274.971
274.987
274.986
274.989
274.988
274.973
275
275
275
275
275
275
274.999
275
275
274.967
274.966
274.991
274.705
274.883
274.887
274.872
274.878
274.692
274.657
274.852
274.854
274.885
274.86
274.666
274.996
274.996
274.999
274.965
274.986
274.986
274.987
274.986
274.966
275
275
275
275
275
275
274.998
274.998
274.993
274.992
274.998
274.998
275
275
275
275
275
275
275
275
275
275
275
275
274.997
274.997
274.99
274.988
274.997
274.997
275
275
274.999
274.999
275
275
275
275
275
275
275
275
275
275
275
275
275
275
275
275
275
275
275
275
275
275
275
275
275
275
275
275
275
275
275
275
275
275
275
275
275
275
275
275
275
275
275
275
275
275
275
275
275
275
274.948
274.976
274.974
274.98
274.978
274.951
274.944
274.94
274.891
274.909
274.95
274.947
274.996
274.999
274.998
274.999
274.999
274.997
274.986
274.995
274.994
274.997
274.996
274.99
274.871
274.877
274.709
274.473
274.786
274.798
274.764
274.775
274.444
274.262
274.298
273.772
273.583
274.187
274.225
273.414
273.93
273.967
273.856
273.895