/*--------------------------------*- C++ -*----------------------------------*\
| =========                 |                                                 |
| \\      /  F ield         | OpenFOAM: The Open Source CFD Toolbox           |
|  \\    /   O peration     | Version:  5.x                                   |
|   \\  /    A nd           | Web:      www.OpenFOAM.org                      |
|    \\/     M anipulation  |                                                 |
\*---------------------------------------------------------------------------*/
FoamFile
{
    version     2.0;
    format      ascii;
    class       volVectorField;
    location    "300";
    object      U;
}
// * * * * * * * * * * * * * * * * * * * * * * * * * * * * * * * * * * * * * //

dimensions      [0 1 -1 0 0 0 0];

internalField   nonuniform List<vector> 
6584
(
(1.00008 -0.000201358 4.7646e-27)
(1.00005 -0.000442203 2.31294e-25)
(1.00007 -0.000600222 2.08381e-30)
(1.00007 -0.000816775 -4.14455e-25)
(1.00008 -0.00104404 0)
(1.00008 -0.00129353 0)
(1.00007 -0.00153878 0)
(1.00003 -0.0017 4.27851e-25)
(0.999956 -0.00171122 4.34055e-25)
(0.999839 -0.00141591 0)
(0.999719 -0.000614 1.91295e-25)
(0.999638 0.000633333 -1.61351e-25)
(0.999663 0.00201536 -1.06727e-26)
(0.999789 0.00308196 2.67512e-26)
(0.999935 0.00356255 8.31354e-27)
(1.00009 0.0034735 8.68175e-25)
(1.00015 0.00306175 7.74643e-25)
(1.00018 0.00253804 6.27309e-26)
(1.00017 0.00200586 5.39751e-25)
(1.00015 0.00153314 3.8879e-25)
(1.00012 0.00114611 0)
(1.0001 0.000810389 0)
(1.00008 0.00057645 5.84598e-25)
(1.0001 0.000256447 3.58684e-25)
(1.00031 -0.000423109 -2.25867e-25)
(1.00027 -0.000890734 -8.81492e-25)
(1.00032 -0.00118491 -1.18193e-24)
(1.00035 -0.00162235 0)
(1.0004 -0.00208071 -1.57736e-25)
(1.0004 -0.00259808 -1.32046e-24)
(1.00036 -0.0031318 -8.05216e-25)
(1.00014 -0.00351051 1.3602e-24)
(0.999835 -0.0035992 -6.12202e-26)
(0.999052 -0.00305408 -3.15551e-25)
(0.998122 -0.00141898 -1.08668e-28)
(0.997542 0.00121195 0)
(0.997712 0.00416533 4.85554e-25)
(0.998586 0.00640912 3.032e-25)
(0.999716 0.00739702 -1.93596e-24)
(1.00047 0.00715456 -5.13353e-25)
(1.00078 0.00621518 -1.19192e-24)
(1.00088 0.00509132 -1.55277e-24)
(1.00081 0.00398107 -3.99575e-24)
(1.0007 0.0030198 -3.2897e-24)
(1.00057 0.00225182 -2.27776e-25)
(1.00048 0.00158257 -9.59416e-26)
(1.00038 0.00114897 0)
(1.00041 0.000533105 3.13033e-25)
(1.00069 -0.000649972 -5.70758e-25)
(1.00065 -0.00131885 0)
(1.00078 -0.00172608 -2.31146e-25)
(1.00086 -0.00238494 -1.54184e-24)
(1.00099 -0.00308677 -2.33656e-24)
(1.00104 -0.00392074 0)
(1.00096 -0.00486735 0)
(1.00048 -0.00559263 -3.4083e-25)
(0.999578 -0.00634861 -1.27835e-25)
(0.998235 -0.00442739 1.03766e-25)
(0.99669 -0.00241775 -1.81834e-25)
(0.995525 0.00103753 -2.56095e-25)
(0.99571 0.00519942 0)
(0.997286 0.00845047 0)
(0.999273 0.00993941 3.35748e-26)
(1.00122 0.0115265 -2.16945e-24)
(1.00205 0.00957183 0)
(1.00225 0.00764993 -6.9586e-25)
(1.00205 0.00585178 0)
(1.00173 0.00436898 -5.21652e-25)
(1.0014 0.00323321 -1.41171e-24)
(1.00115 0.00225018 -8.44503e-25)
(1.00092 0.00166102 0)
(1.00089 0.000800227 2.4346e-25)
(1.00115 -0.000861791 -3.50212e-25)
(1.00117 -0.00169251 0)
(1.00139 -0.00218958 -3.10826e-25)
(1.00159 -0.00305729 0)
(1.00187 -0.0040067 0)
(1.00206 -0.00521947 0)
(1.00203 -0.00673605 -5.19904e-25)
(1.00138 -0.00820388 4.344e-24)
(0.999661 -0.0100176 -3.02605e-25)
(0.997068 -0.00804004 3.2371e-25)
(0.993701 -0.00566094 -1.92773e-25)
(0.990398 -8.83895e-05 4.52007e-26)
(0.990222 0.00786681 4.79972e-26)
(0.993961 0.014012 0)
(0.998574 0.0158438 -3.23457e-24)
(1.00183 0.014476 0)
(1.0045 0.0131182 0)
(1.00444 0.010169 5.05039e-24)
(1.00391 0.00750475 3.30727e-24)
(1.00318 0.00547294 -1.10714e-24)
(1.00253 0.00400235 -7.72707e-25)
(1.00204 0.0027513 0)
(1.00161 0.00205441 3.52961e-25)
(1.00146 0.00102371 2.88579e-25)
(1.00166 -0.00103836 -1.35978e-25)
(1.00178 -0.0019767 -8.93103e-27)
(1.00214 -0.00252951 -4.24988e-26)
(1.00253 -0.00357437 -6.4793e-26)
(1.00304 -0.0047383 1.38436e-25)
(1.00358 -0.00635777 3.41625e-24)
(1.00383 -0.00856957 -5.38751e-24)
(1.00357 -0.0110257 5.02795e-24)
(1.00017 -0.0119177 2.43605e-25)
(0.996722 -0.0132422 1.47377e-24)
(0.990107 -0.0117041 -2.27945e-25)
(0.981146 -0.00340888 2.5911e-25)
(0.979574 0.0119678 -3.70109e-26)
(0.989029 0.0232103 4.65037e-24)
(0.999029 0.024486 0)
(1.00464 0.0206157 3.15104e-24)
(1.00641 0.0155149 -6.98248e-25)
(1.00755 0.0118294 -4.05991e-24)
(1.0064 0.00868329 -2.31616e-24)
(1.00501 0.00614013 9.22872e-25)
(1.00391 0.00445138 -5.55058e-26)
(1.00306 0.00301205 -3.20228e-26)
(1.00241 0.00227394 4.02013e-25)
(1.00206 0.00117195 -1.52718e-25)
(1.0022 -0.00115971 6.75787e-26)
(1.00245 -0.00213572 -1.79155e-25)
(1.00297 -0.00269217 -9.97248e-27)
(1.00362 -0.00384448 0)
(1.00448 -0.00510862 -7.21341e-25)
(1.00558 -0.00706837 -3.09412e-25)
(1.00641 -0.00948556 -2.15297e-24)
(1.00524 -0.0120874 -5.32566e-25)
(1.00321 -0.0159898 2.21574e-24)
(0.999336 -0.0210259 8.40238e-24)
(0.986799 -0.0211428 1.78338e-24)
(0.969573 -0.0127539 2.66278e-28)
(0.962064 0.015411 -7.8625e-26)
(0.982515 0.0363782 6.74549e-25)
(1.00331 0.0374334 -7.09591e-24)
(1.01078 0.0276685 0)
(1.01164 0.019458 4.14975e-28)
(1.01159 0.0126827 7.86459e-25)
(1.00939 0.00913493 2.0437e-25)
(1.00711 0.00620913 1.03372e-24)
(1.00544 0.00446999 -3.84561e-25)
(1.00415 0.0029645 0)
(1.00323 0.00227105 -2.06979e-25)
(1.00264 0.00121607 -2.91455e-25)
(1.00271 -0.00120947 7.46477e-28)
(1.00312 -0.00214279 -8.4245e-26)
(1.00381 -0.00263648 1.06059e-25)
(1.00477 -0.00379566 1.06783e-26)
(1.00603 -0.00499033 1.67716e-26)
(1.00785 -0.00712278 -1.15325e-24)
(1.0096 -0.00952186 -1.60183e-24)
(1.0091 -0.0132253 -7.54361e-26)
(1.00943 -0.0193848 -3.34261e-25)
(1.00754 -0.0292083 1.24543e-24)
(0.992527 -0.0392197 0)
(0.954035 -0.041094 1.19084e-24)
(0.910448 0.0225735 4.34707e-26)
(0.980215 0.0743047 3.16846e-24)
(1.01282 0.0521189 -9.41983e-27)
(1.0221 0.0331965 0)
(1.01928 0.0211596 2.14512e-24)
(1.01636 0.0118954 4.3358e-25)
(1.01264 0.00847783 3.5185e-25)
(1.00929 0.00550606 -9.20349e-26)
(1.00696 0.00396462 -8.27322e-25)
(1.00517 0.00256109 0)
(1.00398 0.00201305 -1.89475e-25)
(1.00312 0.00113439 -1.79771e-25)
(1.00315 -0.00117912 -8.31142e-26)
(1.00373 -0.00198948 7.36147e-26)
(1.00457 -0.00234968 3.86122e-26)
(1.00583 -0.00339314 2.80675e-26)
(1.00751 -0.00431197 -4.36876e-26)
(1.01004 -0.00628687 5.49329e-25)
(1.01293 -0.00812468 1.35844e-28)
(1.01397 -0.012355 -2.13478e-25)
(1.01793 -0.0192575 2.13105e-28)
(1.02256 -0.0316393 -3.06972e-24)
(1.01777 -0.0542935 -8.08877e-26)
(0.992898 -0.10813 3.03248e-26)
(1.02344 0.130255 5.53557e-25)
(1.04215 0.0628608 -5.58096e-25)
(1.03836 0.0324977 1.17642e-24)
(1.02865 0.0189318 -2.37535e-25)
(1.02104 0.00893573 7.60644e-25)
(1.01563 0.00646888 7.70738e-25)
(1.01122 0.00394687 5.40522e-25)
(1.00825 0.002902 -2.54792e-25)
(1.00599 0.00179621 0)
(1.00456 0.00149595 0)
(1.00342 0.000918719 -2.29924e-30)
(1.00347 -0.00107183 -1.53542e-26)
(1.0042 -0.00169299 -2.68482e-27)
(1.00515 -0.00186171 -1.19145e-26)
(1.00665 -0.00267148 6.28942e-26)
(1.00865 -0.00312907 7.54273e-26)
(1.0117 -0.00458307 4.00613e-25)
(1.01552 -0.00532848 1.11863e-24)
(1.01849 -0.00902395 0)
(1.02606 -0.0139823 0)
(1.03823 -0.0227036 0)
(1.05224 -0.0431873 -1.08602e-25)
(1.083 -0.0891644 1.38454e-26)
(1.12634 0.107371 0)
(1.07941 0.0459454 0)
(1.05362 0.0213717 0)
(1.03694 0.011737 2.31663e-25)
(1.0244 0.00397888 0)
(1.01765 0.00320975 -8.27484e-25)
(1.01251 0.0016517 -5.3744e-25)
(1.00906 0.00135913 -4.92099e-26)
(1.00647 0.000728788 0)
(1.00487 0.000754989 9.66805e-27)
(1.0035 0.000578722 1.14627e-26)
(1.00366 -0.000903396 2.97801e-27)
(1.00449 -0.00129759 -4.59567e-27)
(1.00549 -0.00124936 5.25597e-27)
(1.0071 -0.001752 2.79566e-26)
(1.00922 -0.00166389 -7.1619e-26)
(1.01241 -0.00236827 -5.57912e-27)
(1.0166 -0.00183928 -1.10779e-25)
(1.02102 -0.00398534 -7.22954e-27)
(1.03016 -0.005059 0)
(1.04535 -0.00608549 -2.76287e-25)
(1.06923 -0.011994 1.3341e-30)
(1.1171 -0.0214648 -3.49269e-26)
(1.16917 0.0200863 -8.98586e-26)
(1.09828 0.00773104 -3.29207e-25)
(1.06009 0.00276696 -2.51011e-24)
(1.04085 0.0010969 0)
(1.0254 -0.00191379 -1.62414e-24)
(1.01817 -0.000754029 0)
(1.01286 -0.0010341 -1.07014e-26)
(1.00924 -0.000465559 0)
(1.0065 -0.000515419 -2.75388e-27)
(1.00485 -0.000134729 -1.00509e-27)
(1.00332 0.00014342 -3.00565e-26)
(1.00372 -0.00069939 0)
(1.00459 -0.000865296 -2.5832e-26)
(1.00556 -0.000616907 -2.80296e-26)
(1.00714 -0.000807337 5.94055e-27)
(1.00917 -0.000226501 7.18961e-27)
(1.0121 -0.000184193 8.01542e-26)
(1.01599 0.00137856 3.61518e-25)
(1.02079 0.00113577 1.71256e-25)
(1.02884 0.00385886 0)
(1.04128 0.00983388 1.37546e-24)
(1.06253 0.0188692 4.25591e-25)
(1.09963 0.0423785 -1.64984e-26)
(1.14419 -0.0597118 -4.45583e-26)
(1.09021 -0.0298259 5.35438e-25)
(1.05545 -0.0156837 1.10354e-25)
(1.03907 -0.00960242 1.43599e-24)
(1.02382 -0.00734443 7.12355e-24)
(1.0171 -0.00463077 3.95773e-24)
(1.0122 -0.00364571 -2.6684e-24)
(1.00873 -0.00230922 -1.88169e-24)
(1.00606 -0.0017735 1.14322e-25)
(1.00447 -0.00107326 4.91047e-26)
(1.00288 -0.000344812 -1.14411e-25)
(1.00366 -0.000488749 3.37801e-27)
(1.00452 -0.000459264 1.02821e-26)
(1.00539 -6.42188e-05 1.3239e-26)
(1.00682 -3.81142e-07 1.10461e-26)
(1.00861 0.000911268 -4.38142e-34)
(1.01101 0.00149748 1.70825e-25)
(1.01412 0.00358748 5.68599e-25)
(1.01828 0.00485236 2.01053e-25)
(1.02356 0.00970902 0)
(1.03004 0.0188523 -3.80755e-25)
(1.04102 0.0350335 -9.15087e-26)
(1.05146 0.0696408 -2.16796e-26)
(1.085 -0.0985788 -2.24279e-26)
(1.06463 -0.0510041 0)
(1.04336 -0.0277679 -2.18197e-24)
(1.03287 -0.017375 1.78427e-24)
(1.02028 -0.0112815 1.00872e-23)
(1.01478 -0.00772865 6.63856e-24)
(1.0107 -0.00578766 0)
(1.00764 -0.00392612 -1.65678e-24)
(1.0052 -0.00289586 -9.31013e-25)
(1.00377 -0.00196051 7.54537e-26)
(1.00221 -0.00083974 -9.3955e-26)
(1.00351 -0.000296748 0)
(1.00431 -0.000127248 5.33078e-27)
(1.00506 0.000342749 -6.52766e-27)
(1.00629 0.000568126 -1.8215e-26)
(1.00775 0.0016109 0)
(1.00955 0.00245014 -6.09574e-26)
(1.01177 0.00456066 8.58587e-26)
(1.01473 0.00652402 -3.44626e-26)
(1.01713 0.0115324 -5.92717e-26)
(1.018 0.0197806 2.03093e-25)
(1.01866 0.0344506 3.93256e-26)
(1.00769 0.0614255 0)
(1.02874 -0.0938377 -2.57973e-26)
(1.03649 -0.0535361 1.98268e-25)
(1.02962 -0.0316217 9.93985e-25)
(1.02489 -0.0210089 1.26825e-25)
(1.01588 -0.0133752 4.35925e-24)
(1.01182 -0.00969663 4.62902e-24)
(1.00868 -0.00724705 0)
(1.00615 -0.00515523 -2.37923e-26)
(1.00404 -0.00377824 3.73624e-25)
(1.00283 -0.00272158 2.07659e-25)
(1.00137 -0.00130072 7.36732e-27)
(1.00332 -0.000140625 0)
(1.00403 0.000106127 0)
(1.00466 0.000581759 0)
(1.00567 0.000874454 0)
(1.00683 0.00187499 -1.72339e-26)
(1.00812 0.0027277 -1.81956e-26)
(1.0096 0.0044328 -1.65982e-25)
(1.01067 0.0069152 2.93565e-24)
(1.01191 0.0102642 0)
(1.00956 0.0154252 0)
(1.00492 0.0234769 6.31409e-25)
(0.983775 0.0320204 2.0472e-24)
(0.533738 -0.0243083 -6.71459e-26)
(0.996452 -0.0567514 -3.79794e-24)
(1.01675 -0.043678 -7.22549e-25)
(1.0186 -0.029277 -5.00904e-27)
(1.01744 -0.0210963 -2.8169e-26)
(1.01158 -0.0138773 -1.14011e-24)
(1.00882 -0.0105549 1.86053e-25)
(1.00648 -0.00801101 3.12739e-27)
(1.00448 -0.00594427 -1.67125e-24)
(1.00274 -0.00438335 0)
(1.00174 -0.00331385 7.63256e-26)
(1.00043 -0.00169941 -1.90434e-25)
(1.00312 -2.83053e-05 0)
(1.00374 0.000238082 -3.35903e-26)
(1.00426 0.00066694 2.85542e-27)
(1.00509 0.000952674 0)
(1.00601 0.00180466 0)
(1.00695 0.00250357 -1.13065e-24)
(1.00796 0.00379465 1.58473e-25)
(1.00861 0.00529978 3.68064e-24)
(1.00868 0.00762327 4.19433e-24)
(1.00607 0.00986934 2.15759e-24)
(1.00105 0.0121493 0)
(0.987497 0.00831078 -2.15012e-25)
(0.784592 -0.0209771 2.34489e-25)
(0.995282 -0.0321376 -3.58495e-25)
(1.00739 -0.0289563 3.51667e-25)
(1.01184 -0.0241182 -3.65612e-25)
(1.00985 -0.0170261 6.89631e-25)
(1.008 -0.0132378 -1.49536e-25)
(1.00613 -0.0105195 5.28614e-29)
(1.00437 -0.00819445 -3.2402e-27)
(1.00283 -0.00633565 0)
(1.0014 -0.00472398 -7.16838e-25)
(1.0006 -0.00372756 -8.62493e-25)
(0.999452 -0.00202276 -2.51128e-25)
(1.00294 3.98249e-05 1.13058e-27)
(1.00348 0.00028084 -3.70189e-26)
(1.00391 0.000631768 5.05894e-26)
(1.00461 0.00086318 7.19045e-30)
(1.00537 0.00152042 -1.97469e-25)
(1.00613 0.00200077 -8.44813e-25)
(1.00693 0.00283237 -1.9236e-24)
(1.00736 0.00369511 -2.29662e-24)
(1.00723 0.00487588 -9.85998e-25)
(1.00557 0.00519922 -1.32882e-25)
(1.00252 0.00385455 0)
(0.995469 0.000591511 -9.17827e-26)
(0.819759 -0.0179823 -9.49449e-25)
(1.00074 -0.0187885 -1.36368e-25)
(1.00552 -0.0210642 -1.13209e-25)
(1.00832 -0.0191643 -1.85441e-25)
(1.0069 -0.0147658 -2.99933e-24)
(1.00535 -0.0121746 0)
(1.00392 -0.0099948 -5.02444e-25)
(1.00252 -0.00799512 -1.79969e-25)
(1.00129 -0.00640961 -2.2665e-26)
(1.00011 -0.00484282 1.32502e-25)
(0.999467 -0.00397147 0)
(0.99849 -0.00226433 0)
(1.0028 6.81994e-05 -1.00421e-27)
(1.00326 0.000253873 7.06936e-28)
(1.00365 0.00051435 3.44632e-26)
(1.00426 0.000669911 0)
(1.00495 0.00112374 -1.09697e-25)
(1.00562 0.0014006 0)
(1.00643 0.00178861 -2.01411e-24)
(1.00692 0.00221644 8.93165e-25)
(1.00735 0.00195529 -4.25935e-26)
(1.00622 0.00207765 -6.46559e-26)
(1.00544 -9.77726e-06 2.83514e-25)
(0.999835 -0.00595303 -1.49299e-25)
(0.885139 -0.015454 -1.03309e-24)
(1.00327 -0.0151328 6.15698e-26)
(1.0055 -0.01594 2.83662e-25)
(1.00662 -0.0152317 9.36274e-26)
(1.00475 -0.0126731 -1.40899e-24)
(1.00343 -0.0108219 1.6472e-24)
(1.00217 -0.00920907 0)
(1.00097 -0.00755187 5.77161e-25)
(0.999935 -0.00626606 -6.59578e-26)
(0.998929 -0.00479921 1.51063e-25)
(0.998402 -0.00407867 0)
(0.997574 -0.00243218 0)
(1.00271 6.35017e-05 1.24704e-26)
(1.00311 0.000178017 2.25531e-27)
(1.00347 0.000348982 -2.03587e-26)
(1.00403 0.000427744 2.94617e-26)
(1.00472 0.000694637 0)
(1.00539 0.000821956 0)
(1.00631 0.000881158 -1.00324e-24)
(1.00699 0.00103154 -3.31733e-26)
(1.00799 0.000353334 1.21164e-25)
(1.00715 -0.000135716 -4.26185e-25)
(1.00745 -0.00189281 0)
(0.998257 -0.00506262 -5.15323e-25)
(0.897114 -0.0154908 -3.02358e-24)
(1.00614 -0.0108073 4.88249e-25)
(1.00559 -0.0114754 9.84633e-25)
(1.00548 -0.0110707 2.35246e-24)
(1.00351 -0.0107535 1.35546e-24)
(1.00214 -0.00938515 1.3506e-24)
(1.00083 -0.00833618 -2.16304e-25)
(0.999713 -0.00697391 -1.43403e-25)
(0.998777 -0.00598488 -2.97087e-25)
(0.997892 -0.00464323 -1.06687e-24)
(0.997434 -0.00407813 3.94682e-27)
(0.996731 -0.00253453 -5.44751e-26)
(1.00267 3.27108e-05 1.28939e-26)
(1.00302 7.1637e-05 3.22117e-27)
(1.00339 0.000161567 -2.31507e-26)
(1.00392 0.000175002 4.09361e-28)
(1.00463 0.000281042 0)
(1.00533 0.000322842 0)
(1.00641 0.000130516 7.60418e-25)
(1.00722 0.000268819 2.70787e-25)
(1.00883 -0.000870985 -2.59152e-25)
(1.00802 -5.96864e-05 -6.43473e-25)
(1.00961 -0.00508798 0)
(0.958103 0.00210336 -6.74529e-25)
(0.948489 -0.013455 -4.35622e-26)
(1.00934 -0.00586818 2.34821e-25)
(1.00558 -0.0105768 1.10925e-25)
(1.00549 -0.00894542 -5.39237e-25)
(1.00286 -0.00930115 -4.05255e-25)
(1.00129 -0.00812673 2.17158e-25)
(0.999828 -0.00751264 -5.23917e-26)
(0.998727 -0.0063553 -1.01372e-24)
(0.99781 -0.00563566 -3.34631e-25)
(0.997002 -0.00441957 -1.37794e-24)
(0.996575 -0.00399996 0)
(0.995974 -0.00258309 -1.95171e-25)
(1.00268 -1.8102e-05 -1.56611e-27)
(1.003 -5.12866e-05 9.09108e-28)
(1.00337 -3.14452e-05 0)
(1.00389 -6.66799e-05 9.68432e-27)
(1.00466 -9.9397e-05 0)
(1.00538 -8.41387e-05 -1.73095e-25)
(1.00663 -0.000504708 -1.59166e-25)
(1.00751 -0.00022538 1.55172e-26)
(1.00951 -0.00186471 -1.68718e-25)
(1.00885 -0.000273904 -2.05727e-25)
(1.00984 -0.00585443 -8.93201e-26)
(0.96028 0.000758409 -2.39552e-24)
(0.950466 -0.0108512 9.88949e-25)
(1.00923 -0.00414338 -2.21838e-25)
(1.0059 -0.00945125 -6.76088e-26)
(1.0055 -0.00715252 5.79141e-29)
(1.0024 -0.00818543 -2.17765e-25)
(1.00071 -0.00701647 -2.79581e-25)
(0.999071 -0.00677531 -5.761e-25)
(0.997955 -0.00574549 -1.52911e-25)
(0.99701 -0.00526449 -9.18692e-26)
(0.996248 -0.00416051 -4.5477e-25)
(0.995827 -0.00387074 -1.93785e-25)
(0.995307 -0.00258877 -8.63698e-26)
(1.00274 -8.41744e-05 0)
(1.00302 -0.000180965 -3.70489e-27)
(1.00342 -0.000220631 -2.33586e-26)
(1.00393 -0.000286023 1.98381e-26)
(1.00476 -0.000441063 1.7003e-25)
(1.00551 -0.00040368 -3.88836e-25)
(1.00691 -0.001038 0)
(1.00785 -0.000556103 -1.66068e-25)
(1.01008 -0.00257972 0)
(1.00974 -0.000491889 0)
(1.01034 -0.00598806 2.09224e-27)
(0.961949 0.000128163 9.25158e-27)
(0.952115 -0.00927155 4.28805e-25)
(1.00958 -0.00314979 -1.29079e-25)
(1.0064 -0.00843166 -1.10979e-26)
(1.00553 -0.00575671 2.53769e-27)
(1.00211 -0.00730015 3.95297e-26)
(1.0003 -0.00603944 -1.23459e-25)
(0.998492 -0.00613164 -1.51091e-25)
(0.99735 -0.00516727 2.42282e-25)
(0.99635 -0.00489782 -9.11406e-26)
(0.995616 -0.00388738 0)
(0.995181 -0.00371056 4.30317e-30)
(0.994724 -0.00256084 0)
(1.00283 -0.000161993 0)
(1.00309 -0.000310969 -1.43864e-26)
(1.00352 -0.000401028 -1.04382e-26)
(1.00402 -0.000478227 1.96323e-26)
(1.00491 -0.000742529 0)
(1.00568 -0.000647159 5.93962e-26)
(1.00721 -0.00147212 -4.76762e-25)
(1.00822 -0.000773716 -3.88778e-25)
(1.01058 -0.00305531 -6.68583e-26)
(1.01053 -0.000641206 -1.99405e-27)
(1.0108 -0.00591811 3.00797e-25)
(0.962895 -0.000240314 -2.8186e-25)
(0.953064 -0.00813054 5.2798e-25)
(1.00998 -0.00248942 -9.45605e-26)
(1.00686 -0.00760747 1.02684e-25)
(1.00557 -0.00469309 6.04592e-27)
(1.00195 -0.00659075 -8.86252e-26)
(1.00002 -0.00520009 8.72456e-26)
(0.998051 -0.00558184 1.9573e-25)
(0.996875 -0.00463391 -3.6159e-30)
(0.995807 -0.00455154 -4.31777e-26)
(0.995088 -0.00361397 -2.75565e-25)
(0.994628 -0.00353395 1.44171e-25)
(0.99422 -0.00250686 1.31321e-25)
(1.00295 -0.000249104 -1.3642e-26)
(1.00319 -0.000437551 -2.27319e-26)
(1.00365 -0.000570707 -9.36988e-34)
(1.00415 -0.000643168 5.69801e-26)
(1.0051 -0.00100561 1.7507e-25)
(1.00589 -0.000829948 4.39019e-26)
(1.00751 -0.00181971 -4.95399e-25)
(1.0086 -0.000918193 -3.60475e-25)
(1.01101 -0.0033696 2.08592e-25)
(1.01119 -0.000756537 0)
(1.01115 -0.00577356 5.98733e-26)
(0.963506 -0.000475015 -1.07712e-25)
(0.953661 -0.0072652 1.57521e-25)
(1.01029 -0.00201412 -7.32159e-26)
(1.00724 -0.00692329 -6.34374e-31)
(1.00561 -0.00387014 -1.61411e-25)
(1.00187 -0.00601476 -7.19582e-26)
(0.99981 -0.00448911 -1.4234e-26)
(0.997713 -0.00511721 1.03369e-25)
(0.996499 -0.0041516 -1.37635e-25)
(0.995359 -0.00423387 -2.35749e-25)
(0.994649 -0.00334892 -1.15553e-25)
(0.994156 -0.00335139 -1.23692e-25)
(0.993786 -0.00243286 1.13737e-25)
(1.00309 -0.000343811 -3.45285e-34)
(1.00332 -0.000558991 -1.44509e-26)
(1.0038 -0.000729524 1.77888e-26)
(1.0043 -0.000783553 3.44275e-26)
(1.0053 -0.00123418 3.69686e-29)
(1.00611 -0.000967008 0)
(1.0078 -0.00209637 -3.42579e-26)
(1.00895 -0.00101742 -3.5332e-25)
(1.01137 -0.00357278 1.77375e-25)
(1.01174 -0.000848073 0)
(1.01142 -0.00559245 -1.27258e-30)
(0.963928 -0.000622467 8.12281e-26)
(0.95406 -0.00660163 -1.62615e-25)
(1.01056 -0.00167092 0)
(1.00756 -0.00635322 -4.89971e-28)
(1.00565 -0.00322922 3.61392e-26)
(1.00184 -0.00554176 0)
(0.999652 -0.00389085 3.81745e-26)
(0.997451 -0.00472605 3.34204e-26)
(0.996198 -0.00372115 -3.76768e-25)
(0.994988 -0.00394766 -9.85235e-26)
(0.99428 -0.00309717 9.74253e-26)
(0.993753 -0.0031696 -1.29033e-25)
(0.993411 -0.00234353 0)
(1.00325 -0.000444975 1.82255e-26)
(1.00346 -0.000674813 -1.65754e-26)
(1.00397 -0.000878326 0)
(1.00446 -0.000903254 2.85204e-26)
(1.00551 -0.00143282 9.77884e-26)
(1.00634 -0.00107096 2.37641e-26)
(1.00807 -0.00231599 0)
(1.00929 -0.00108857 7.07875e-27)
(1.01169 -0.00369919 1.67957e-25)
(1.01221 -0.000923855 0)
(1.01163 -0.00540402 4.18245e-26)
(0.964209 -0.000715663 2.992e-26)
(0.95431 -0.00608133 -1.09692e-25)
(1.01078 -0.00142153 1.25374e-26)
(1.00782 -0.00588012 -4.42615e-26)
(1.00569 -0.00272979 -1.87749e-27)
(1.00183 -0.00515064 2.443e-26)
(0.999528 -0.00339026 -8.94184e-27)
(0.997244 -0.00439713 8.90512e-28)
(0.995952 -0.00334077 -1.3303e-25)
(0.994677 -0.00369297 5.12737e-26)
(0.993969 -0.00286126 5.29245e-26)
(0.993406 -0.00299308 -2.2163e-26)
(0.993086 -0.00224257 -1.27779e-26)
(1.00341 -0.000551723 -3.26989e-27)
(1.00362 -0.000785289 -2.78995e-26)
(1.00415 -0.00101825 -8.57076e-27)
(1.00464 -0.00100631 0)
(1.00572 -0.00160611 3.94152e-25)
(1.00656 -0.00115188 0)
(1.00833 -0.00249068 -2.38162e-25)
(1.0096 -0.00114335 0)
(1.01197 -0.00377384 1.40585e-25)
(1.0126 -0.000991371 1.00838e-25)
(1.01178 -0.00522256 0)
(0.964379 -0.000782366 2.32774e-26)
(0.954454 -0.00566943 0)
(1.01096 -0.00124191 9.93603e-27)
(1.00804 -0.00548522 -1.18257e-26)
(1.00571 -0.00234089 0)
(1.00183 -0.00482536 0)
(0.999425 -0.00297413 -7.55917e-27)
(0.997077 -0.00412069 1.17831e-26)
(0.995746 -0.00300769 0)
(0.994413 -0.00346807 0)
(0.993702 -0.00264228 4.9823e-26)
(0.993105 -0.00282441 1.06346e-26)
(0.9928 -0.00213293 -3.80005e-26)
(1.00358 -0.000663278 3.42562e-27)
(1.00378 -0.000890964 3.19109e-27)
(1.00433 -0.00115045 0)
(1.00482 -0.00109651 -1.05003e-26)
(1.00593 -0.00175822 2.10222e-25)
(1.00678 -0.00121749 1.3925e-26)
(1.00856 -0.00263074 -2.00874e-25)
(1.00989 -0.00118997 3.93379e-27)
(1.01222 -0.00381546 0)
(1.01294 -0.00105277 8.98047e-26)
(1.01186 -0.00505718 0)
(0.964462 -0.000843447 0)
(0.95454 -0.0053394 0)
(1.01111 -0.00111154 3.77581e-26)
(1.00821 -0.00515291 8.67323e-26)
(1.00573 -0.00203975 0)
(1.00183 -0.00455374 -1.08034e-27)
(0.999334 -0.00263104 0)
(0.996937 -0.00388842 0)
(0.995569 -0.0027185 0)
(0.994185 -0.00327056 0)
(0.993468 -0.00244105 -5.17059e-26)
(0.992839 -0.00266514 -4.02299e-26)
(0.992546 -0.00201748 7.97945e-31)
(1.00375 -0.00077878 0)
(1.00394 -0.000992325 9.25167e-27)
(1.00451 -0.0012758 -2.56345e-26)
(1.005 -0.00117683 2.01826e-26)
(1.00613 -0.00189273 1.99664e-25)
(1.007 -0.00127345 3.90726e-25)
(1.00878 -0.00274469 0)
(1.01016 -0.00123419 0)
(1.01244 -0.00383813 1.25816e-26)
(1.01322 -0.00111324 1.76814e-26)
(1.01192 -0.0049149 -2.49696e-33)
(0.964485 -0.00090238 -1.49795e-26)
(0.954561 -0.00506916 1.33844e-25)
(1.01123 -0.00101865 2.8005e-26)
(1.00835 -0.00488011 3.61608e-27)
(1.00574 -0.0018075 0)
(1.00183 -0.004328 -5.70905e-26)
(0.999249 -0.0023492 -8.62082e-26)
(0.996815 -0.00369369 0)
(0.99541 -0.00246857 -8.67624e-26)
(0.993983 -0.00309815 -7.17341e-41)
(0.993258 -0.00225681 1.23636e-25)
(0.9926 -0.00251627 7.55131e-26)
(0.992313 -0.00189809 6.19937e-26)
(1.00391 -0.000897175 -2.23913e-26)
(1.0041 -0.00108955 6.09935e-27)
(1.00468 -0.00139473 -9.90705e-27)
(1.00517 -0.00124953 3.93711e-26)
(1.00632 -0.00201239 1.73286e-25)
(1.00721 -0.00132374 7.4481e-25)
(1.00898 -0.00283899 0)
(1.0104 -0.00127884 0)
(1.01264 -0.00385081 1.11547e-26)
(1.01347 -0.00117638 0)
(1.01195 -0.00479652 0)
(0.964465 -0.000964178 0)
(0.954532 -0.0048504 0)
(1.01133 -0.000958722 -1.94531e-26)
(1.00847 -0.00465776 -5.45757e-26)
(1.00574 -0.00163116 -4.73555e-26)
(1.00183 -0.0041418 -9.19652e-26)
(0.999167 -0.00211995 -7.2638e-26)
(0.996705 -0.00353132 0)
(0.995263 -0.00225437 -2.05353e-26)
(0.993799 -0.00294879 0)
(0.993064 -0.00208933 0)
(0.99238 -0.00237848 3.51111e-26)
(0.992095 -0.00177673 3.13847e-26)
(1.00407 -0.0010171 -1.56429e-26)
(1.00426 -0.00118241 -1.28134e-26)
(1.00485 -0.0015071 -6.88983e-27)
(1.00534 -0.00131596 7.49406e-27)
(1.0065 -0.00211918 -4.78995e-34)
(1.0074 -0.00137112 3.48939e-25)
(1.00917 -0.00291866 0)
(1.01063 -0.0013256 -3.28518e-26)
(1.01282 -0.00385963 -1.82683e-27)
(1.0137 -0.00124453 -1.45728e-26)
(1.01195 -0.00470247 4.81757e-26)
(0.96441 -0.00103281 -2.0652e-26)
(0.954461 -0.00467738 4.26194e-26)
(1.0114 -0.000928471 0)
(1.00855 -0.00447893 0)
(1.00573 -0.00150129 9.02399e-28)
(1.00182 -0.00399018 3.72965e-26)
(0.999085 -0.00193622 2.8985e-31)
(0.996602 -0.00339748 -3.34066e-26)
(0.995123 -0.00207292 0)
(0.993628 -0.00282073 0)
(0.992879 -0.0019386 1.26441e-26)
(0.992172 -0.00225246 0)
(0.991884 -0.00165543 0)
(1.00421 -0.00113671 0)
(1.0044 -0.00126994 -1.61223e-26)
(1.005 -0.00161217 -1.51328e-26)
(1.00551 -0.00137647 -2.15546e-26)
(1.00667 -0.00221422 0)
(1.0076 -0.00141686 0)
(1.00935 -0.002987 0)
(1.01084 -0.00137581 -2.35862e-26)
(1.013 -0.00386947 0)
(1.0139 -0.00131986 -2.84606e-27)
(1.01195 -0.00463386 1.75866e-26)
(0.964327 -0.00111202 -1.3168e-26)
(0.954357 -0.00454616 3.20739e-26)
(1.01145 -0.000926009 9.15016e-27)
(1.00862 -0.00433885 3.32375e-26)
(1.00571 -0.00141109 0)
(1.0018 -0.00386923 -2.95745e-26)
(0.998998 -0.00179228 -3.88657e-26)
(0.996502 -0.0032892 0)
(0.994984 -0.00192172 0)
(0.993465 -0.00271291 0)
(0.992697 -0.00180495 1.24154e-26)
(0.99197 -0.00213915 0)
(0.991674 -0.00153647 0)
(1.00434 -0.00125345 1.81493e-27)
(1.00454 -0.00135054 -8.78466e-27)
(1.00515 -0.0017083 5.90713e-27)
(1.00567 -0.00143064 0)
(1.00684 -0.00229748 4.1283e-26)
(1.00778 -0.00145983 1.58042e-26)
(1.00952 -0.0030457 0)
(1.01105 -0.00142916 -1.12743e-26)
(1.01316 -0.00388297 -3.22124e-27)
(1.01409 -0.00140381 -1.56343e-26)
(1.01193 -0.00459271 -1.88663e-27)
(0.96422 -0.00120543 -1.69255e-26)
(0.954226 -0.00445474 4.39702e-26)
(1.01148 -0.000950762 3.16041e-28)
(1.00867 -0.00423401 -3.33239e-28)
(1.00567 -0.00135537 1.73251e-26)
(1.00177 -0.00377587 7.57936e-28)
(0.998905 -0.00168344 -3.44319e-27)
(0.996402 -0.00320401 0)
(0.994843 -0.0017988 -2.80521e-26)
(0.993305 -0.00262458 -2.2528e-26)
(0.992514 -0.00168908 0)
(0.99177 -0.00203995 3.25948e-26)
(0.991459 -0.00142256 1.54814e-26)
(1.00444 -0.00136355 0)
(1.00466 -0.00142168 -8.8222e-27)
(1.00528 -0.00179324 -7.83523e-27)
(1.00582 -0.00147787 -2.50212e-27)
(1.00699 -0.00236842 0)
(1.00797 -0.00149941 1.5947e-25)
(1.00969 -0.00309574 -4.65756e-26)
(1.01126 -0.00148432 -2.64142e-26)
(1.01333 -0.00390165 4.66107e-27)
(1.01428 -0.00149722 1.81543e-26)
(1.01191 -0.0045838 3.78459e-28)
(0.964094 -0.0013184 -4.41111e-26)
(0.954076 -0.00440371 1.16707e-26)
(1.01149 -0.0010032 -4.68796e-30)
(1.0087 -0.00416145 -1.66712e-26)
(1.00562 -0.00132955 -9.74697e-27)
(1.00174 -0.00370718 1.75918e-27)
(0.998804 -0.00160576 -3.71811e-27)
(0.996303 -0.00314016 0)
(0.994697 -0.00170299 -1.85963e-26)
(0.993148 -0.00255577 -1.76695e-26)
(0.992327 -0.00159256 0)
(0.991569 -0.00195699 1.0284e-26)
(0.991234 -0.00131744 -1.51192e-26)
(1.00452 -0.0014622 -4.05666e-27)
(1.00478 -0.00148046 6.2792e-27)
(1.00539 -0.00186424 -1.65431e-26)
(1.00598 -0.00151602 -1.92156e-27)
(1.00713 -0.00242577 2.86224e-26)
(1.00817 -0.00153413 1.80967e-25)
(1.00984 -0.00313693 -1.65252e-26)
(1.01148 -0.00153879 -5.94206e-27)
(1.01349 -0.00392534 6.06631e-27)
(1.01448 -0.00159796 3.74313e-26)
(1.01189 -0.00461204 7.44372e-27)
(0.963941 -0.00145644 2.86116e-26)
(0.953905 -0.00439595 -5.69301e-28)
(1.01147 -0.00108534 0)
(1.00871 -0.00411853 -9.40668e-27)
(1.00555 -0.00132909 -3.32646e-27)
(1.0017 -0.00366021 9.85542e-28)
(0.998684 -0.00155545 0)
(0.996203 -0.00309565 1.87336e-27)
(0.994536 -0.00163303 2.80251e-27)
(0.99299 -0.00250605 -1.28761e-26)
(0.992122 -0.00151702 -2.08538e-26)
(0.991359 -0.00189238 7.14497e-27)
(0.990985 -0.00122565 0)
(1.00458 -0.0015383 -9.86776e-28)
(1.00489 -0.00152078 5.69974e-27)
(1.00548 -0.00191464 -4.35796e-27)
(1.00613 -0.00154186 0)
(1.00725 -0.00246538 0)
(1.00835 -0.00156101 -3.85069e-26)
(1.00998 -0.00316585 2.02873e-26)
(1.01169 -0.00158649 1.61855e-26)
(1.01364 -0.00395123 1.35157e-26)
(1.01468 -0.00170314 -2.74018e-27)
(1.01189 -0.00470795 -2.49383e-26)
(0.963785 -0.00164096 0)
(0.953744 -0.00443885 0)
(1.01142 -0.00119741 0)
(1.00871 -0.00409951 0)
(1.00547 -0.00134625 -1.61332e-27)
(1.00166 -0.00363212 0)
(0.998564 -0.00153043 0)
(0.99612 -0.00306973 1.6128e-27)
(0.994382 -0.00159096 0)
(0.992855 -0.00247696 0)
(0.99193 -0.00146812 0)
(0.991172 -0.00185146 6.43394e-27)
(0.990748 -0.00115769 0)
(1.00461 -0.00159238 0)
(1.00505 -0.00154654 -1.43336e-27)
(1.00558 -0.00194818 -4.08775e-27)
(1.00638 -0.00155898 -6.71642e-28)
(1.00738 -0.00249182 6.46869e-27)
(1.00868 -0.00158201 -7.30767e-26)
(1.01013 -0.0031852 4.92468e-27)
(1.01207 -0.00162571 4.09886e-30)
(1.01386 -0.00397404 2.34075e-33)
(1.0151 -0.00178518 -5.83788e-31)
(1.01199 -0.00483566 -3.35588e-26)
(0.963473 -0.00185638 0)
(0.953494 -0.00454285 -2.82087e-26)
(1.01121 -0.00135525 -3.63851e-26)
(1.00867 -0.00410184 2.47641e-27)
(1.00527 -0.00137499 5.18013e-28)
(1.00164 -0.00361638 0)
(0.998322 -0.00152232 0)
(0.996033 -0.0030557 0)
(0.9941 -0.0015693 0)
(0.99268 -0.00246189 0)
(0.991597 -0.00144011 0)
(0.990898 -0.00182875 4.60174e-27)
(0.990338 -0.0011125 0)
(1.07474 -0.0961581 1.8846e-26)
(1.12207 0.12705 6.98761e-26)
(1.01471 0.145791 2.96795e-25)
(1.11577 -0.0304978 -3.42444e-26)
(1.17705 0.0329806 -1.05884e-26)
(1.13339 0.117222 -5.71138e-26)
(1.10419 0.0358388 -1.44314e-26)
(1.15562 -0.0659044 -1.54997e-25)
(1.17836 0.0194714 -4.64111e-26)
(1.05766 0.0685077 -7.94642e-26)
(1.09424 -0.105906 2.08672e-25)
(1.1492 -0.0740842 0)
(1.01227 0.0639133 7.12421e-30)
(1.03125 -0.103409 -1.59469e-25)
(1.08574 -0.107892 1.61824e-25)
(0.985257 0.036213 0)
(0.597393 0.0173373 -9.25431e-26)
(0.512164 -0.0283564 1.40046e-25)
(0.992876 -0.0674937 7.84526e-25)
(1.02451 -0.100433 -2.40251e-25)
(0.981573 -0.101803 1.93814e-25)
(0.909493 0.00233813 4.37599e-26)
(0.999748 0.138188 4.33983e-25)
(0.960997 0.0664378 1.01445e-24)
(1.04453 -0.0486569 -1.2901e-25)
(1.07034 -0.0862224 5.38345e-27)
(1.00165 -0.0972742 -2.50273e-25)
(1.07949 0.239624 0)
(0.950582 0.226146 -2.40491e-25)
(1.11612 0.115884 0)
(1.07708 0.0648278 1.21922e-26)
(1.04113 0.0745857 -1.38277e-24)
(1.06729 -0.0205624 1.28933e-25)
(1.10861 -0.0280078 -3.29396e-26)
(1.0779 -0.0800584 6.28997e-27)
(1.10217 -0.0654961 -5.92025e-27)
(1.13179 -0.0806136 5.33657e-27)
(1.10741 -0.121048 -7.38333e-27)
(1.19392 0.0969942 8.33973e-26)
(1.16538 0.16957 3.08639e-26)
(1.16749 0.0317721 4.88932e-27)
(1.10687 0.0230753 -3.9583e-25)
(1.08734 0.0565902 1.46587e-25)
(1.06612 0.0121412 2.74373e-25)
(1.09915 0.0317741 1.26848e-26)
(1.10996 -0.0196539 -2.96809e-28)
(1.11608 0.00493888 2.22235e-30)
(1.14429 0.0147085 -3.37404e-26)
(1.14688 -0.0279715 -8.15197e-28)
(1.19908 -0.020374 2.2905e-27)
(1.21239 0.0481862 -3.99341e-26)
(1.15043 -0.0515748 -1.74316e-25)
(1.103 -0.025117 5.88288e-26)