/*--------------------------------*- C++ -*----------------------------------*\
| =========                 |                                                 |
| \\      /  F ield         | OpenFOAM: The Open Source CFD Toolbox           |
|  \\    /   O peration     | Version:  5.x                                   |
|   \\  /    A nd           | Web:      www.OpenFOAM.org                      |
|    \\/     M anipulation  |                                                 |
\*---------------------------------------------------------------------------*/
FoamFile
{
    version     2.0;
    format      ascii;
    class       volScalarField;
    location    "300";
    object      xf;
}
// * * * * * * * * * * * * * * * * * * * * * * * * * * * * * * * * * * * * * //

dimensions      [0 0 0 0 0 0 0];

internalField   nonuniform List<scalar> 
6584
(
0.159242
0.159242
0.159242
0.159242
0.159242
0.159242
0.159243
0.159243
0.159243
0.159243
0.159243
0.159243
0.159243
0.159243
0.159243
0.159243
0.159243
0.159243
0.159242
0.159242
0.159242
0.159242
0.159242
0.159242
0.159068
0.159069
0.159069
0.159069
0.159069
0.159069
0.159069
0.15907
0.15907
0.15907
0.15907
0.15907
0.15907
0.15907
0.15907
0.15907
0.15907
0.15907
0.159069
0.159069
0.159069
0.159069
0.159069
0.159068
0.158895
0.158895
0.158895
0.158895
0.158895
0.158895
0.158896
0.158897
0.158897
0.158984
0.158984
0.158984
0.158984
0.158984
0.158984
0.158897
0.158897
0.158896
0.158896
0.158895
0.158895
0.158895
0.158895
0.158895
0.158721
0.158721
0.158721
0.158722
0.158722
0.158722
0.158723
0.158723
0.158724
0.15881
0.15881
0.15881
0.15881
0.15881
0.15881
0.158811
0.158723
0.158723
0.158722
0.158722
0.158722
0.158722
0.158721
0.158721
0.158547
0.158548
0.158548
0.158548
0.158548
0.158549
0.158549
0.158549
0.158637
0.158637
0.158636
0.158635
0.158635
0.158635
0.158636
0.158637
0.158637
0.15855
0.158549
0.158549
0.158549
0.158548
0.158548
0.158548
0.158374
0.158374
0.158374
0.158375
0.158375
0.158376
0.158376
0.158462
0.158462
0.158461
0.158504
0.158502
0.158501
0.158503
0.158462
0.158464
0.158464
0.158379
0.158377
0.158376
0.158376
0.158375
0.158375
0.158374
0.158201
0.158201
0.158201
0.158202
0.158202
0.158203
0.158204
0.15829
0.158289
0.158287
0.158326
0.158343
0.15834
0.158324
0.158332
0.158292
0.158292
0.158208
0.158205
0.158204
0.158203
0.158202
0.158201
0.158201
0.158028
0.158028
0.158028
0.158029
0.15803
0.15803
0.158033
0.158117
0.158117
0.158117
0.158151
0.158158
0.158165
0.15816
0.158122
0.158122
0.158037
0.158034
0.158032
0.15803
0.158029
0.158028
0.158028
0.157854
0.157855
0.157855
0.157856
0.157857
0.157859
0.157861
0.157946
0.157947
0.157949
0.157982
0.15799
0.157997
0.157994
0.157956
0.157954
0.157868
0.157862
0.15786
0.157858
0.157857
0.157856
0.157855
0.157681
0.157682
0.157683
0.157684
0.157685
0.157687
0.15769
0.157775
0.157777
0.157782
0.157818
0.157831
0.157843
0.157833
0.157791
0.157786
0.157698
0.157692
0.157688
0.157686
0.157684
0.157683
0.157682
0.157508
0.157509
0.15751
0.157511
0.157513
0.157515
0.157519
0.157605
0.157608
0.157615
0.157655
0.157673
0.157691
0.157673
0.157626
0.157619
0.157529
0.157521
0.157517
0.157513
0.157511
0.15751
0.157509
0.157335
0.157336
0.157337
0.157339
0.157341
0.157344
0.157348
0.157434
0.157439
0.157448
0.157489
0.15751
0.157533
0.157511
0.157461
0.157451
0.157359
0.15735
0.157345
0.157341
0.157339
0.157337
0.157336
0.157162
0.157163
0.157164
0.157166
0.157169
0.157172
0.157177
0.157263
0.157269
0.157278
0.15732
0.157339
0.157364
0.157344
0.157293
0.157282
0.157189
0.157179
0.157173
0.157169
0.157166
0.157164
0.157163
0.156989
0.15699
0.156992
0.156994
0.156996
0.157
0.157005
0.157008
0.157097
0.157105
0.157145
0.157156
0.097982
0.157163
0.157173
0.157124
0.157112
0.157018
0.157008
0.157001
0.156996
0.156993
0.156991
0.156989
0.156816
0.156817
0.156819
0.156821
0.156824
0.156827
0.156833
0.156834
0.156922
0.15693
0.15697
0.156955
0.138813
0.156984
0.156953
0.156951
0.15685
0.156845
0.156834
0.156828
0.156824
0.15682
0.156817
0.156815
0.156643
0.156645
0.156646
0.156648
0.156651
0.156655
0.156659
0.156661
0.156749
0.156758
0.156753
0.156777
0.139261
0.156766
0.156779
0.156779
0.156678
0.156672
0.156661
0.156655
0.15665
0.156646
0.156644
0.156642
0.15647
0.156472
0.156473
0.156476
0.156479
0.156482
0.156486
0.156488
0.156493
0.156585
0.15658
0.156323
0.147226
0.156589
0.156605
0.156605
0.156504
0.156499
0.156488
0.156481
0.156476
0.156472
0.156469
0.156467
0.156297
0.156299
0.1563
0.156303
0.156306
0.156309
0.156313
0.156316
0.156321
0.156323
0.156406
0.155994
0.147121
0.156412
0.156347
0.156339
0.156331
0.156326
0.156314
0.156307
0.156302
0.156298
0.156295
0.156293
0.156124
0.156125
0.156127
0.15613
0.156133
0.156136
0.156141
0.156144
0.156149
0.156151
0.156107
0.145045
0.151494
0.156156
0.156173
0.156166
0.156157
0.156152
0.156141
0.156133
0.156128
0.156124
0.156121
0.156118
0.155951
0.155952
0.155954
0.155957
0.15596
0.155963
0.155969
0.155972
0.155977
0.155978
0.155903
0.144891
0.151322
0.155979
0.155999
0.155992
0.155984
0.155978
0.155967
0.155959
0.155954
0.155949
0.155946
0.155943
0.155778
0.155779
0.155781
0.155784
0.155787
0.155791
0.155797
0.1558
0.155805
0.155805
0.155702
0.144733
0.151147
0.155802
0.155825
0.155819
0.15581
0.155805
0.155793
0.155785
0.155779
0.155775
0.155772
0.155769
0.155605
0.155606
0.155608
0.155611
0.155615
0.155618
0.155624
0.155628
0.155633
0.155633
0.155502
0.144573
0.150971
0.155625
0.155651
0.155645
0.155636
0.155631
0.155619
0.155611
0.155605
0.1556
0.155597
0.155594
0.155432
0.155433
0.155435
0.155438
0.155442
0.155446
0.155452
0.155456
0.155461
0.15546
0.155303
0.144411
0.150793
0.155447
0.155478
0.155472
0.155463
0.155457
0.155445
0.155437
0.155431
0.155426
0.155423
0.155419
0.155259
0.15526
0.155262
0.155266
0.155269
0.155273
0.15528
0.155284
0.155289
0.155287
0.155107
0.144248
0.150613
0.155269
0.155304
0.155299
0.155289
0.155283
0.155271
0.155263
0.155256
0.155251
0.155248
0.155245
0.155085
0.155087
0.15509
0.155093
0.155097
0.155101
0.155108
0.155112
0.155117
0.155115
0.154912
0.144083
0.150433
0.155092
0.15513
0.155125
0.155115
0.15511
0.155097
0.155088
0.155082
0.155077
0.155073
0.15507
0.154912
0.154914
0.154917
0.15492
0.154924
0.154929
0.154936
0.15494
0.154946
0.154942
0.154714
0.143917
0.150253
0.154914
0.154957
0.154952
0.154942
0.154936
0.154923
0.154914
0.154908
0.154902
0.154899
0.154895
0.154739
0.154741
0.154744
0.154747
0.154752
0.154756
0.154764
0.154768
0.154774
0.15477
0.154516
0.143753
0.150075
0.154738
0.154784
0.154779
0.154768
0.154763
0.154749
0.15474
0.154733
0.154728
0.154724
0.154721
0.154566
0.154568
0.154571
0.154575
0.154579
0.154584
0.154592
0.154596
0.154602
0.154597
0.154318
0.143588
0.149896
0.154562
0.15461
0.154606
0.154595
0.154589
0.154576
0.154566
0.154559
0.154554
0.15455
0.154546
0.154393
0.154395
0.154398
0.154402
0.154407
0.154412
0.15442
0.154424
0.154431
0.154424
0.154121
0.143422
0.149717
0.154386
0.154437
0.154433
0.154422
0.154416
0.154402
0.154392
0.154385
0.154379
0.154376
0.154372
0.15422
0.154223
0.154225
0.154229
0.154234
0.154239
0.154248
0.154253
0.154259
0.154252
0.153926
0.143256
0.149537
0.15421
0.154264
0.15426
0.154249
0.154242
0.154228
0.154218
0.154211
0.154205
0.154201
0.154197
0.154047
0.15405
0.154052
0.154056
0.154062
0.154067
0.154076
0.154081
0.154088
0.154079
0.15373
0.14309
0.149357
0.154034
0.154091
0.154087
0.154075
0.154069
0.154055
0.154044
0.154037
0.154031
0.154027
0.154023
0.153875
0.153877
0.15388
0.153884
0.153889
0.153895
0.153905
0.153909
0.153917
0.153906
0.153535
0.142923
0.149177
0.153857
0.153918
0.153914
0.153902
0.153895
0.153881
0.15387
0.153862
0.153856
0.153852
0.153848
0.153702
0.153704
0.153707
0.153711
0.153717
0.153723
0.153733
0.153738
0.153745
0.153733
0.153341
0.142756
0.148997
0.153681
0.153744
0.153741
0.153729
0.153722
0.153707
0.153696
0.153688
0.153682
0.153678
0.153674
0.153529
0.153531
0.153534
0.153538
0.153544
0.153551
0.153561
0.153566
0.153574
0.15356
0.153146
0.142589
0.148817
0.153505
0.153571
0.153568
0.153555
0.153548
0.153533
0.153522
0.153514
0.153507
0.153503
0.153499
0.153356
0.153358
0.153361
0.153366
0.153372
0.153379
0.15339
0.153395
0.153402
0.153387
0.152952
0.142422
0.148636
0.153329
0.153398
0.153395
0.153382
0.153375
0.153359
0.153348
0.15334
0.153333
0.153329
0.153325
0.153183
0.153186
0.153189
0.153193
0.153199
0.153207
0.153218
0.153223
0.153231
0.153214
0.152756
0.142255
0.148457
0.153153
0.153225
0.153222
0.153209
0.153202
0.153186
0.153174
0.153165
0.153159
0.153154
0.15315
0.15801
0.158015
0.15816
0.157851
0.157862
0.157996
0.157693
0.15771
0.157843
0.157531
0.157553
0.157691
0.157361
0.157386
0.157533
0.157179
0.076985
0.0964879
0.157208
0.157364
0.158181
0.15834
0.158182
0.158344
0.158024
0.158013
0.158163
0.158074
0.158155
0.158017
0.158032
0.158156
0.157859
0.157852
0.157992
0.15793
0.157874
0.157977
0.157815
0.15797
0.157862
0.157872
0.157991
0.157696
0.157693
0.157832
0.157772
0.157576
0.157675
0.156585
0.157226
0.15771
0.157714
0.157832
0.157531
0.157531
0.157673
0.157613
0.157466
0.157506
0.15697
0.156654
0.157553
0.157554
0.157674
0.156901
0.157133
0.157386
0.157389
0.157513
0.156724
0.156818
0.156999
0.0957738
0.0774213
0.125281
0.157017
0.157184
0.15799
0.158068
0.158072
0.158065
0.15797
0.158156
0.158075
0.157977
0.158068
0.158075
0.158067
0.157989
0.157695
0.157853
0.15791
0.157732
0.157262
0.157949
0.157757
0.157263
0.157806
0.157919
0.157855
0.157662
0.157982
0.157863
0.157938
0.157512
0.157566
0.157752
0.157012
0.157105
0.157237
0.157012
0.156657
0.156538
0.157767
0.157526
0.157476
0.157655
0.157535
0.157786
0.156919
0.157046
0.157115
0.156897
0.157132
0.157003
0.157613
0.15743
0.157438
0.157467
0.157428
0.157633
0.157127
0.157135
0.157059
0.157123
0.156829
0.156895
0.157429
0.157357
0.157471
0.157098
0.156858
0.157133
0.157105
0.156501
0.156709
0.158093
0.158079
0.15816
0.158096
0.158146
0.157363
0.157361
0.15751
0.157447
0.157365
0.157414
0.154019
0.153243
0.157209
0.157218
0.157347
0.15815
0.158099
0.158159
0.158077
0.158096
0.15742
0.15746
0.157592
0.104881
0.111972
0.136821
0.141465
0.112255
0.12118
0.153097
0.151824
0.15745
0.157346
0.157257
0.142036
0.144943
0.157244
0.157142
0.157299
0.158253
0.158244
0.158168
0.158167
0.158244
0.158253
0.15809
0.158107
0.158092
0.15815
0.158098
0.158118
0.15788
0.157905
0.156922
0.15696
0.156894
0.156832
0.156912
0.151982
0.157121
0.154642
0.154108
0.154276
0.154757
0.156779
0.157552
0.158031
0.15658
0.157874
0.156302
0.158018
0.157917
0.158096
0.158109
0.158084
0.157689
0.158022
0.158028
0.157484
0.157454
0.157887
0.157873
0.157497
0.157529
0.157716
0.157885
0.157914
0.157846
0.157875
0.15771
0.15793
0.157963
0.157993
0.157924
0.157953
0.157918
0.157052
0.157056
0.157091
0.157075
0.15604
0.156107
0.157455
0.157734
0.157762
0.157696
0.157724
0.157444
0.157602
0.157809
0.157837
0.157771
0.157799
0.157594
0.105946
0.156981
0.115783
0.107993
0.125199
0.11618
0.156998
0.156801
0.109082
0.156824
0.157109
0.157097
0.157444
0.157658
0.157687
0.15762
0.157649
0.157449
0.130308
0.135828
0.157093
0.133198
0.125792
0.139612
0.134024
0.157102
0.122033
0.129483
0.156861
0.153372
0.154183
0.152122
0.153216
0.15687
0.151522
0.144304
0.145321
0.0885367
0.145279
0.143887
0.117251
0.154576
0.15469
0.158136
0.157191
0.157183
0.157339
0.157274
0.157234
0.157296
0.123082
0.155954
0.156188
0.158136
0.157297
0.157357
0.157426
0.0985149
0.0999135
0.0668743
0.143444
0.142988
0.101668
0.104588
0.15402
0.154541
0.0737256
0.158196
0.1582
0.158157
0.158154
0.1582
0.158197
0.157923
0.157953
0.157922
0.157833
0.157869
0.157942
0.157611
0.157792
0.157762
0.157831
0.157802
0.157624
0.156738
0.157116
0.156921
0.156623
0.147953
0.146749
0.156765
0.154807
0.155169
0.156467
0.156387
0.0940053
0.15812
0.158104
0.158154
0.157996
0.157935
0.157887
0.158035
0.158045
0.158077
0.158003
0.158034
0.158024
0.15776
0.157872
0.157841
0.157912
0.157882
0.157783
0.157624
0.153912
0.156199
0.151824
0.15234
0.157341
0.156427
0.156688
0.157812
0.157366
0.157633
0.157781
0.15789
0.1579
0.157824
0.15784
0.157683
0.157752
0.157723
0.157541
0.157035
0.149811
0.148443
0.157168
0.151065
0.151671
0.148244
0.148711
0.157025
0.156404
0.156336
0.157497
0.157727
0.157741
0.157666
0.157688
0.157467
0.157633
0.157804
0.157819
0.157745
0.157759
0.157561
0.157121
0.154776
0.155098
0.154621
0.154309
0.157052
0.15747
0.157581
0.15761
0.15754
0.157571
0.157463
0.157136
0.144026
0.140242
0.148562
0.147355
0.157137
0.113841
0.115371
0.157125
0.149889
0.148936
0.112003
0.113412
0.149461
0.148262
0.158116
0.158135
0.158123
0.147099
0.153728
0.148039
0.148558
0.148462
0.153629
0.158128
0.158119
0.158141
0.15811
0.158121
0.105473
0.107983
0.100295
0.0989305
0.13904
0.106359
0.105298
0.10963
0.106662
0.139631
0.114318
0.11611
0.152606
0.152386
0.143484
0.114536
0.111346
0.104779
0.106185
0.158071
0.158084
0.158103
0.158059
0.158078
0.158064
0.15784
0.157935
0.156779
0.157078
0.156927
0.156632
0.152317
0.154991
0.154772
0.155221
0.155063
0.152252
0.154281
0.154129
0.154711
0.154396
0.154456
0.150269
0.150967
0.149036
0.149921
0.154377
0.146077
0.146743
0.157207
0.15799
0.157926
0.158053
0.158008
0.15737
0.157608
0.15749
0.157884
0.157656
0.158048
0.158085
0.158062
0.158034
0.157995
0.157995
0.157947
0.158002
0.157969
0.158028
0.158052
0.157982
0.158019
0.158046
0.158029
0.158002
0.153043
0.153542
0.157584
0.149869
0.147885
0.154372
0.150257
0.144795
0.142676
0.147252
0.145693
0.157369
0.152517
0.152909
0.156285
0.155849
0.157434
0.156635
0.155336
0.15486
0.155768
0.155458
0.157828
0.15675
0.156923
0.1574
0.157614
0.157867
0.157884
0.157751
0.15769
0.157845
0.157862
0.150039
0.150028
0.157041
0.137497
0.137316
0.129369
0.136548
0.136263
0.138617
0.137047
0.136355
0.150163
0.150861
0.157147
0.139047
0.136573
0.142157
0.139781
0.13165
0.129069
0.135591
0.1329
0.157038
0.14906
0.149888
0.156208
0.156278
0.157709
0.157723
0.157487
0.157453
0.157693
0.157705
0.157784
0.157798
0.157625
0.157569
0.157764
0.157779
0.108209
0.111414
0.148839
0.150021
0.147329
0.148419
0.108604
0.121603
0.151592
0.149104
0.150337
0.15129
0.119633
0.142523
0.143027
0.140081
0.142327
0.112551
0.145893
0.147044
0.143356
0.145254
0.112854
0.154592
0.154715
0.157119
0.153608
0.154018
0.154052
0.153579
0.154068
0.157056
0.154183
0.154428
0.132446
0.0983953
0.0996869
0.104271
0.0988248
0.133245
0.100556
0.124599
0.100181
0.125867
0.152684
0.15541
0.155272
0.155576
0.155455
0.15277
0.151066
0.151266
0.11615
0.117883
0.107481
0.111346
0.150237
0.149735
0.158187
0.158198
0.158329
0.157276
0.157174
0.157045
0.158171
0.158174
0.158147
0.158142
0.158172
0.158171
0.158251
0.158247
0.158172
0.157993
0.157963
0.157937
0.157821
0.15767
0.157643
0.156633
0.157189
0.157674
0.157645
0.157488
0.155811
0.155686
0.156642
0.155156
0.155278
0.157126
0.158025
0.158035
0.158004
0.157761
0.157843
0.157987
0.158057
0.158036
0.158051
0.157934
0.157424
0.157726
0.157298
0.157615
0.157586
0.157787
0.157755
0.157761
0.15767
0.157912
0.157923
0.157882
0.157533
0.157713
0.157684
0.150441
0.149904
0.157078
0.15664
0.156021
0.155929
0.156491
0.157517
0.15766
0.157664
0.157648
0.157744
0.157749
0.157669
0.157674
0.157543
0.15676
0.151364
0.150751
0.157434
0.157648
0.157657
0.157401
0.157499
0.15753
0.0945287
0.0942758
0.150886
0.150172
0.15712
0.0950901
0.0947972
0.155195
0.15524
0.156656
0.158101
0.158101
0.104139
0.102774
0.103848
0.111483
0.112575
0.100666
0.101679
0.108279
0.107077
0.11995
0.150748
0.150509
0.152008
0.117011
0.115048
0.143878
0.158205
0.158202
0.158158
0.158082
0.158084
0.158088
0.158095
0.158044
0.158052
0.15811
0.15813
0.158119
0.157801
0.157787
0.157861
0.157919
0.157885
0.157862
0.156865
0.156998
0.155865
0.155919
0.156928
0.156752
0.155506
0.155698
0.152579
0.152613
0.15336
0.153259
0.151995
0.152709
0.152813
0.157125
0.155342
0.155521
0.157426
0.156885
0.157597
0.157506
0.157984
0.157942
0.157788
0.155385
0.155061
0.157282
0.156666
0.155816
0.158103
0.158091
0.158066
0.158069
0.158029
0.158053
0.157798
0.158019
0.158035
0.156979
0.157258
0.157924
0.154624
0.154227
0.157466
0.15756
0.157955
0.157966
0.157954
0.157889
0.157933
0.157944
0.157072
0.149889
0.149987
0.156011
0.156166
0.157711
0.157716
0.157609
0.157585
0.1577
0.157705
0.107059
0.115238
0.129295
0.130007
0.121207
0.121725
0.107043
0.15174
0.151463
0.15678
0.113314
0.112052
0.120585
0.12045
0.110289
0.120757
0.120958
0.111255
0.111589
0.157631
0.15764
0.157429
0.157441
0.157614
0.157623
0.129487
0.150422
0.150845
0.14954
0.149976
0.128199
0.153735
0.155421
0.155607
0.155498
0.155462
0.153863
0.152355
0.153655
0.153501
0.151201
0.150845
0.151627
0.0954042
0.0975447
0.097668
0.0964966
0.146182
0.121263
0.118085
0.123881
0.122019
0.143434
0.143955
0.144289
0.151154
0.151765
0.154806
0.158131
0.158137
0.158125
0.0983039
0.0986749
0.114477
0.113128
0.0677751
0.103412
0.099761
0.0999766
0.0983654
0.0991418
0.104233
0.0732176
0.148899
0.150129
0.158178
0.158174
0.158145
0.157721
0.157696
0.157827
0.157829
0.157884
0.157929
0.157856
0.157872
0.15669
0.157152
0.154695
0.15483
0.154774
0.154665
0.15663
0.155576
0.155479
0.147699
0.145347
0.145221
0.145896
0.145734
0.147365
0.15792
0.157961
0.157967
0.157945
0.157954
0.157904
0.157331
0.157743
0.157553
0.157481
0.157677
0.157766
0.157772
0.156115
0.156098
0.156573
0.156402
0.15765
0.157655
0.157507
0.157733
0.157738
0.15764
0.157552
0.157679
0.157684
0.154572
0.155151
0.154975
0.155235
0.155214
0.154473
0.094095
0.0941402
0.0958655
0.095407
0.112515
0.102365
0.10208
0.145316
0.145394
0.149094
0.146203
0.14673
0.145295
0.14566
0.148665
0.158112
0.158107
0.158109
0.158113
0.15813
0.158132
0.158139
0.158118
0.158124
0.158124
0.147856
0.150887
0.150722
0.15138
0.151121
0.148038
0.14927
0.150115
0.149778
0.150597
0.15043
0.148922
0.158125
0.158128
0.158121
0.158087
0.158068
0.158112
0.158104
0.104048
0.110376
0.104717
0.104959
0.0998682
0.0993986
0.115724
0.11651
0.105812
0.100272
0.0999775
0.113167
0.102023
0.101349
0.102109
0.11817
0.104589
0.101975
0.150854
0.151167
0.152801
0.149887
0.150003
0.149618
0.14969
0.152178
0.150402
0.150531
0.104985
0.0967928
0.0975538
0.0962466
0.096244
0.105382
0.158076
0.158082
0.158078
0.158052
0.158058
0.15807
0.157721
0.157848
0.157767
0.157745
0.157817
0.157837
0.157772
0.157796
0.156822
0.157038
0.15516
0.155259
0.154937
0.155049
0.156933
0.155929
0.155923
0.155406
0.1554
0.156678
0.155303
0.152878
0.152666
0.152117
0.15318
0.153075
0.154208
0.152996
0.152964
0.153349
0.153146
0.154167
0.154636
0.15351
0.153613
0.153089
0.153309
0.154526
0.152858
0.149325
0.15179
0.151609
0.145938
0.146235
0.157143
0.157684
0.157641
0.157047
0.157513
0.157841
0.157748
0.155908
0.155629
0.156915
0.156985
0.157532
0.156516
0.156214
0.157919
0.157972
0.158052
0.15801
0.157849
0.157659
0.157844
0.157984
0.157999
0.158007
0.157975
0.157986
0.157957
0.157927
0.157956
0.158035
0.158024
0.158014
0.158046
0.158031
0.158043
0.157992
0.158004
0.157983
0.158001
0.149378
0.148591
0.15323
0.148133
0.148823
0.146878
0.15062
0.144001
0.143294
0.146695
0.146218
0.156068
0.154194
0.154642
0.153324
0.153742
0.155941
0.157334
0.156595
0.156807
0.1549
0.1561
0.157108
0.153862
0.153216
0.155212
0.150399
0.150876
0.149573
0.149985
0.155071
0.155686
0.152638
0.152959
0.151408
0.151995
0.155576
0.157434
0.157589
0.13772
0.12893
0.130359
0.125924
0.127359
0.137573
0.131245
0.131121
0.131257
0.134069
0.136536
0.11824
0.119482
0.120447
0.118408
0.137314
0.136797
0.123405
0.124604
0.121037
0.122316
0.13657
0.138435
0.137698
0.141602
0.140629
0.130542
0.129567
0.13474
0.134018
0.156061
0.156222
0.157617
0.157722
0.157727
0.157689
0.157695
0.157577
0.107972
0.126536
0.1282
0.114043
0.106965
0.122818
0.124559
0.116179
0.114695
0.142668
0.127639
0.127767
0.141265
0.126313
0.123516
0.127792
0.127451
0.141969
0.119481
0.117774
0.119095
0.120291
0.111529
0.113323
0.116331
0.154657
0.155676
0.155625
0.155729
0.155703
0.154685
0.153738
0.153915
0.153878
0.153494
0.153449
0.153686
0.154149
0.155314
0.155258
0.155532
0.155416
0.154244
0.0986613
0.107648
0.10826
0.106898
0.107258
0.0991537
0.102247
0.112893
0.114558
0.109353
0.111002
0.100242
0.100359
0.0992043
0.0994674
0.100475
0.0997273
0.100799
0.105284
0.106355
0.100901
0.103112
0.10092
0.153883
0.153787
0.15257
0.151023
0.151488
0.0947902
0.0961224
0.109009
0.0989664
0.0971967
0.101636
0.100747
0.11038
0.0966051
0.0963487
0.144584
0.144818
0.158548
0.158547
0.158635
0.158546
0.158546
0.158634
0.158546
0.158546
0.158635
0.158547
0.158549
0.158636
0.158374
0.158372
0.15846
0.15837
0.158368
0.158503
0.158366
0.158364
0.158501
0.158364
0.158367
0.158501
0.158369
0.158372
0.158504
0.158375
0.158377
0.158462
0.158202
0.158198
0.158328
0.158194
0.158185
0.158323
0.158273
0.158271
0.158343
0.158266
0.158268
0.15834
0.158278
0.158281
0.158325
0.158202
0.158207
0.158291
0.158032
0.158027
0.158154
0.158108
0.158107
0.15815
0.158136
0.158134
0.158157
0.158099
0.158109
0.158173
0.158035
0.158041
0.158123
0.157865
0.157861
0.157985
0.157941
0.157941
0.157982
0.15797
0.157969
0.157989
0.157939
0.157946
0.158006
0.157873
0.157877
0.157959
0.157699
0.157697
0.15782
0.157777
0.157779
0.157819
0.157811
0.157811
0.157831
0.157787
0.15779
0.157848
0.157713
0.157715
0.157796
0.157532
0.157531
0.157656
0.157614
0.157616
0.157657
0.157653
0.157653
0.157673
0.157633
0.157633
0.157692
0.157552
0.157551
0.157633
0.157363
0.157363
0.157489
0.157489
0.157489
0.15751
0.157471
0.157469
0.157531
0.157386
0.157385
0.157469
0.157192
0.157191
0.15732
0.157299
0.157302
0.157345
0.157216
0.157217
0.157301
0.157017
0.157012
0.157099
0.157013
0.157005
0.157137
0.157089
0.157018
0.15709
0.102666
0.153004
0.153382
0.15703
0.157044
0.157175
0.157041
0.157046
0.157131
0.156844
0.156839
0.156925
0.15684
0.156829
0.156961
0.156821
0.115708
0.11515
0.139188
0.156834
0.156972
0.156849
0.156868
0.156999
0.156866
0.156872
0.156958
0.156666
0.15666
0.156747
0.156493
0.134315
0.115841
0.147267
0.156538
0.156788
0.156677
0.156693
0.15678
0.15801
0.15803
0.15803
0.158035
0.158042
0.158009
0.158159
0.158137
0.158138
0.157851
0.15787
0.15787
0.157881
0.15788
0.157851
0.157999
0.157968
0.157976
0.157693
0.157713
0.157713
0.157729
0.157729
0.1577
0.157842
0.157813
0.157824
0.157531
0.157552
0.157551
0.157573
0.157574
0.157546
0.157691
0.157662
0.157672
0.157408
0.157403
0.157381
0.157526
0.157506
0.157512
0.157113
0.157212
0.157251
0.0678488
0.107228
0.107118
0.137631
0.137813
0.0731657
0.15736
0.157338
0.157343
0.158172
0.158247
0.15825
0.15815
0.158149
0.158143
0.15834
0.158268
0.158266
0.158148
0.15815
0.158205
0.158204
0.158181
0.158343
0.158272
0.158274
0.158023
0.158065
0.158066
0.158075
0.158064
0.158022
0.158148
0.158106
0.158097
0.158085
0.158083
0.158063
0.158153
0.15814
0.158142
0.158026
0.158088
0.158078
0.158073
0.158073
0.158032
0.158155
0.158113
0.158114
0.15786
0.1579
0.1579
0.157912
0.157901
0.157861
0.157981
0.157941
0.157932
0.157929
0.157949
0.15795
0.157891
0.157918
0.157906
0.157986
0.157975
0.157964
0.157955
0.157936
0.15796
0.157868
0.157927
0.157919
0.157911
0.157913
0.157874
0.157992
0.157953
0.157951
0.157698
0.157738
0.157737
0.157753
0.15774
0.1577
0.157821
0.15778
0.157773
0.157772
0.157792
0.157792
0.157586
0.157724
0.157715
0.15779
0.157778
0.157657
0.157712
0.157771
0.157768
0.157753
0.157757
0.157718
0.157835
0.157796
0.157793
0.157534
0.157575
0.157573
0.157592
0.157578
0.157537
0.15766
0.157619
0.157613
0.157613
0.157633
0.157633
0.157482
0.157634
0.157605
0.15763
0.157621
0.1575
0.156941
0.155969
0.156061
0.157552
0.157612
0.157613
0.157594
0.157599
0.157558
0.157679
0.157639
0.157634
0.156906
0.155728
0.155818
0.156649
0.156657
0.157131
0.157387
0.157429
0.15745
0.15743
0.157435
0.157393
0.157518
0.157477
0.157472
0.156738
0.156133
0.156126
0.15616
0.156158
0.156805
0.156954
0.156995
0.157044
0.0944918
0.156356
0.156241
0.143034
0.142949
0.0788519
0.155877
0.155933
0.12374
0.157063
0.156741
0.156808
0.156995
0.156769
0.157115
0.158002
0.158007
0.157996
0.158078
0.158046
0.158036
0.158051
0.15805
0.158071
0.158054
0.158038
0.158065
0.158144
0.158142
0.158154
0.158072
0.158084
0.158086
0.157984
0.157973
0.157966
0.158067
0.158061
0.158063
0.158073
0.158053
0.158054
0.158056
0.158059
0.15807
0.157996
0.158006
0.158002
0.157716
0.157815
0.157802
0.157893
0.15788
0.15783
0.15789
0.15789
0.15791
0.157702
0.157438
0.157513
0.156529
0.156573
0.157287
0.157565
0.157603
0.157777
0.157919
0.15789
0.1579
0.157845
0.157874
0.157882
0.15796
0.157976
0.157986
0.157889
0.157896
0.157869
0.157957
0.157958
0.157929
0.157519
0.157648
0.157639
0.157705
0.157695
0.157557
0.157733
0.157733
0.157753
0.15702
0.156067
0.156045
0.156285
0.156256
0.157094
0.157213
0.156444
0.156486
0.156036
0.156038
0.157011
0.157766
0.157738
0.157748
0.157614
0.157617
0.157481
0.157805
0.157804
0.157776
0.156941
0.153687
0.153257
0.155559
0.155466
0.157031
0.157125
0.156346
0.156316
0.153127
0.152666
0.156874
0.157129
0.156613
0.156634
0.156166
0.156249
0.15703
0.157614
0.157584
0.157593
0.157427
0.157579
0.157588
0.157523
0.157533
0.157445
0.157456
0.157606
0.15761
0.157597
0.157606
0.157433
0.157652
0.157652
0.157623
0.157131
0.156256
0.156206
0.156477
0.156448
0.157136
0.157071
0.155729
0.155645
0.156151
0.156092
0.157117
0.15684
0.156159
0.156161
0.155845
0.155912
0.156888
0.157419
0.157503
0.157513
0.157458
0.157488
0.15739
0.157492
0.157486
0.157465
0.157072
0.151538
0.151083
0.149905
0.151121
0.157045
0.157131
0.156526
0.156503
0.156627
0.155234
0.155196
0.158092
0.158113
0.158114
0.158113
0.158121
0.158089
0.158155
0.158132
0.158124
0.158143
0.158135
0.158139
0.157425
0.157411
0.157368
0.157495
0.157453
0.157447
0.157447
0.157468
0.157468
0.157387
0.157458
0.157437
0.157499
0.157479
0.157394
0.153923
0.152775
0.152932
0.151773
0.152009
0.153387
0.157216
0.157259
0.157276
0.158143
0.15814
0.158148
0.158091
0.158102
0.158107
0.158122
0.158132
0.158167
0.158088
0.158121
0.158111
0.158117
0.158116
0.158094
0.157438
0.157554
0.15752
0.157594
0.157564
0.157443
0.157572
0.157572
0.157593
0.137661
0.127504
0.126661
0.131994
0.131095
0.140841
0.152956
0.151363
0.151548
0.157445
0.157424
0.157429
0.157309
0.157416
0.157447
0.157372
0.157405
0.157296
0.14258
0.133759
0.1329
0.137451
0.136876
0.144597
0.157201
0.157328
0.15735
0.157284
0.157307
0.157186
0.157321
0.157316
0.157294
0.158254
0.158214
0.158211
0.158218
0.158216
0.158256
0.158161
0.158203
0.158206
0.15818
0.158178
0.158165
0.158255
0.158216
0.158218
0.158211
0.158214
0.158253
0.158109
0.158089
0.158096
0.158127
0.158137
0.15815
0.158102
0.158108
0.158105
0.15813
0.158128
0.158116
0.155561
0.155689
0.156909
0.157123
0.156703
0.156711
0.154589
0.153771
0.15386
0.153079
0.153206
0.15419
0.154517
0.155556
0.155529
0.155597
0.155578
0.154582
0.156793
0.156155
0.156151
0.157988
0.158027
0.158043
0.158003
0.157872
0.157969
0.157955
0.158029
0.158008
0.158101
0.158094
0.158086
0.158098
0.158095
0.158106
0.158016
0.158009
0.158016
0.158034
0.158029
0.158022
0.156911
0.156967
0.157515
0.157426
0.15681
0.15686
0.157795
0.157821
0.1579
0.157859
0.157744
0.15777
0.157803
0.15781
0.157724
0.157895
0.157889
0.157879
0.157909
0.157899
0.157904
0.157856
0.15785
0.15784
0.15787
0.15786
0.157866
0.157703
0.15779
0.157796
0.157944
0.157951
0.157939
0.157973
0.15797
0.15796
0.15799
0.15798
0.157983
0.157934
0.157929
0.157919
0.15795
0.157939
0.157943
0.157906
0.157928
0.157936
0.156162
0.156155
0.157049
0.157061
0.156177
0.156169
0.156214
0.156249
0.157108
0.157062
0.156149
0.15618
0.157631
0.157635
0.157465
0.157743
0.157736
0.157727
0.157755
0.157745
0.157753
0.157706
0.157699
0.15769
0.157717
0.157708
0.157715
0.157438
0.157623
0.157626
0.157818
0.157811
0.157802
0.157831
0.157821
0.157828
0.157781
0.157773
0.157764
0.157792
0.157783
0.15779
0.155144
0.153838
0.156962
0.124434
0.136636
0.137496
0.1306
0.131269
0.116779
0.157015
0.15536
0.155251
0.156849
0.152461
0.15187
0.156493
0.15652
0.157117
0.157081
0.156398
0.156449
0.157587
0.157588
0.157437
0.157668
0.157662
0.157652
0.15768
0.157671
0.157677
0.157629
0.157624
0.157614
0.157643
0.157633
0.157639
0.157451
0.157582
0.157585
0.131029
0.11938
0.118711
0.125632
0.124405
0.134996
0.15589
0.155811
0.157083
0.132165
0.142898
0.14356
0.138185
0.138902
0.126407
0.13718
0.151903
0.152216
0.151218
0.151566
0.136313
0.15711
0.156028
0.155961
0.122763
0.109357
0.108885
0.117879
0.116672
0.128464
0.156152
0.156156
0.156851
0.153495
0.154435
0.154351
0.154933
0.154873
0.154087
0.154254
0.15415
0.15304
0.156878
0.156135
0.156144
0.144695
0.12622
0.124448
0.128315
0.126905
0.145061
0.145601
0.138609
0.138036
0.154539
0.15193
0.152277
0.153942
0.154022
0.154733
0.15723
0.157239
0.157193
0.157325
0.157282
0.157274
0.157255
0.157287
0.157265
0.157331
0.157309
0.157276
0.150956
0.150884
0.122285
0.155984
0.15496
0.154943
0.155029
0.154991
0.156044
0.157324
0.157374
0.157353
0.157417
0.157395
0.157332
0.157404
0.157404
0.157426
0.0908617
0.0871185
0.0676725
0.143062
0.12836
0.124947
0.128518
0.128386
0.142971
0.154374
0.14971
0.148898
0.152152
0.152758
0.154532
0.0734798
0.116755
0.12695
0.158198
0.158182
0.15818
0.158186
0.158185
0.1582
0.158151
0.158177
0.158172
0.158162
0.158161
0.158152
0.158199
0.158183
0.158185
0.15818
0.158181
0.158197
0.157941
0.157929
0.157907
0.157942
0.157938
0.157949
0.157917
0.157928
0.157932
0.15795
0.157922
0.157911
0.157745
0.157735
0.157598
0.157782
0.157771
0.157781
0.157751
0.157761
0.157772
0.157821
0.157811
0.157821
0.157791
0.157801
0.157812
0.15764
0.157766
0.157755
0.155916
0.155923
0.156922
0.156146
0.156139
0.156752
0.155105
0.155624
0.155612
0.155641
0.155633
0.15514
0.156443
0.152036
0.149945
0.151923
0.152
0.156416
0.0934808
0.135154
0.134705
0.158118
0.15813
0.158132
0.158125
0.158127
0.158115
0.158151
0.158139
0.158132
0.157985
0.157979
0.15799
0.158038
0.158048
0.158045
0.158055
0.158052
0.158041
0.158074
0.158063
0.158066
0.158014
0.15801
0.158
0.158031
0.15802
0.158024
0.158013
0.158017
0.158027
0.157841
0.157828
0.157738
0.157861
0.157853
0.157864
0.157832
0.157842
0.157851
0.157902
0.157896
0.157906
0.157874
0.157885
0.157892
0.157806
0.157867
0.157854
0.157213
0.157331
0.157665
0.154624
0.156521
0.156187