/*--------------------------------*- C++ -*----------------------------------*\
| =========                 |                                                 |
| \\      /  F ield         | OpenFOAM: The Open Source CFD Toolbox           |
|  \\    /   O peration     | Version:  5.x                                   |
|   \\  /    A nd           | Web:      www.OpenFOAM.org                      |
|    \\/     M anipulation  |                                                 |
\*---------------------------------------------------------------------------*/
FoamFile
{
    version     2.0;
    format      ascii;
    class       volScalarField;
    location    "300";
    object      Y;
}
// * * * * * * * * * * * * * * * * * * * * * * * * * * * * * * * * * * * * * //

dimensions      [0 0 0 0 0 0 0];

internalField   nonuniform List<scalar> 
6584
(
0.00632781
0.00632781
0.00632781
0.00632781
0.00632781
0.00632781
0.00632781
0.00632782
0.00632782
0.00632782
0.00632782
0.00632782
0.00632782
0.00632782
0.00632782
0.00632782
0.00632782
0.00632781
0.00632781
0.00632781
0.00632781
0.00632781
0.00632781
0.00632781
0.00632561
0.00632561
0.00632561
0.00632562
0.00632562
0.00632562
0.00632562
0.00632563
0.00632563
0.00632563
0.00632563
0.00632563
0.00632564
0.00632563
0.00632563
0.00632563
0.00632563
0.00632563
0.00632562
0.00632562
0.00632562
0.00632561
0.00632561
0.00632561
0.00632341
0.00632342
0.00632342
0.00632342
0.00632342
0.00632342
0.00632343
0.00632344
0.00632345
0.00632454
0.00632454
0.00632454
0.00632454
0.00632454
0.00632454
0.00632345
0.00632344
0.00632344
0.00632343
0.00632343
0.00632342
0.00632342
0.00632342
0.00632341
0.00632122
0.00632122
0.00632122
0.00632123
0.00632123
0.00632123
0.00632124
0.00632125
0.00632126
0.00632235
0.00632235
0.00632234
0.00632234
0.00632235
0.00632235
0.00632235
0.00632125
0.00632124
0.00632124
0.00632123
0.00632123
0.00632123
0.00632122
0.00632122
0.00631902
0.00631903
0.00631903
0.00631903
0.00631904
0.00631904
0.00631904
0.00631904
0.00632015
0.00632015
0.00632014
0.00632013
0.00632013
0.00632014
0.00632015
0.00632016
0.00632015
0.00631906
0.00631905
0.00631904
0.00631904
0.00631903
0.00631903
0.00631903
0.00631683
0.00631683
0.00631684
0.00631684
0.00631684
0.00631685
0.00631686
0.00631794
0.00631794
0.00631793
0.00631848
0.00631845
0.00631844
0.00631847
0.00631795
0.00631797
0.00631797
0.00631689
0.00631687
0.00631686
0.00631685
0.00631684
0.00631684
0.00631683
0.00631464
0.00631464
0.00631464
0.00631465
0.00631466
0.00631466
0.00631468
0.00631576
0.00631575
0.00631573
0.00631622
0.00631645
0.00631641
0.00631621
0.00631631
0.0063158
0.0063158
0.00631472
0.00631469
0.00631468
0.00631466
0.00631465
0.00631465
0.00631464
0.00631245
0.00631245
0.00631245
0.00631246
0.00631247
0.00631248
0.00631251
0.00631358
0.00631357
0.00631357
0.00631401
0.00631411
0.00631421
0.00631414
0.00631366
0.00631365
0.00631257
0.00631252
0.0063125
0.00631248
0.00631247
0.00631246
0.00631245
0.00631026
0.00631026
0.00631027
0.00631028
0.00631029
0.00631031
0.00631034
0.00631142
0.00631142
0.00631145
0.00631188
0.00631197
0.00631212
0.00631205
0.00631155
0.00631152
0.00631042
0.00631036
0.00631032
0.0063103
0.00631028
0.00631027
0.00631026
0.00630807
0.00630807
0.00630808
0.00630809
0.00630811
0.00630813
0.00630817
0.00630925
0.00630928
0.00630934
0.0063098
0.00630997
0.0063102
0.00631003
0.00630947
0.0063094
0.00630827
0.00630819
0.00630815
0.00630812
0.0063081
0.00630808
0.00630807
0.00630588
0.00630588
0.00630589
0.00630591
0.00630593
0.00630596
0.00630601
0.0063071
0.00630714
0.00630723
0.00630774
0.00630799
0.0063083
0.00630801
0.00630739
0.00630728
0.00630613
0.00630603
0.00630598
0.00630594
0.00630591
0.00630589
0.00630588
0.00630369
0.00630369
0.00630371
0.00630372
0.00630375
0.00630378
0.00630384
0.00630494
0.00630499
0.0063051
0.00630565
0.00630594
0.00630632
0.00630596
0.00630529
0.00630516
0.00630397
0.00630387
0.0063038
0.00630376
0.00630372
0.0063037
0.00630369
0.0063015
0.00630151
0.00630152
0.00630154
0.00630157
0.00630161
0.00630167
0.00630277
0.00630284
0.00630296
0.00630351
0.0063038
0.00630422
0.00630386
0.00630317
0.00630302
0.00630182
0.0063017
0.00630163
0.00630157
0.00630153
0.00630151
0.00630149
0.00629931
0.00629932
0.00629933
0.00629936
0.00629939
0.00629943
0.0062995
0.00629954
0.00630066
0.00630077
0.0063013
0.00630151
0.0049018
0.00630171
0.0063017
0.00630102
0.00630086
0.00629965
0.00629953
0.00629945
0.00629938
0.00629934
0.00629932
0.0062993
0.00629711
0.00629713
0.00629714
0.00629717
0.0062972
0.00629725
0.00629731
0.00629733
0.00629845
0.00629855
0.00629909
0.006299
0.00592836
0.00629951
0.00629892
0.00629884
0.00629755
0.00629746
0.00629733
0.00629725
0.0062972
0.00629715
0.00629712
0.00629709
0.00629492
0.00629494
0.00629496
0.00629498
0.00629502
0.00629506
0.00629511
0.00629514
0.00629626
0.00629637
0.00629636
0.00629679
0.00595476
0.00629676
0.00629673
0.00629666
0.00629537
0.00629527
0.00629514
0.00629506
0.006295
0.00629495
0.00629492
0.00629489
0.00629273
0.00629275
0.00629277
0.0062928
0.00629283
0.00629287
0.00629292
0.00629296
0.00629303
0.00629419
0.00629418
0.00629064
0.00613411
0.00629457
0.00629454
0.00629447
0.00629317
0.00629307
0.00629294
0.00629286
0.00629279
0.00629274
0.00629271
0.00629268
0.00629054
0.00629056
0.00629058
0.00629061
0.00629064
0.00629067
0.00629073
0.00629078
0.00629085
0.0062909
0.00629199
0.00628685
0.00613596
0.00629238
0.00629126
0.00629111
0.00629098
0.00629088
0.00629074
0.00629065
0.00629059
0.00629054
0.00629051
0.00629047
0.00628835
0.00628837
0.00628839
0.00628842
0.00628845
0.00628848
0.00628854
0.0062886
0.00628867
0.00628872
0.00628809
0.00609505
0.00621546
0.00628911
0.00628907
0.00628892
0.00628878
0.00628868
0.00628854
0.00628845
0.00628838
0.00628833
0.0062883
0.00628826
0.00628616
0.00628617
0.0062862
0.00628623
0.00628626
0.0062863
0.00628636
0.00628642
0.00628649
0.00628653
0.00628531
0.00609352
0.00621366
0.00628692
0.00628688
0.00628673
0.00628659
0.00628648
0.00628634
0.00628624
0.00628617
0.00628612
0.00628609
0.00628605
0.00628396
0.00628398
0.00628401
0.00628404
0.00628408
0.00628411
0.00628418
0.00628424
0.00628432
0.00628435
0.00628253
0.00609194
0.00621179
0.00628473
0.0062847
0.00628454
0.00628439
0.00628428
0.00628413
0.00628404
0.00628397
0.00628391
0.00628388
0.00628384
0.00628177
0.00628179
0.00628182
0.00628185
0.00628189
0.00628193
0.006282
0.00628206
0.00628214
0.00628217
0.00627975
0.00609032
0.00620987
0.00628254
0.00628251
0.00628235
0.0062822
0.00628208
0.00628193
0.00628183
0.00628176
0.0062817
0.00628166
0.00628162
0.00627958
0.0062796
0.00627963
0.00627966
0.0062797
0.00627974
0.00627982
0.00627988
0.00627997
0.00627999
0.00627699
0.00608866
0.00620791
0.00628036
0.00628033
0.00628016
0.00628
0.00627988
0.00627973
0.00627962
0.00627955
0.00627949
0.00627945
0.00627941
0.00627739
0.00627741
0.00627744
0.00627747
0.00627752
0.00627756
0.00627764
0.00627771
0.0062778
0.0062778
0.00627424
0.00608697
0.00620592
0.00627817
0.00627814
0.00627798
0.00627781
0.00627768
0.00627752
0.00627742
0.00627734
0.00627728
0.00627724
0.00627719
0.0062752
0.00627522
0.00627525
0.00627528
0.00627533
0.00627538
0.00627546
0.00627553
0.00627563
0.00627562
0.0062715
0.00608526
0.0062039
0.00627599
0.00627596
0.00627579
0.00627561
0.00627548
0.00627532
0.00627521
0.00627513
0.00627506
0.00627502
0.00627498
0.00627301
0.00627303
0.00627306
0.0062731
0.00627315
0.0062732
0.00627329
0.00627336
0.00627346
0.00627344
0.00626871
0.00608358
0.00620189
0.00627381
0.00627378
0.00627361
0.00627342
0.00627328
0.00627311
0.006273
0.00627292
0.00627285
0.00627281
0.00627276
0.00627082
0.00627084
0.00627087
0.00627091
0.00627096
0.00627101
0.00627111
0.00627118
0.00627129
0.00627125
0.00626586
0.00608194
0.00619991
0.00627163
0.0062716
0.00627142
0.00627123
0.00627109
0.00627091
0.0062708
0.00627071
0.00627064
0.0062706
0.00627055
0.00626863
0.00626865
0.00626868
0.00626872
0.00626878
0.00626883
0.00626893
0.00626901
0.00626912
0.00626906
0.00626303
0.00608028
0.00619792
0.00626945
0.00626943
0.00626924
0.00626904
0.00626889
0.00626871
0.0062686
0.0062685
0.00626843
0.00626839
0.00626834
0.00626644
0.00626646
0.00626649
0.00626654
0.00626659
0.00626665
0.00626675
0.00626684
0.00626695
0.00626688
0.0062602
0.00607862
0.00619592
0.00626727
0.00626725
0.00626706
0.00626685
0.00626669
0.00626651
0.00626639
0.0062663
0.00626623
0.00626618
0.00626613
0.00626425
0.00626427
0.00626431
0.00626435
0.00626441
0.00626447
0.00626458
0.00626467
0.00626479
0.00626469
0.00625739
0.00607695
0.00619392
0.00626509
0.00626508
0.00626488
0.00626466
0.0062645
0.00626431
0.00626419
0.00626409
0.00626402
0.00626397
0.00626392
0.00626206
0.00626209
0.00626212
0.00626216
0.00626223
0.00626229
0.00626241
0.0062625
0.00626262
0.00626249
0.00625458
0.00607527
0.0061919
0.00626292
0.0062629
0.0062627
0.00626247
0.0062623
0.00626211
0.00626198
0.00626188
0.00626181
0.00626176
0.00626171
0.00625987
0.0062599
0.00625993
0.00625998
0.00626004
0.00626011
0.00626023
0.00626033
0.00626046
0.0062603
0.00625177
0.00607359
0.00618989
0.00626074
0.00626073
0.00626052
0.00626028
0.00626011
0.00625991
0.00625978
0.00625967
0.0062596
0.00625954
0.0062595
0.00625769
0.00625771
0.00625775
0.00625779
0.00625786
0.00625794
0.00625806
0.00625816
0.00625829
0.0062581
0.00624896
0.00607191
0.00618787
0.00625856
0.00625855
0.00625833
0.00625809
0.00625791
0.0062577
0.00625757
0.00625746
0.00625739
0.00625733
0.00625729
0.0062555
0.00625552
0.00625556
0.00625561
0.00625568
0.00625576
0.00625589
0.00625599
0.00625613
0.00625591
0.00624614
0.00607024
0.00618586
0.00625639
0.00625638
0.00625615
0.0062559
0.00625571
0.0062555
0.00625537
0.00625525
0.00625517
0.00625512
0.00625507
0.00625331
0.00625334
0.00625338
0.00625342
0.0062535
0.00625358
0.00625372
0.00625382
0.00625396
0.0062537
0.0062433
0.00606858
0.00618385
0.00625421
0.0062542
0.00625397
0.00625371
0.00625351
0.0062533
0.00625316
0.00625305
0.00625296
0.00625291
0.00625286
0.00625112
0.00625115
0.00625119
0.00625124
0.00625132
0.00625141
0.00625155
0.00625166
0.0062518
0.0062515
0.00624044
0.00606693
0.00618185
0.00625203
0.00625203
0.00625179
0.00625152
0.00625132
0.0062511
0.00625095
0.00625084
0.00625075
0.00625069
0.00625065
0.00631223
0.00631234
0.00631415
0.00631022
0.00631043
0.0063121
0.00630824
0.00630854
0.0063102
0.0063062
0.00630658
0.00630831
0.00630408
0.0063045
0.00630633
0.00630179
0.00475779
0.00485191
0.00630231
0.00630423
0.00631439
0.00631641
0.00631443
0.00631646
0.0063124
0.00631226
0.00631416
0.00631307
0.00631409
0.00631236
0.00631253
0.00631409
0.00631032
0.00631024
0.006312
0.00631121
0.00630893
0.00631149
0.00630768
0.00631149
0.00631043
0.00631052
0.00631202
0.00630826
0.00630824
0.00630999
0.00630923
0.00629988
0.00630221
0.00627133
0.00628976
0.00630854
0.00630852
0.00631002
0.00630617
0.0063062
0.00630799
0.00630723
0.0063013
0.00630032
0.006297
0.00628117
0.00630657
0.0063065
0.00630802
0.00630333
0.00630379
0.00630449
0.00630442
0.00630599
0.00630269
0.00630327
0.00629956
0.00512545
0.00476502
0.00562184
0.00630006
0.00630201
0.00631176
0.00631296
0.00631301
0.00631291
0.00631083
0.00631408
0.00631305
0.00631164
0.00631301
0.00631309
0.00631298
0.00631194
0.00630286
0.00630829
0.00631096
0.00630222
0.00628173
0.00631016
0.00630323
0.00629083
0.0063075
0.00631114
0.00630926
0.00630459
0.00631183
0.00630941
0.00631138
0.00630019
0.00629984
0.00630898
0.00627415
0.00628297
0.00628074
0.00627382
0.00628055
0.00627017
0.00630926
0.00630255
0.00630332
0.00630449
0.00630267
0.00630949
0.00627971
0.00628814
0.0062837
0.00627821
0.00630365
0.0062979
0.00630733
0.00630503
0.00630561
0.00630335
0.00630493
0.00630758
0.00629439
0.00629684
0.00628905
0.00629389
0.00630333
0.00630338
0.00630555
0.006305
0.00630556
0.00629813
0.00629427
0.00629708
0.00629807
0.00630164
0.00630258
0.00631328
0.0063131
0.00631413
0.00631324
0.00631398
0.00630405
0.00630407
0.00630594
0.00630515
0.00630252
0.00630229
0.00624859
0.00622004
0.00630229
0.00630228
0.00630389
0.006314
0.00631324
0.00631414
0.00631311
0.00631335
0.00630222
0.00630145
0.00630698
0.00472728
0.00496227
0.00574113
0.00588253
0.00497409
0.00523915
0.00621445
0.00616112
0.0063053
0.0063049
0.00630415
0.00589882
0.00598134
0.00630403
0.00630314
0.00630342
0.00631531
0.00631519
0.00631423
0.00631424
0.0063152
0.00631531
0.00631312
0.00631349
0.00631323
0.00631402
0.00631333
0.00631363
0.00630913
0.00630997
0.0062813
0.00628233
0.00629165
0.0062898
0.00630305
0.00616504
0.00630436
0.00627003
0.00625176
0.00625625
0.00627252
0.00630306
0.0062834
0.00631238
0.00622747
0.00630261
0.0062116
0.00631212
0.00630486
0.00631319
0.00631348
0.00631268
0.00629137
0.00631237
0.00631246
0.006291
0.00628972
0.00630818
0.00630768
0.00629762
0.00629856
0.00630527
0.00631072
0.00631108
0.00631024
0.0063106
0.0063052
0.00631084
0.0063117
0.00631208
0.00631121
0.00631158
0.00631053
0.00627818
0.00627868
0.00627527
0.0062747
0.00625749
0.00625918
0.00630161
0.00630886
0.0063092
0.00630841
0.00630875
0.00630154
0.0063037
0.00630977
0.00631012
0.00630932
0.00630966
0.00630359
0.00473371
0.00628382
0.00494075
0.00458566
0.00528802
0.00496361
0.006285
0.00627179
0.00459754
0.00627337
0.00630202
0.00630162
0.0063041
0.00630795
0.00630829
0.00630748
0.00630783
0.0063043
0.00552799
0.00571006
0.00629143
0.00555972
0.0053107
0.005776
0.00558769
0.00629211
0.00526615
0.00550062
0.00630343
0.00622398
0.0062531
0.00617181
0.00621805
0.00630344
0.00614773
0.00597762
0.00600896
0.00495056
0.00599092
0.00596538
0.00523009
0.00626911
0.00627172
0.00631382
0.00630188
0.00630181
0.00630379
0.00630298
0.00630203
0.00630271
0.00553307
0.00629835
0.00630075
0.00631382
0.00630229
0.00630252
0.00630488
0.00491315
0.00495815
0.00460015
0.00597465
0.00597264
0.005
0.00507276
0.006256
0.00626815
0.00419182
0.0063146
0.00631464
0.0063141
0.00631408
0.00631464
0.0063146
0.00631027
0.00631149
0.0063111
0.00630793
0.00630739
0.00631083
0.0063004
0.00630939
0.00630902
0.0063099
0.00630951
0.00630071
0.00627584
0.00628668
0.00629475
0.00628265
0.00601716
0.00596377
0.00630298
0.00627423
0.0062856
0.00628542
0.00628497
0.00508298
0.00631363
0.00631339
0.00631405
0.00631195
0.00630951
0.00630801
0.00631258
0.00631272
0.00631312
0.0063122
0.00631259
0.00631244
0.00630506
0.00631043
0.00631003
0.00631096
0.00631056
0.00630584
0.00629731
0.00609791
0.00621975
0.00599807
0.00602357
0.00628496
0.00623201
0.0062452
0.0063054
0.00629376
0.00630164
0.00630701
0.00631062
0.00631076
0.0063097
0.00630991
0.00630488
0.0063089
0.00630854
0.00629987
0.00627615
0.00590925
0.00582977
0.00627807
0.00595964
0.00599039
0.00581599
0.00583911
0.00627335
0.00627162
0.00626381
0.00630209
0.00630857
0.00630872
0.0063078
0.00630817
0.00630265
0.00630417
0.00630944
0.00630964
0.00630877
0.00630893
0.00630308
0.00630308
0.00625776
0.00626789
0.00624431
0.00623748
0.00629976
0.00630579
0.006307
0.00630736
0.0063065
0.00630688
0.00630576
0.00629566
0.00592805
0.00579777
0.00606193
0.00602275
0.006296
0.00531388
0.00536345
0.00629765
0.00610345
0.00607364
0.00525676
0.00529947
0.00608165
0.00603091
0.00631357
0.00631382
0.00631368
0.00596592
0.00623812
0.0060025
0.00602805
0.00602074
0.00623447
0.00631372
0.00631355
0.00631389
0.00631327
0.00631362
0.00478462
0.00484894
0.004917
0.00491417
0.00581047
0.00506157
0.00501509
0.00515562
0.0050745
0.00582866
0.00504042
0.0050917
0.00619484
0.00618582
0.00593989
0.00527769
0.00519771
0.00507956
0.0051176
0.00631277
0.00631318
0.00631344
0.00631278
0.0063131
0.00631259
0.00630804
0.00631068
0.00627694
0.00628561
0.0062942
0.00628364
0.00617777
0.00627177
0.00626448
0.00627937
0.00627406
0.00617541
0.00624758
0.00624058
0.0062622
0.00625156
0.00626362
0.00610589
0.00613627
0.00604995
0.00609063
0.00626093
0.00593422
0.00595312
0.00626403
0.00630989
0.00630716
0.00631241
0.00631068
0.00627363
0.00629051
0.00628496
0.00630507
0.00629293
0.00631154
0.00631314
0.00631266
0.00631059
0.0063086
0.00631145
0.00630989
0.00631206
0.00631033
0.00631211
0.00631266
0.00631071
0.00631189
0.00631271
0.00631228
0.00631161
0.00605654
0.00607938
0.00629546
0.00588155
0.0057857
0.00611698
0.00590225
0.00564189
0.0055495
0.00575556
0.00568015
0.00628613
0.00603227
0.00605043
0.00621802
0.00619559
0.00628211
0.00623735
0.00616895
0.00614313
0.00619165
0.00617549
0.00630602
0.00624818
0.00625636
0.00629477
0.0063011
0.00631029
0.00631053
0.00630608
0.00630496
0.00630999
0.00631021
0.00592594
0.00592274
0.00627675
0.0053819
0.00537373
0.00502271
0.00533894
0.00532788
0.00544535
0.00536383
0.00533394
0.00591325
0.00594916
0.00627727
0.00539856
0.00530091
0.00552589
0.00542873
0.0051172
0.00501203
0.00526357
0.00516151
0.0062736
0.00585658
0.00589913
0.00626542
0.00626254
0.00630839
0.00630852
0.00630196
0.00630218
0.00630821
0.00630834
0.0063092
0.00630938
0.00630405
0.0063032
0.00630898
0.00630915
0.00472437
0.00477061
0.0059813
0.00603488
0.00590677
0.00596182
0.00467367
0.00516201
0.0061016
0.00602508
0.00604917
0.00608948
0.00509528
0.00564145
0.00568125
0.0055145
0.0056273
0.00464598
0.00582816
0.00589034
0.00570139
0.00579685
0.00463583
0.00624889
0.00625527
0.00630286
0.00622
0.00623358
0.00623727
0.00621938
0.00623362
0.0063002
0.00623353
0.00624342
0.00560093
0.00480634
0.00480922
0.00498289
0.00482814
0.00562737
0.00491403
0.00534874
0.00481514
0.00538786
0.00619622
0.00628537
0.006281
0.00629057
0.00628683
0.00620016
0.00612704
0.0061357
0.00538555
0.00543885
0.00514812
0.00523944
0.00611542
0.00609319
0.00631449
0.00631463
0.00631627
0.00630315
0.00630292
0.00630205
0.00631427
0.00631431
0.00631396
0.00631391
0.00631429
0.00631428
0.00631529
0.00631524
0.0063143
0.00631202
0.00631163
0.00631062
0.00630777
0.00630205
0.00630123
0.00627255
0.0062887
0.00630794
0.00630758
0.0063007
0.00625937
0.00625626
0.0062816
0.00627011
0.00627518
0.0063041
0.00631237
0.00631255
0.00631215
0.00629995
0.00630364
0.00631133
0.00631281
0.00631243
0.00631279
0.00630979
0.00628231
0.0062983
0.0062918
0.00630037
0.00629946
0.00630696
0.00630763
0.0063077
0.00630469
0.00631093
0.00631108
0.00630971
0.00629991
0.00630842
0.00630806
0.00595822
0.005922
0.00628087
0.0062794
0.00626374
0.00626227
0.00626901
0.00630242
0.0063066
0.00630664
0.00630439
0.00630749
0.00630756
0.00630669
0.00630673
0.00630281
0.00626883
0.00601508
0.00597657
0.00630342
0.00630762
0.00630771
0.00630534
0.00630599
0.00630637
0.00488809
0.00489373
0.00613543
0.00611231
0.00629778
0.0048817
0.00488394
0.00628657
0.00628869
0.00630223
0.00631333
0.00631327
0.00472689
0.00479099
0.00480284
0.00494501
0.00498669
0.00476172
0.00477676
0.00494696
0.00491493
0.00520211
0.00611438
0.00610446
0.00616946
0.00534226
0.00529155
0.00595108
0.00631472
0.00631467
0.00631412
0.00631287
0.00631303
0.00631319
0.00631331
0.0063122
0.00631239
0.00631352
0.00631378
0.00631363
0.00630609
0.00630567
0.00630854
0.00631034
0.00630905
0.00630831
0.00627928
0.00628338
0.00626763
0.00627002
0.00629285
0.00628749
0.00625732
0.00626277
0.00618856
0.00618977
0.006221
0.00621679
0.00616508
0.00619275
0.0061962
0.00630418
0.00627721
0.00628276
0.00627607
0.00624482
0.00628817
0.00628306
0.00630886
0.00630674
0.00629782
0.00616016
0.00614195
0.00627018
0.006234
0.00618266
0.00631339
0.00631323
0.00631229
0.00631209
0.00630989
0.00631105
0.00629762
0.00631134
0.00631194
0.00625903
0.00627327
0.00630947
0.00611849
0.00609714
0.0062967
0.00629948
0.00631155
0.0063117
0.00631131
0.00630983
0.00631123
0.00631139
0.0062803
0.00591812
0.00592195
0.00625755
0.00626028
0.00630711
0.00630717
0.00630382
0.00630346
0.00630699
0.00630705
0.00474008
0.00491253
0.00533564
0.00536874
0.00498622
0.00501921
0.00458041
0.00604479
0.00602276
0.00627029
0.0045706
0.00453304
0.00476891
0.00477339
0.00461474
0.00493948
0.00496245
0.00450849
0.00452657
0.00630745
0.00630753
0.00630351
0.0063046
0.00630727
0.00630736
0.0054384
0.00607407
0.0060893
0.00604174
0.00605794
0.00539589
0.00623747
0.00628774
0.00629158
0.00629033
0.00628911
0.00624196
0.00618195
0.00623215
0.00622644
0.00613304
0.00611823
0.00615109
0.00499707
0.00501904
0.00503312
0.00488419
0.00601695
0.00544611
0.00536842
0.00551694
0.00546554
0.00595244
0.00588321
0.00588988
0.00614434
0.00616958
0.00627585
0.00631374
0.00631382
0.00631361
0.00491583
0.00492825
0.00538414
0.00538126
0.00455939
0.00504108
0.00496545
0.00496654
0.00493668
0.00495362
0.00506207
0.00421004
0.00609222
0.00611333
0.00631437
0.00631432
0.00631396
0.00630363
0.00630285
0.00630784
0.00630591
0.00630825
0.00630989
0.0063074
0.0063079
0.00627449
0.00628768
0.00624244
0.00624636
0.00624681
0.00624244
0.00628205
0.00625405
0.00625262
0.00600543
0.00591096
0.00590957
0.00592905
0.0059247
0.00599039
0.00630905
0.00631076
0.00631088
0.00631043
0.00631065
0.00630855
0.00629277
0.00630549
0.00629845
0.00629596
0.00630479
0.00630777
0.00630784
0.00626379
0.00626462
0.00627695
0.00626584
0.00630652
0.00630656
0.00630224
0.00630736
0.00630743
0.00630428
0.00630294
0.00630678
0.00630683
0.0062444
0.00625807
0.00625274
0.00626246
0.00626082
0.00624288
0.00490132
0.00491409
0.00488581
0.00488195
0.00527135
0.00504739
0.00503563
0.00591944
0.00592106
0.00606625
0.00595563
0.0059779
0.00591576
0.00593213
0.00604822
0.0063135
0.00631342
0.00631347
0.00631347
0.00631375
0.00631378
0.00631388
0.00631359
0.00631367
0.00631365
0.00599489
0.00612853
0.00612093
0.00614968
0.00613873
0.00600368
0.00605375
0.00609236
0.00607642
0.00611482
0.00610682
0.0060402
0.00631365
0.00631372
0.00631361
0.0063125
0.00631167
0.00631341
0.0063132
0.00473945
0.00491225
0.0048087
0.00480072
0.00491684
0.00491568
0.0052422
0.00526738
0.00503491
0.00475425
0.00474956
0.00500621
0.00479934
0.00478889
0.00479504
0.0051505
0.00485391
0.00479056
0.00612128
0.00613546
0.00620268
0.00608052
0.0060849
0.00606923
0.00607223
0.00617703
0.00610021
0.0061062
0.00508665
0.00489762
0.00491758
0.0048779
0.00488099
0.00509775
0.00631299
0.00631308
0.00631292
0.00631217
0.00631253
0.00631287
0.00630285
0.00630822
0.00630508
0.00630438
0.00630618
0.00630682
0.00630473
0.0063055
0.00627809
0.00628448
0.00625172
0.00625285
0.00624813
0.00624998
0.00629362
0.00627127
0.00627213
0.00625199
0.00625347
0.00628526
0.00625252
0.0062006
0.0061918
0.00616994
0.00621325
0.00620866
0.00624468
0.00620179
0.00620057
0.0062158
0.00620776
0.00624263
0.00625948
0.00622209
0.00622647
0.00620575
0.00621433
0.00625582
0.00619716
0.00606344
0.00616685
0.00615929
0.00592468
0.00593402
0.00625918
0.00629261
0.00629042
0.00625446
0.00628178
0.00630111
0.00629603
0.00619056
0.00617439
0.00625187
0.00625549
0.00628694
0.00622528
0.00620812
0.00630396
0.00630681
0.00631138
0.00630859
0.0063004
0.00628912
0.00629974
0.00631115
0.00631176
0.00631194
0.00631107
0.00631137
0.00631016
0.00630879
0.00630988
0.00631227
0.00631175
0.0063115
0.00631242
0.00631193
0.00631245
0.00631102
0.00631117
0.00631038
0.00631124
0.00585607
0.00581915
0.00605706
0.00578982
0.00582163
0.00572259
0.00592033
0.00560751
0.00557674
0.0057287
0.00570521
0.00620651
0.00609942
0.00612345
0.00605151
0.00607466
0.00620007
0.00627679
0.00623403
0.00624592
0.00613749
0.00620599
0.00626423
0.00607747
0.00603954
0.00616222
0.00589867
0.00592309
0.00585611
0.00587719
0.00615463
0.00618759
0.00601252
0.00603082
0.00595018
0.00598005
0.00618183
0.00629578
0.00630036
0.00539097
0.00503515
0.00508498
0.00493416
0.00498258
0.00538324
0.00510364
0.00511381
0.00511395
0.00522959
0.00534412
0.0046698
0.00471883
0.00475061
0.00467196
0.00538308
0.00535406
0.00484836
0.00488951
0.00476869
0.0048108
0.00534443
0.00537244
0.00534278
0.00550139
0.00546295
0.00507699
0.00503999
0.00523054
0.0052018
0.00626013
0.00626137
0.00630394
0.00630723
0.0063073
0.00630688
0.00630694
0.00630333
0.00474068
0.00522224
0.005289
0.00486352
0.00460207
0.00507094
0.00514339
0.00465172
0.00460973
0.0056535
0.00507284
0.00507241
0.00557099
0.00499715
0.00488012
0.00506853
0.00504909
0.00560648
0.00474623
0.004697
0.00484852
0.00490758
0.00463335
0.00460372
0.00473097
0.00625176
0.00627744
0.00627547
0.00628028
0.00627891
0.00625352
0.00622468
0.00623119
0.006231
0.00621829
0.00621827
0.00622411
0.00623322
0.00626632
0.00626406
0.0062727
0.00626941
0.00623744
0.00480177
0.00500286
0.00502612
0.00496842
0.00498521
0.00480409
0.00492748
0.00516083
0.00520763
0.00506066
0.00510812
0.00487321
0.00490289
0.00474659
0.00475311
0.00477257
0.00475771
0.0048185
0.00491384
0.00494752
0.00479083
0.00485305
0.00481014
0.00624068
0.00623703
0.0061911
0.0061252
0.00614536
0.00493971
0.00497966
0.00518365
0.00494876
0.00490075
0.00502071
0.00499555
0.00521581
0.00489068
0.00489032
0.00589493
0.0059018
0.00631903
0.00631903
0.00632014
0.00631901
0.00631901
0.00632013
0.00631901
0.00631901
0.00632013
0.00631903
0.00631904
0.00632015
0.00631682
0.00631681
0.00631792
0.00631678
0.00631676
0.00631847
0.00631674
0.00631671
0.00631844
0.00631671
0.00631675
0.00631845
0.00631678
0.00631682
0.00631849
0.00631685
0.00631687
0.00631795
0.00631465
0.0063146
0.00631625
0.00631456
0.00631445
0.00631618
0.00631556
0.00631553
0.00631644
0.00631547
0.00631551
0.00631641
0.00631563
0.00631567
0.00631622
0.00631467
0.00631473
0.00631579
0.00631251
0.00631244
0.00631405
0.00631347
0.00631346
0.006314
0.00631383
0.0063138
0.00631409
0.00631339
0.00631351
0.00631431
0.00631257
0.00631263
0.00631367
0.00631039
0.00631034
0.00631192
0.00631136
0.00631136
0.00631187
0.00631172
0.00631172
0.00631197
0.00631139
0.00631147
0.00631222
0.00631053
0.00631056
0.00631159
0.00630828
0.00630827
0.00630982
0.00630929
0.00630931
0.00630982
0.00630972
0.00630971
0.00630996
0.00630949
0.00630952
0.00631025
0.00630852
0.00630851
0.00630953
0.00630617
0.00630618
0.00630775
0.00630722
0.00630725
0.00630777
0.00630774
0.00630774
0.00630799
0.00630757
0.00630754
0.00630829
0.00630648
0.00630644
0.00630747
0.00630403
0.00630405
0.00630565
0.00630568
0.00630568
0.00630595
0.00630555
0.00630548
0.00630625
0.00630439
0.00630433
0.00630539
0.00630187
0.00630188
0.00630351
0.0063034
0.00630339
0.00630393
0.00630224
0.0063022
0.00630327
0.00629965
0.00629961
0.00630072
0.00629964
0.00629958
0.00630124
0.00630067
0.00629927
0.00630009
0.00505714
0.00623301
0.00624022
0.00630007
0.0063001
0.00630174
0.00630002
0.00630004
0.00630112
0.00629746
0.00629743
0.00629852
0.00629746
0.00629738
0.00629903
0.00629734
0.00551607
0.00550126
0.00594857
0.00629783
0.0062995
0.00629784
0.00629789
0.00629952
0.00629782
0.00629784
0.00629894
0.00629527
0.00629522
0.00629632
0.006293
0.00588977
0.00552029
0.00613314
0.00629544
0.00629727
0.00629567
0.0062957
0.0062968
0.00631222
0.00631248
0.00631249
0.00631258
0.00631268
0.00631228
0.00631414
0.00631386
0.00631388
0.00631021
0.00631046
0.00631047
0.00631067
0.00631067
0.00631032
0.00631215
0.00631177
0.00631186
0.00630824
0.00630848
0.00630849
0.00630878
0.00630881
0.00630847
0.0063102
0.00630985
0.00630996
0.00630621
0.00630647
0.00630646
0.00630683
0.0063069
0.00630653
0.00630835
0.006308
0.00630806
0.00630477
0.00630474
0.00630448
0.00630629
0.00630603
0.00630607
0.00630036
0.00630178
0.00630269
0.00455706
0.00528752
0.00529597
0.0058161
0.00581791
0.004221
0.00630421
0.00630394
0.00630396
0.00631428
0.00631523
0.00631526
0.006314
0.006314
0.0063139
0.00631641
0.0063155
0.00631547
0.00631399
0.00631401
0.00631472
0.0063147
0.00631441
0.00631645
0.00631555
0.00631558
0.0063124
0.00631292
0.00631294
0.00631306
0.00631291
0.00631238
0.00631397
0.00631344
0.00631333
0.00631321
0.00631317
0.0063129
0.00631406
0.0063139
0.00631393
0.00631247
0.00631325
0.00631313
0.00631305
0.00631305
0.00631254
0.00631408
0.00631356
0.00631357
0.00631033
0.00631084
0.00631084
0.00631099
0.00631084
0.00631034
0.00631187
0.00631135
0.00631124
0.00631121
0.00631146
0.00631147
0.00630943
0.00631071
0.00631048
0.00631185
0.00631168
0.00631123
0.00631095
0.00631035
0.00631125
0.00631049
0.00631122
0.00631115
0.00631102
0.00631105
0.00631056
0.00631204
0.00631154
0.00631152
0.00630828
0.0063088
0.00630877
0.00630899
0.00630882
0.00630831
0.00630983
0.00630933
0.00630924
0.00630922
0.00630947
0.00630948
0.00629997
0.00630692
0.00630681
0.00630798
0.00630774
0.00630163
0.00630854
0.00630927
0.00630925
0.00630902
0.00630908
0.00630859
0.00631006
0.00630957
0.00630952
0.00630621
0.00630673
0.0063067
0.00630698
0.00630677
0.00630625
0.0063078
0.00630729
0.00630723
0.00630723
0.00630749
0.00630748
0.00630085
0.00630746
0.0063071
0.00630607
0.00630601
0.00630044
0.00629611
0.00627599
0.00627862
0.00630652
0.00630728
0.00630732
0.00630701
0.00630708
0.00630657
0.00630809
0.00630759
0.00630752
0.00630325
0.0062894
0.00629237
0.00629872
0.00629921
0.00630391
0.00630446
0.00630498
0.00630528
0.00630495
0.00630501
0.00630448
0.00630606
0.00630554
0.00630547
0.00630279
0.00630106
0.00630108
0.00630049
0.00630065
0.00630321
0.00629876
0.00629899
0.00630011
0.0050926
0.00628471
0.00628369
0.00597608
0.00598268
0.00479439
0.00629745
0.00629812
0.00555665
0.00630061
0.00630049
0.00629981
0.00630177
0.00630077
0.00630117
0.00631199
0.00631216
0.00631201
0.00631309
0.00631268
0.00631253
0.00631275
0.00631274
0.006313
0.00631276
0.00631212
0.00631284
0.00631392
0.0063139
0.00631405
0.00631298
0.00631315
0.00631319
0.00631175
0.00631137
0.00631122
0.00631299
0.0063129
0.00631293
0.00631307
0.00631281
0.00631283
0.00631285
0.00631289
0.00631302
0.0063121
0.00631223
0.00631214
0.00630356
0.00630851
0.00630823
0.00631023
0.00630995
0.00630748
0.00631071
0.00631071
0.00631096
0.00630091
0.00628724
0.00629093
0.00624419
0.00624607
0.00628275
0.00629334
0.00629505
0.00630405
0.00631115
0.00631079
0.0063109
0.00630901
0.00631002
0.00631018
0.00631143
0.00631183
0.00631197
0.0063103
0.0063104
0.00630951
0.00631162
0.00631164
0.00631127
0.00630007
0.0063062
0.00630614
0.00630671
0.00630661
0.00629984
0.00630873
0.00630873
0.00630898
0.00627484
0.00622786
0.00622611
0.00624642
0.00624457
0.00628222
0.00627981
0.00624061
0.00624239
0.00622495
0.00622431
0.00627343
0.00630927
0.00630893
0.00630902
0.00630661
0.0063066
0.00630323
0.00630973
0.00630974
0.00630939
0.00628116
0.00615694
0.00613373
0.00623563
0.00623145
0.00628717