/*--------------------------------*- C++ -*----------------------------------*\
| =========                 |                                                 |
| \\      /  F ield         | OpenFOAM: The Open Source CFD Toolbox           |
|  \\    /   O peration     | Version:  5.x                                   |
|   \\  /    A nd           | Web:      www.OpenFOAM.org                      |
|    \\/     M anipulation  |                                                 |
\*---------------------------------------------------------------------------*/
FoamFile
{
    version     2.0;
    format      ascii;
    class       volScalarField;
    location    "300";
    object      YSat;
}
// * * * * * * * * * * * * * * * * * * * * * * * * * * * * * * * * * * * * * //

dimensions      [0 0 0 0 0 0 0];

internalField   nonuniform List<scalar> 
6584
(
0.00431405
0.00431405
0.00431405
0.00431405
0.00431405
0.00431405
0.00431405
0.00431405
0.00431405
0.00431405
0.00431405
0.00431405
0.00431405
0.00431405
0.00431405
0.00431405
0.00431405
0.00431405
0.00431405
0.00431405
0.00431405
0.00431405
0.00431405
0.00431405
0.00431405
0.00431405
0.00431405
0.00431405
0.00431405
0.00431405
0.00431405
0.00431405
0.00431405
0.00431405
0.00431405
0.00431405
0.00431405
0.00431405
0.00431405
0.00431405
0.00431405
0.00431405
0.00431405
0.00431405
0.00431405
0.00431405
0.00431405
0.00431405
0.00431405
0.00431405
0.00431405
0.00431405
0.00431405
0.00431405
0.00431405
0.00431405
0.00431405
0.00431405
0.00431405
0.00431405
0.00431405
0.00431405
0.00431405
0.00431405
0.00431405
0.00431405
0.00431405
0.00431405
0.00431405
0.00431405
0.00431405
0.00431405
0.00431405
0.00431405
0.00431405
0.00431405
0.00431405
0.00431405
0.00431405
0.00431405
0.00431405
0.00431405
0.00431405
0.00431405
0.00431405
0.00431405
0.00431405
0.00431405
0.00431405
0.00431405
0.00431405
0.00431405
0.00431405
0.00431405
0.00431405
0.00431405
0.00431405
0.00431405
0.00431405
0.00431405
0.00431405
0.00431405
0.00431405
0.00431405
0.00431405
0.00431405
0.00431405
0.00431405
0.00431405
0.00431405
0.00431405
0.00431405
0.00431405
0.00431405
0.00431405
0.00431405
0.00431405
0.00431405
0.00431405
0.00431405
0.00431405
0.00431405
0.00431405
0.00431405
0.00431405
0.00431405
0.00431405
0.00431405
0.00431405
0.00431405
0.00431405
0.00431405
0.00431405
0.00431405
0.00431405
0.00431405
0.00431405
0.00431405
0.00431405
0.00431405
0.00431405
0.00431405
0.00431405
0.00431405
0.00431405
0.00431405
0.00431405
0.00431405
0.00431405
0.00431405
0.00431405
0.00431405
0.00431405
0.00431405
0.00431405
0.00431405
0.00431405
0.00431405
0.00431405
0.00431405
0.00431405
0.00431405
0.00431405
0.00431405
0.00431405
0.00431405
0.00431405
0.00431405
0.00431405
0.00431405
0.00431405
0.00431405
0.00431405
0.00431405
0.00431405
0.00431405
0.00431405
0.00431405
0.00431405
0.00431405
0.00431405
0.00431405
0.00431405
0.00431405
0.00431405
0.00431405
0.00431405
0.00431405
0.00431405
0.00431405
0.00431405
0.00431405
0.00431405
0.00431405
0.00431405
0.00431405
0.00431405
0.00431405
0.00431405
0.00431405
0.00431405
0.00431405
0.00431405
0.00431405
0.00431405
0.00431405
0.00431405
0.00431405
0.00431405
0.00431405
0.00431405
0.00431405
0.00431405
0.00431405
0.00431405
0.00431405
0.00431405
0.00431405
0.00431405
0.00431405
0.00431405
0.00431405
0.00431405
0.00431405
0.00431405
0.00431405
0.00431405
0.00431405
0.00431405
0.00431405
0.00431405
0.00431405
0.00431405
0.00431405
0.00431405
0.00431405
0.00431405
0.00431405
0.00431405
0.00431405
0.00431405
0.00431405
0.00431405
0.00431405
0.00431405
0.00431405
0.00431405
0.00431405
0.00431405
0.00431405
0.00431405
0.00431405
0.00431405
0.00431405
0.00431405
0.00431405
0.00431405
0.00431405
0.00431405
0.00431405
0.00431405
0.00431405
0.00431405
0.00431405
0.00431405
0.00431405
0.00431405
0.00431405
0.00431405
0.00431405
0.00431405
0.00431405
0.00431405
0.00431405
0.00431405
0.00431405
0.00431405
0.00431405
0.00431405
0.00431405
0.00431405
0.00431405
0.00431405
0.00431405
0.00431405
0.00431405
0.00431405
0.00431405
0.00431405
0.00431405
0.00431405
0.00431405
0.00431405
0.00431405
0.00431405
0.00431405
0.00431405
0.00431405
0.00431405
0.00431405
0.00431405
0.00431405
0.00431405
0.00431405
0.00431405
0.00431405
0.00431405
0.00431405
0.00431405
0.00431405
0.00431405
0.00431405
0.00431405
0.00431405
0.00431405
0.00431405
0.00431405
0.00431405
0.00335092
0.00431405
0.00431405
0.00431405
0.00431405
0.00431405
0.00431405
0.00431405
0.00431405
0.00431405
0.00431405
0.00431405
0.00431405
0.00431405
0.00431405
0.00431405
0.00431405
0.00431405
0.00431405
0.00431405
0.00431405
0.00431405
0.00431405
0.00431404
0.00403927
0.00431405
0.00431405
0.00431405
0.00431405
0.00431405
0.00431405
0.00431405
0.00431405
0.00431405
0.00431405
0.00431405
0.00431405
0.00431405
0.00431405
0.00431405
0.00431405
0.00431405
0.00431405
0.00431405
0.00431405
0.00431405
0.00431405
0.00431404
0.00406044
0.00431405
0.00431405
0.00431405
0.00431405
0.00431405
0.00431405
0.00431405
0.00431405
0.00431405
0.00431405
0.00431405
0.00431405
0.00431405
0.00431405
0.00431405
0.00431405
0.00431405
0.00431405
0.00431405
0.00431405
0.00431405
0.00431405
0.00431185
0.00419405
0.00431405
0.00431405
0.00431405
0.00431405
0.00431405
0.00431405
0.00431405
0.00431405
0.00431405
0.00431405
0.00431405
0.00431405
0.00431405
0.00431405
0.00431405
0.00431405
0.00431405
0.00431405
0.00431405
0.00431405
0.00431405
0.00431405
0.00431078
0.00419723
0.00431405
0.00431405
0.00431405
0.00431405
0.00431405
0.00431405
0.00431405
0.00431405
0.00431405
0.00431405
0.00431405
0.00431405
0.00431405
0.00431405
0.00431405
0.00431405
0.00431405
0.00431405
0.00431405
0.00431405
0.00431405
0.00431365
0.00418717
0.00425889
0.00431404
0.00431405
0.00431405
0.00431405
0.00431405
0.00431405
0.00431405
0.00431405
0.00431405
0.00431405
0.00431405
0.00431405
0.00431405
0.00431405
0.00431405
0.00431405
0.00431405
0.00431405
0.00431405
0.00431405
0.00431405
0.00431324
0.00418774
0.00425926
0.00431403
0.00431405
0.00431405
0.00431405
0.00431405
0.00431405
0.00431405
0.00431405
0.00431405
0.00431405
0.00431405
0.00431405
0.00431405
0.00431405
0.00431405
0.00431405
0.00431405
0.00431405
0.00431405
0.00431405
0.00431404
0.00431284
0.00418829
0.00425958
0.00431403
0.00431405
0.00431405
0.00431405
0.00431405
0.00431405
0.00431405
0.00431405
0.00431405
0.00431405
0.00431405
0.00431405
0.00431405
0.00431405
0.00431405
0.00431405
0.00431405
0.00431405
0.00431405
0.00431405
0.00431404
0.00431244
0.0041888
0.00425985
0.00431402
0.00431405
0.00431405
0.00431405
0.00431405
0.00431405
0.00431405
0.00431405
0.00431405
0.00431405
0.00431405
0.00431405
0.00431405
0.00431405
0.00431405
0.00431405
0.00431405
0.00431405
0.00431405
0.00431405
0.00431403
0.00431205
0.0041893
0.0042601
0.00431401
0.00431405
0.00431405
0.00431405
0.00431405
0.00431405
0.00431405
0.00431405
0.00431405
0.00431405
0.00431405
0.00431405
0.00431405
0.00431405
0.00431405
0.00431405
0.00431405
0.00431405
0.00431405
0.00431405
0.00431403
0.00431167
0.00418978
0.00426032
0.00431401
0.00431405
0.00431405
0.00431405
0.00431405
0.00431405
0.00431405
0.00431405
0.00431405
0.00431405
0.00431405
0.00431405
0.00431405
0.00431405
0.00431405
0.00431405
0.00431405
0.00431405
0.00431405
0.00431405
0.00431402
0.0043113
0.00419024
0.00426052
0.004314
0.00431405
0.00431405
0.00431405
0.00431405
0.00431405
0.00431405
0.00431405
0.00431405
0.00431405
0.00431405
0.00431405
0.00431405
0.00431405
0.00431405
0.00431405
0.00431405
0.00431405
0.00431405
0.00431405
0.00431401
0.00431088
0.00419072
0.00426073
0.00431399
0.00431405
0.00431405
0.00431405
0.00431405
0.00431405
0.00431405
0.00431405
0.00431405
0.00431405
0.00431405
0.00431405
0.00431405
0.00431405
0.00431405
0.00431405
0.00431405
0.00431405
0.00431405
0.00431405
0.00431399
0.00431044
0.00419123
0.00426096
0.00431399
0.00431405
0.00431405
0.00431405
0.00431405
0.00431405
0.00431405
0.00431405
0.00431405
0.00431405
0.00431405
0.00431405
0.00431405
0.00431405
0.00431405
0.00431405
0.00431405
0.00431405
0.00431405
0.00431405
0.00431398
0.00431
0.00419173
0.00426118
0.00431398
0.00431405
0.00431405
0.00431405
0.00431405
0.00431405
0.00431405
0.00431405
0.00431405
0.00431405
0.00431405
0.00431405
0.00431405
0.00431405
0.00431405
0.00431405
0.00431405
0.00431405
0.00431405
0.00431405
0.00431396
0.00430956
0.00419223
0.00426139
0.00431398
0.00431405
0.00431405
0.00431405
0.00431405
0.00431405
0.00431405
0.00431405
0.00431405
0.00431405
0.00431405
0.00431405
0.00431405
0.00431405
0.00431405
0.00431405
0.00431405
0.00431405
0.00431405
0.00431405
0.00431395
0.00430914
0.00419272
0.0042616
0.00431397
0.00431405
0.00431405
0.00431405
0.00431405
0.00431405
0.00431405
0.00431405
0.00431405
0.00431405
0.00431405
0.00431405
0.00431405
0.00431405
0.00431405
0.00431405
0.00431405
0.00431405
0.00431405
0.00431405
0.00431393
0.00430872
0.00419322
0.0042618
0.00431396
0.00431405
0.00431405
0.00431405
0.00431405
0.00431405
0.00431405
0.00431405
0.00431405
0.00431405
0.00431405
0.00431405
0.00431405
0.00431405
0.00431405
0.00431405
0.00431405
0.00431405
0.00431405
0.00431405
0.00431391
0.0043083
0.00419371
0.00426201
0.00431396
0.00431405
0.00431405
0.00431405
0.00431405
0.00431405
0.00431405
0.00431405
0.00431405
0.00431405
0.00431405
0.00431405
0.00431405
0.00431405
0.00431405
0.00431405
0.00431405
0.00431405
0.00431405
0.00431405
0.00431388
0.00430788
0.0041942
0.00426221
0.00431395
0.00431405
0.00431405
0.00431405
0.00431405
0.00431405
0.00431405
0.00431405
0.00431405
0.00431405
0.00431405
0.00431405
0.00431405
0.00431405
0.00431405
0.00431405
0.00431405
0.00431405
0.00431405
0.00431404
0.00431386
0.00430745
0.0041947
0.00426242
0.00431394
0.00431405
0.00431405
0.00431405
0.00431405
0.00431405
0.00431405
0.00431405
0.00431405
0.00431405
0.00431405
0.00431405
0.00431405
0.00431405
0.00431405
0.00431405
0.00431405
0.00431405
0.00431405
0.00431404
0.00431383
0.00430701
0.00419521
0.00426262
0.00431394
0.00431405
0.00431405
0.00431405
0.00431405
0.00431405
0.00431405
0.00431405
0.00431405
0.00431405
0.00431405
0.00431405
0.00431405
0.00431405
0.00431405
0.00431405
0.00431405
0.00431405
0.00431405
0.00431404
0.0043138
0.00430656
0.00419572
0.00426284
0.00431393
0.00431405
0.00431405
0.00431405
0.00431405
0.00431405
0.00431405
0.00431405
0.00431405
0.00431405
0.00431405
0.00431405
0.00431405
0.00431405
0.00431405
0.00431405
0.00431405
0.00431405
0.00431405
0.00431405
0.00431405
0.00431405
0.00431405
0.00431405
0.00431405
0.00431405
0.00431405
0.00331265
0.00332009
0.00431405
0.00431405
0.00431405
0.00431405
0.00431405
0.00431405
0.00431405
0.00431405
0.00431405
0.00431404
0.00431405
0.00431405
0.00431405
0.00431405
0.00431405
0.00431405
0.00431405
0.00431405
0.00431241
0.00431372
0.00431141
0.00431369
0.00431405
0.00431405
0.00431405
0.00431405
0.00431405
0.00431405
0.00431405
0.00430705
0.00430812
0.00428434
0.00429815
0.00431405
0.00431405
0.00431405
0.00431405
0.00431405
0.00431405
0.00431405
0.00430976
0.0043083
0.00430574
0.00429263
0.00431405
0.00431405
0.00431405
0.00431236
0.00431198
0.00431405
0.00431405
0.00431405
0.00431358
0.00431327
0.00431404
0.00355218
0.0033171
0.00382278
0.00431405
0.00431405
0.00431383
0.00431405
0.00431405
0.00431403
0.00431313
0.00431405
0.00431404
0.00431376
0.00431404
0.00431405
0.00431405
0.00431394
0.00430851
0.00431201
0.00431405
0.00430732
0.00429243
0.00431271
0.00430805
0.00429895
0.00431131
0.00431405
0.00431268
0.00430969
0.00431391
0.00431274
0.00431405
0.0043081
0.00430712
0.00431405
0.00428791
0.00429569
0.00429174
0.00428758
0.00429211
0.00428347
0.00431405
0.00430882
0.00431006
0.00430966
0.00430888
0.00431405
0.00429469
0.00430154
0.00429631
0.00429347
0.00431181
0.00430649
0.00431405
0.00431219
0.00431337
0.00431013
0.00431206
0.00431405
0.00430684
0.00430922
0.00430229
0.00430639
0.00431321
0.00431251
0.00431342
0.00431368
0.00431405
0.00431102
0.00430943
0.0043095
0.00431088
0.00431372
0.00431362
0.00431405
0.00431405
0.00431405
0.00431394
0.00431405
0.00431405
0.00431405
0.00431405
0.00431405
0.00431223
0.00431138
0.00427017
0.00424743
0.00431405
0.00431405
0.00431405
0.00431405
0.00431393
0.00431405
0.00431405
0.00431405
0.00431123
0.00430997
0.00431405
0.0033392
0.00348539
0.00396035
0.00405054
0.00349283
0.00364851
0.00424303
0.00420173
0.00431405
0.00431371
0.00431385
0.00406104
0.00411498
0.00431386
0.00431393
0.00431405
0.00431405
0.00431405
0.00431405
0.00431405
0.00431405
0.00431405
0.00431389
0.00431405
0.00431397
0.00431405
0.004314
0.00431405
0.00431224
0.00431284
0.00429187
0.00429264
0.0043012
0.00429969
0.00431183
0.00420452
0.00431278
0.00428769
0.00427274
0.00427575
0.00428904
0.00431343
0.00429123
0.00431393
0.00424845
0.00430613
0.00423632
0.00431383
0.00430783
0.00431392
0.00431405
0.00431355
0.00429736
0.00431398
0.004314
0.00429906
0.00429812
0.00431147
0.00431114
0.00430395
0.00430464
0.00430988
0.00431402
0.00431403
0.004314
0.00431401
0.00430986
0.00431349
0.00431404
0.00431405
0.00431403
0.00431404
0.0043133
0.00429149
0.00429194
0.00428806
0.0042877
0.00427382
0.0042751
0.00430838
0.004314
0.004314
0.00431401
0.00431401
0.00430836
0.00430934
0.004314
0.004314
0.004314
0.004314
0.00430929
0.00333953
0.00429802
0.00345683
0.00321727
0.00367641
0.00347381
0.00429898
0.00428822
0.00321784
0.00428953
0.00431016
0.0043098
0.00431103
0.00431402
0.00431401
0.00431402
0.00431402
0.00431123
0.00382544
0.00394085
0.00430427
0.00384441
0.003691
0.00398084
0.00386193
0.00430485
0.00366466
0.00380827
0.00431296
0.0042501
0.00427321
0.00420971
0.00424546
0.00431287
0.00419149
0.00411416
0.00413521
0.00343302
0.00412131
0.00410604
0.00355193
0.00428767
0.0042891
0.00431403
0.00431405
0.00431405
0.00431405
0.00431405
0.00431343
0.00431334
0.00376072
0.00431208
0.00431325
0.00431404
0.00431285
0.00431232
0.00431405
0.00339725
0.00342655
0.00321355
0.00411405
0.00411477
0.00345428
0.00350304
0.00427847
0.00428714
0.00293583
0.00431405
0.00431405
0.00431405
0.00431405
0.00431405
0.00431405
0.00431316
0.00431403
0.00431402
0.00431147
0.00431052
0.00431332
0.00430714
0.00431393
0.00431393
0.00431395
0.00431394
0.00430728
0.00428776
0.00429588
0.00430382
0.0042939
0.00409653
0.0040564
0.00431348
0.00429046
0.00429996
0.00430431
0.00430467
0.0035249
0.00431405
0.00431401
0.00431405
0.00431386
0.00431199
0.00431096
0.00431404
0.00431405
0.00431405
0.00431405
0.00431405
0.00431403
0.00430991
0.00431398
0.00431396
0.00431401
0.00431399
0.00431041
0.00430369
0.00415213
0.00424401
0.00407975
0.00409805
0.00429471
0.0042533
0.00426321
0.00430957
0.00430111
0.00430687
0.00431106
0.0043138
0.00431382
0.00431363
0.00431366
0.00430978
0.00431394
0.00431394
0.00430745
0.00428965
0.0040197
0.00396189
0.0042899
0.00405236
0.00407429
0.00395176
0.00396737
0.004287
0.004285
0.0042786
0.00430859
0.00431364
0.00431362
0.00431358
0.00431373
0.0043094
0.00430953
0.00431361
0.00431362
0.00431361
0.0043136
0.00430906
0.00431121
0.00427548
0.00428353
0.0042645
0.00425932
0.00430811
0.00431313
0.00431403
0.00431402
0.00431403
0.00431403
0.00431319
0.00430801
0.00407849
0.00399478
0.00416236
0.00413697
0.00430835
0.00367187
0.00370809
0.00431019
0.00418955
0.00416998
0.00363016
0.00366127
0.00414546
0.00410697
0.00431403
0.00431404
0.00431404
0.00405695
0.00426177
0.00408341
0.00410279
0.00409682
0.00425885
0.00431405
0.00431398
0.00431405
0.00431381
0.00431404
0.00337764
0.0034166
0.00340074
0.0033981
0.00400431
0.00349679
0.00346629
0.00355975
0.00350535
0.00401597
0.00353162
0.0035615
0.00422773
0.00422074
0.0040877
0.00364265
0.00358813
0.00350774
0.00353392
0.00431376
0.00431403
0.00431404
0.00431394
0.00431402
0.00431366
0.00431152
0.00431325
0.00428859
0.00429508
0.00430335
0.00429471
0.00421423
0.0042871
0.00428124
0.00429326
0.00428894
0.00421243
0.00426785
0.0042623
0.00427943
0.00427099
0.0042824
0.00416181
0.00418523
0.00411925
0.00415018
0.00428019
0.00403448
0.00404771
0.00427645
0.00431194
0.00430997
0.00431367
0.0043125
0.00428382
0.00429732
0.00429317
0.0043084
0.00429914
0.00431286
0.00431401
0.00431381
0.00431208
0.00431059
0.00431333
0.00431224
0.00431389
0.00431246
0.00431362
0.0043139
0.00431271
0.00431349
0.00431403
0.00431378
0.00431341
0.00412176
0.00413839
0.00430232
0.00399289
0.00392447
0.00416612
0.00400776
0.00382413
0.00376095
0.00390321
0.00385066
0.00429555
0.00410433
0.00411735
0.00424189
0.00422494
0.00429101
0.00425667
0.00420503
0.00418574
0.004222
0.00420991
0.00431
0.00426545
0.00427156
0.00430185
0.00430649
0.00431373
0.00431378
0.00431038
0.00430981
0.00431367
0.00431371
0.0040332
0.00402974
0.00429017
0.00365351
0.00364958
0.00341925
0.00362452
0.00362228
0.00370347
0.00364353
0.00362553
0.00401948
0.00404491
0.00428936
0.00365998
0.00359595
0.00374505
0.00367995
0.00347812
0.00341228
0.00357171
0.0035063
0.0042871
0.00397962
0.0040095
0.00428011
0.00427765
0.00431367
0.00431364
0.00430852
0.004309
0.00431371
0.00431368
0.0043136
0.0043136
0.00430949
0.00430912
0.0043136
0.0043136
0.00332179
0.00334565
0.00409714
0.00413453
0.00404303
0.00408326
0.00328448
0.00359843
0.00417998
0.00412978
0.00414441
0.00417182
0.00355791
0.00384327
0.00387545
0.00375125
0.00383209
0.00322994
0.00398407
0.00403063
0.00389096
0.00396116
0.00321916
0.0042684
0.00427349
0.00431098
0.00424616
0.00425654
0.00425968
0.00424573
0.00425653
0.00430852
0.0042563
0.0042641
0.00387155
0.00333088
0.00333462
0.00344516
0.00334454
0.0038883
0.00339913
0.00371461
0.00333933
0.00373852
0.00422849
0.00429821
0.0042946
0.00430256
0.00429942
0.00423154
0.00417572
0.00418227
0.00372394
0.00376274
0.00355476
0.00361782
0.00417179
0.00415432
0.00431405
0.00431405
0.00431405
0.00431405
0.00431398
0.00431399
0.00431405
0.00431405
0.00431405
0.00431404
0.00431405
0.00431405
0.00431405
0.00431405
0.00431405
0.00431405
0.00431404
0.00431334
0.00431144
0.00430697
0.00430638
0.00428527
0.00429737
0.00431395
0.00431396
0.0043089
0.00427558
0.00427318
0.004293
0.00428531
0.00428943
0.00431238
0.004314
0.00431405
0.00431405
0.00430476
0.00430748
0.00431342
0.00431398
0.00431385
0.00431403
0.00431252
0.00429131
0.00430354
0.00429967
0.00430575
0.00430508
0.00431093
0.00431205
0.00431206
0.00430973
0.00431386
0.00431389
0.00431285
0.00430759
0.00431394
0.00431395
0.00406158
0.00403349
0.0042939
0.00429117
0.00427892
0.00427781
0.0042826
0.00430876
0.00431203
0.00431202
0.00430962
0.00431203
0.00431204
0.00431201
0.004312
0.00430894
0.00428575
0.00410509
0.0040754
0.00431032
0.00431362
0.0043136
0.00431355
0.00431404
0.00431403
0.00338249
0.00338721
0.00421079
0.0041954
0.00431038
0.0033766
0.00337887
0.00430086
0.00430294
0.00431369
0.00431396
0.0043139
0.00334181
0.00337509
0.00338456
0.00347454
0.00350043
0.00335033
0.00336339
0.00344995
0.00343145
0.00362648
0.00416624
0.00415877
0.00420813
0.00368763
0.00365229
0.00409504
0.00431405
0.00431405
0.00431405
0.00431373
0.00431388
0.00431398
0.00431402
0.0043135
0.00431361
0.00431405
0.00431405
0.00431404
0.00430986
0.00430957
0.00431182
0.00431308
0.00431208
0.00431155
0.00429034
0.00429342
0.00428231
0.00428422
0.00430219
0.00429783
0.00427417
0.00427847
0.00422242
0.00422334
0.00424755
0.00424427
0.00420454
0.00422561
0.00422824
0.00431249
0.00429107
0.00429558
0.0042856
0.00426173
0.00429522
0.00429131
0.00431098
0.00430938
0.00430246
0.00419742
0.00418367
0.0042814
0.00425357
0.00421425
0.00431404
0.00431403
0.00431339
0.00431315
0.00431145
0.0043123
0.00430216
0.00431291
0.00431334
0.00427356
0.00428438
0.00431232
0.004166
0.00414998
0.00430327
0.00430531
0.00431398
0.004314
0.00431371
0.0043129
0.00431392
0.00431395
0.00429339
0.00402995
0.0040308
0.00427389
0.00427593
0.004312
0.004312
0.00430939
0.00430923
0.00431199
0.00431199
0.00333942
0.00343647
0.00368302
0.00370592
0.0034492
0.00347349
0.00322029
0.00412937
0.00411133
0.00428698
0.00316009
0.00314042
0.0032698
0.00327377
0.00322192
0.00341211
0.0034306
0.00312894
0.00314309
0.00431366
0.00431364
0.00431043
0.00431161
0.00431371
0.00431368
0.00376997
0.00416237
0.00417252
0.00414088
0.00415165
0.00374406
0.00426074
0.00430051
0.00430342
0.0043028
0.00430171
0.00426431
0.00421748
0.00425627
0.0042518
0.0041803
0.00416914
0.00419395
0.00346235
0.00347567
0.00348616
0.00337611
0.00413857
0.00375981
0.00370572
0.00381022
0.00377353
0.00409749
0.00400251
0.00400676
0.00419151
0.00421118
0.0042926
0.00431403
0.00431403
0.00431397
0.00339887
0.00340692
0.00372582
0.00372625
0.00318691
0.00348167
0.00343086
0.00343175
0.00341135
0.00342281
0.00349577
0.00294764
0.00415581
0.00417055
0.00431405
0.00431405
0.00431405
0.00430812
0.00430755
0.00431145
0.0043094
0.00431124
0.00431247
0.00431066
0.004311
0.00428674
0.00429661
0.00426288
0.00426589
0.00426636
0.00426292
0.00429339
0.00427149
0.00427041
0.00408759
0.00401858
0.00401791
0.00403117
0.00402829
0.00407623
0.00431168
0.00431302
0.00431307
0.00431285
0.00431297
0.00431134
0.00430038
0.00430983
0.00430433
0.00430243
0.00430976
0.00431207
0.00431209
0.0042789
0.00427959
0.00428921
0.00428016
0.00431205
0.00431204
0.00430866
0.00431202
0.00431202
0.00430957
0.004309
0.004312
0.00431199
0.0042646
0.00427522
0.00427102
0.00427874
0.00427741
0.00426346
0.00339327
0.00340279
0.0033782
0.00337614
0.00364069
0.00348648
0.00347805
0.00402685
0.00402761
0.00413373
0.00405255
0.0040692
0.00402276
0.00403503
0.00412007
0.004314
0.00431398
0.00431401
0.00431396
0.00431403
0.00431404
0.00431405
0.00431401
0.00431402
0.004314
0.00407791
0.00417776
0.00417191
0.00419403
0.00418559
0.00408455
0.00412123
0.00415009
0.00413805
0.0041672
0.00416108
0.0041112
0.00431401
0.00431404
0.00431402
0.00431332
0.00431272
0.00431393
0.00431382
0.00335063
0.00345446
0.00338951
0.00338524
0.00340032
0.00339931
0.00362131
0.00363812
0.00347928
0.00333727
0.00333847
0.00351181
0.00335093
0.00334053
0.00335178
0.00359598
0.00339447
0.00335663
0.00417159
0.00418239
0.00423383
0.00414094
0.0041442
0.00413258
0.00413477
0.00421396
0.0041556
0.00416015
0.00351267
0.003385
0.00339844
0.00337166
0.0033738
0.00352034
0.00431393
0.00431395
0.00431383
0.00431337
0.00431368
0.00431388
0.00430732
0.00431161
0.00430915
0.00430865
0.0043098
0.00431025
0.00430875
0.00430931
0.00428944
0.00429424
0.00426996
0.0042708
0.00426723
0.00426864
0.00430284
0.00428524
0.00428595
0.00426994
0.00427113
0.00429603
0.00427051
0.00423172
0.00422494
0.00420825
0.00424151
0.00423795
0.00426555
0.00423241
0.0042315
0.00424313
0.00423697
0.00426392
0.00427725
0.00424818
0.0042516
0.00423551
0.00424215
0.00427435
0.00422897
0.00412949
0.00420734
0.00420146
0.00402728
0.00403391
0.00427259
0.00429857
0.00429692
0.00426911
0.00429008
0.00430506
0.00430117
0.00422045
0.00420818
0.00426762
0.00427036
0.00429465
0.00424692
0.00423381
0.00430694
0.0043091
0.00431265
0.00431037
0.00430427
0.0042955
0.0043037
0.00431314
0.00431361
0.0043137
0.00431317
0.00431335
0.00431242
0.00431133
0.00431215
0.00431369
0.00431329
0.00431314
0.00431372
0.00431339
0.00431378
0.0043129
0.00431292
0.00431234
0.00431304
0.00397463
0.00394823
0.00412138
0.00392644
0.00394907
0.00387881
0.00402078
0.00380046
0.00377944
0.00388439
0.00386804
0.00423315
0.00415196
0.00416999
0.00411623
0.00413345
0.00422829
0.00428695
0.004254
0.00426309
0.00418054
0.00423257
0.0042773
0.00413528
0.00410701
0.0042
0.0040043
0.00402197
0.00397374
0.00398885
0.00419434
0.00421897
0.00408743
0.00410092
0.00404168
0.00406353
0.00421466
0.00430259
0.00430595
0.00366005
0.00342851
0.00345985
0.00336574
0.00339569
0.0036554
0.00347077
0.00347793
0.0034777
0.00355233
0.00363391
0.00320671
0.0032357
0.00325686
0.00320862
0.00366077
0.00363761
0.00331339
0.0033384
0.0032655
0.00329077
0.00363183
0.00364281
0.00362337
0.00372861
0.00370277
0.00345275
0.0034296
0.00355043
0.00353206
0.00427594
0.00427676
0.00430944
0.00431201
0.00431201
0.00431199
0.00431199
0.00430917
0.00333562
0.00360787
0.00365173
0.00340377
0.00323834
0.00350873
0.00355642
0.00320456
0.00318124
0.00385307
0.00346712
0.00346462
0.00379088
0.00341182
0.00333739
0.0034602
0.00344616
0.00381643
0.00325858
0.00323019
0.00334829
0.00338842
0.00322735
0.00319249
0.00327288
0.00427068
0.00429074
0.00428915
0.00429307
0.00429194
0.00427209
0.00424974
0.00425473
0.00425479
0.004245
0.00424501
0.00424942
0.00425611
0.00428184
0.00428003
0.00428693
0.0042843
0.00425942
0.00332847
0.00346266
0.00347755
0.00344133
0.00345159
0.00333059
0.00340882
0.00356687
0.00359818
0.00350021
0.0035317
0.00337354
0.00339219
0.00330297
0.00330499
0.00332628
0.0033132
0.00334252
0.00340696
0.00342834
0.0033281
0.00336771
0.00333819
0.00426298
0.0042601
0.00422453
0.00417433
0.00418961
0.00342083
0.00344841
0.00357911
0.00341881
0.00338678
0.00346758
0.00345035
0.0036013
0.00338068
0.00338078
0.00400994
0.00401444
0.00431405
0.00431405
0.00431405
0.00431405
0.00431405
0.00431405
0.00431405
0.00431405
0.00431405
0.00431405
0.00431405
0.00431405
0.00431405
0.00431405
0.00431405
0.00431405
0.00431405
0.00431405
0.00431405
0.00431405
0.00431405
0.00431405
0.00431405
0.00431405
0.00431405
0.00431405
0.00431405
0.00431405
0.00431405
0.00431405
0.00431405
0.00431405
0.00431405
0.00431405
0.00431405
0.00431405
0.00431405
0.00431405
0.00431405
0.00431405
0.00431405
0.00431405
0.00431405
0.00431405
0.00431405
0.00431405
0.00431405
0.00431405
0.00431405
0.00431405
0.00431405
0.00431405
0.00431405
0.00431405
0.00431405
0.00431405
0.00431405
0.00431405
0.00431405
0.00431405
0.00431405
0.00431405
0.00431405
0.00431405
0.00431405
0.00431405
0.00431405
0.00431405
0.00431405
0.00431405
0.00431405
0.00431405
0.00431405
0.00431405
0.00431405
0.00431405
0.00431405
0.00431405
0.00431405
0.00431405
0.00431405
0.00431405
0.00431405
0.00431405
0.00431405
0.00431403
0.00431403
0.00431405
0.00431405
0.00431405
0.00431405
0.00431405
0.00431405
0.00431405
0.00431405
0.00431405
0.00431405
0.00431405
0.00431405
0.00431405
0.00431403
0.00431403
0.00431405
0.00431405
0.00431405
0.00431405
0.00431405
0.00431405
0.00431405
0.00431405
0.00431405
0.00431405
0.00431404
0.00431404
0.00431405
0.00431405
0.00431405
0.00431405
0.00431405
0.00431405
0.00431405
0.00431405
0.00431405
0.00431405
0.00431405
0.00431405
0.00431405
0.00431405
0.00431405
0.00431405
0.00431405
0.00431405
0.00431405
0.00431405
0.00431405
0.00431405
0.00431319
0.00431316
0.00344841
0.00426188
0.00426673
0.00431405
0.00431405
0.00431405
0.00431405
0.00431405
0.00431405
0.00431405
0.00431405
0.00431405
0.00431405
0.00431405
0.00431405
0.00431404
0.00381163
0.0038004
0.00405545
0.00431405
0.00431405
0.00431405
0.00431405
0.00431405
0.00431405
0.00431405
0.00431405
0.00431405
0.00431405
0.00431405
0.0043127
0.0040506
0.00381499
0.00419241
0.00431397
0.00431405
0.00431405
0.00431405
0.00431405
0.00431405
0.00431405
0.00431405
0.00431405
0.00431405
0.00431405
0.00431405
0.00431405
0.00431405
0.00431404
0.00431404
0.00431405
0.00431405
0.00431404
0.00431404
0.00431405
0.00431405
0.00431405
0.00431403
0.00431403
0.00431405
0.00431405
0.00431404
0.00431404
0.00431403
0.00431403
0.00431405
0.00431404
0.00431404
0.00431405
0.00431405
0.00431404
0.00431405
0.00431404
0.00431404
0.00431405
0.00431405
0.00431405
0.00431405
0.00431405
0.00431405
0.00431405
0.00431316
0.00431346
0.00431405
0.0031858
0.00366257
0.00366912
0.00395584
0.00395678
0.00295437
0.00431405
0.00431405
0.00431405
0.00431405
0.00431405
0.00431405
0.00431405
0.00431405
0.00431404
0.00431405
0.00431405
0.00431405
0.00431405
0.00431405
0.00431405
0.00431405
0.00431405
0.00431405
0.00431405
0.00431405
0.00431405
0.00431405
0.00431405
0.00431405
0.00431405
0.00431405
0.00431405
0.00431405
0.00431405
0.00431405
0.00431403
0.004314
0.00431405
0.00431405
0.00431405
0.00431405
0.00431405
0.00431405
0.00431405
0.00431405
0.00431405
0.00431405
0.00431405
0.00431405
0.00431405
0.00431405
0.00431405
0.00431405
0.00431405
0.00431405
0.00431405
0.00431405
0.00431405
0.00431404
0.00431405
0.00431405
0.0043127
0.00431367
0.00431359
0.00431397
0.00431394
0.00431361
0.00431329
0.00431287
0.00431356
0.00431405
0.00431405
0.00431405
0.00431405
0.00431405
0.00431405
0.00431405
0.00431405
0.00431405
0.00431405
0.00431405
0.00431405
0.00431405
0.00431405
0.00431405
0.00431405
0.00431405
0.00431405
0.00431403
0.00431403
0.00431405
0.00430701
0.00431228
0.00431229
0.00431252
0.00431243
0.00430777
0.00431405
0.00431405
0.00431405
0.00431405
0.00431405
0.00431405
0.00431405
0.00431405
0.00431405
0.00431405
0.00431405
0.00431405
0.00431405
0.00431405
0.00431405
0.00431405
0.00431405
0.00431405
0.00431404
0.00431404
0.00431405
0.00430911
0.00431397
0.00431398
0.00431258
0.00431263
0.0043085
0.00430499
0.0042891
0.00429121
0.00431405
0.00431405
0.00431405
0.00431405
0.00431405
0.00431405
0.00431405
0.00431405
0.00431405
0.0043122
0.00430108
0.00430359
0.00430791
0.00430835
0.00431212
0.00431405
0.00431405
0.00431405
0.00431405
0.00431405
0.00431405
0.00431405
0.00431405
0.00431405
0.00431355
0.00431218
0.00431231
0.00431105
0.00431129
0.00431333
0.00431357
0.00431319
0.00431404
0.00353101
0.00430473
0.00430475
0.00411756
0.00412363
0.00333519
0.00431229
0.00431213
0.00377711
0.00431405
0.00431388
0.00431396
0.00431399
0.00431388
0.00431405
0.00431391
0.00431402
0.004314
0.00431405
0.00431405
0.00431402
0.00431405
0.00431405
0.00431405
0.00431402
0.00431357
0.00431396
0.00431405
0.00431405
0.00431405
0.00431401
0.00431404
0.00431405
0.0043138
0.00431352
0.00431345
0.00431404
0.00431403
0.00431404
0.00431405
0.00431405
0.00431405
0.00431404
0.00431405
0.00431405
0.00431403
0.00431403
0.00431399
0.00430895
0.00431274
0.00431262
0.00431349
0.00431337
0.00431149
0.00431405
0.00431404
0.00431404
0.00430636
0.00429583
0.00429863
0.00426382
0.00426517
0.00429315
0.00430043
0.0043017
0.00430863
0.00431404
0.00431404
0.00431405
0.00431252
0.00431329
0.00431337
0.00431375
0.00431401
0.00431402
0.00431342
0.00431345
0.00431278
0.00431405
0.00431405
0.00431404
0.00430791
0.00431249
0.00431253
0.0043123
0.00431233
0.00430722
0.00431405
0.00431403
0.00431403
0.00428851
0.00425334
0.00425191
0.00426903
0.00426752
0.00429505
0.0042911
0.00426127
0.00426253
0.00425091
0.00425031
0.00428721
0.00431403
0.00431403
0.00431405
0.00431266
0.0043126
0.00430994
0.00431405