/*--------------------------------*- C++ -*----------------------------------*\
| =========                 |                                                 |
| \\      /  F ield         | OpenFOAM: The Open Source CFD Toolbox           |
|  \\    /   O peration     | Version:  5.x                                   |
|   \\  /    A nd           | Web:      www.OpenFOAM.org                      |
|    \\/     M anipulation  |                                                 |
\*---------------------------------------------------------------------------*/
FoamFile
{
    version     2.0;
    format      ascii;
    class       volScalarField;
    location    "100";
    object      massFlux;
}
// * * * * * * * * * * * * * * * * * * * * * * * * * * * * * * * * * * * * * //

dimensions      [0 0 0 0 0 0 0];

internalField   nonuniform List<scalar> 
6584
(
0.0241652
0.0241651
0.0241651
0.0241652
0.0241652
0.0241652
0.0241652
0.0241652
0.0241652
0.0241652
0.0241652
0.0241652
0.0241652
0.0241652
0.0241652
0.0241652
0.0241652
0.0241652
0.0241652
0.0241652
0.0241651
0.0241651
0.0241651
0.0241651
0.0241388
0.0241388
0.0241388
0.0241388
0.0241388
0.0241389
0.0241389
0.024139
0.024139
0.024139
0.024139
0.024139
0.024139
0.024139
0.024139
0.024139
0.024139
0.0241389
0.0241389
0.0241389
0.0241388
0.0241388
0.0241388
0.0241387
0.0241124
0.0241124
0.0241124
0.0241124
0.0241125
0.0241125
0.0241126
0.0241127
0.0241128
0.0241259
0.0241259
0.0241259
0.0241259
0.0241259
0.0241259
0.0241128
0.0241127
0.0241126
0.0241126
0.0241125
0.0241125
0.0241125
0.0241124
0.0241124
0.024086
0.0240861
0.0240861
0.0240861
0.0240861
0.0240862
0.0240863
0.0240864
0.0240865
0.0240996
0.0240996
0.0240995
0.0240995
0.0240996
0.0240996
0.0240997
0.0240864
0.0240863
0.0240863
0.0240862
0.0240862
0.0240861
0.0240861
0.0240861
0.0240597
0.0240597
0.0240598
0.0240598
0.0240598
0.0240599
0.0240599
0.0240599
0.0240732
0.0240733
0.0240731
0.024073
0.024073
0.024073
0.0240732
0.0240733
0.0240733
0.0240601
0.02406
0.0240599
0.0240599
0.0240598
0.0240598
0.0240597
0.0240334
0.0240334
0.0240334
0.0240335
0.0240336
0.0240336
0.0240337
0.0240468
0.0240467
0.0240466
0.0240531
0.0240528
0.0240527
0.024053
0.0240468
0.024047
0.0240471
0.0240341
0.0240338
0.0240337
0.0240336
0.0240335
0.0240335
0.0240334
0.0240071
0.0240071
0.0240072
0.0240072
0.0240073
0.0240074
0.0240076
0.0240206
0.0240204
0.0240202
0.0240261
0.0240288
0.0240283
0.0240258
0.024027
0.0240209
0.024021
0.0240081
0.0240077
0.0240076
0.0240074
0.0240073
0.0240072
0.0240072
0.0239808
0.0239808
0.0239809
0.023981
0.0239811
0.0239812
0.0239815
0.0239944
0.0239943
0.0239943
0.0239996
0.0240008
0.0240016
0.0240009
0.0239952
0.0239952
0.0239823
0.0239817
0.0239815
0.0239812
0.0239811
0.023981
0.0239809
0.0239545
0.0239546
0.0239546
0.0239548
0.0239549
0.0239551
0.0239555
0.0239684
0.0239685
0.0239688
0.023974
0.0239753
0.0239763
0.0239758
0.02397
0.0239696
0.0239566
0.0239558
0.0239554
0.0239551
0.0239549
0.0239547
0.0239546
0.0239282
0.0239283
0.0239284
0.0239286
0.0239288
0.023929
0.0239296
0.0239425
0.0239428
0.0239435
0.0239492
0.0239514
0.023953
0.0239514
0.023945
0.0239442
0.0239309
0.0239299
0.0239293
0.023929
0.0239287
0.0239285
0.0239284
0.023902
0.0239021
0.0239022
0.0239024
0.0239026
0.023903
0.0239036
0.0239166
0.0239171
0.0239182
0.0239244
0.0239276
0.02393
0.0239273
0.0239201
0.0239189
0.0239052
0.023904
0.0239033
0.0239028
0.0239025
0.0239023
0.0239021
0.0238757
0.0238758
0.023876
0.0238762
0.0238765
0.0238769
0.0238776
0.0238907
0.0238914
0.0238927
0.0238994
0.023903
0.0239062
0.0239029
0.0238951
0.0238935
0.0238794
0.0238781
0.0238773
0.0238767
0.0238763
0.023876
0.0238758
0.0238495
0.0238496
0.0238498
0.02385
0.0238503
0.0238508
0.0238516
0.0238648
0.0238656
0.023867
0.023874
0.0238773
0.0238808
0.0238778
0.0238697
0.023868
0.0238536
0.0238521
0.0238512
0.0238505
0.02385
0.0238498
0.0238495
0.0238232
0.0238233
0.0238235
0.0238238
0.0238242
0.0238247
0.0238255
0.0238261
0.0238396
0.0238408
0.0238476
0.0238493
0.013753
0.0238502
0.0238521
0.0238441
0.0238422
0.0238277
0.0238261
0.0238251
0.0238243
0.0238238
0.0238235
0.0238232
0.0237969
0.0237971
0.0237973
0.0237976
0.023798
0.0237985
0.0237993
0.0237997
0.0238131
0.0238144
0.0238214
0.023818
0.0209907
0.0238226
0.0238189
0.0238181
0.0238026
0.0238015
0.0237999
0.0237989
0.0237982
0.0237976
0.0237972
0.0237969
0.0237707
0.0237709
0.0237711
0.0237714
0.0237718
0.0237723
0.023773
0.0237735
0.023787
0.0237883
0.0237889
0.0237902
0.0211518
0.0237894
0.0237928
0.023792
0.0237766
0.0237753
0.0237736
0.0237726
0.0237718
0.0237712
0.0237708
0.0237705
0.0237444
0.0237446
0.0237448
0.0237452
0.0237456
0.0237461
0.0237467
0.0237474
0.0237484
0.0237623
0.0237628
0.0236962
0.0224514
0.0237621
0.0237665
0.0237659
0.0237504
0.0237491
0.0237473
0.0237463
0.0237454
0.0237448
0.0237444
0.023744
0.0237182
0.0237184
0.0237186
0.023719
0.0237194
0.0237198
0.0237205
0.0237214
0.0237223
0.0237235
0.0237367
0.0236177
0.0224505
0.0237347
0.0237274
0.0237258
0.0237242
0.0237228
0.0237211
0.0237199
0.0237191
0.0237184
0.023718
0.0237176
0.0236919
0.0236921
0.0236924
0.0236928
0.0236932
0.0236936
0.0236944
0.0236953
0.0236964
0.0236975
0.0236861
0.0217723
0.0230559
0.0236967
0.0237012
0.0236996
0.0236979
0.0236965
0.0236947
0.0236935
0.0236927
0.023692
0.0236915
0.0236911
0.0236656
0.0236659
0.0236661
0.0236665
0.023667
0.0236674
0.0236683
0.0236693
0.0236704
0.0236715
0.0236518
0.0217553
0.0230322
0.0236695
0.0236749
0.0236734
0.0236717
0.0236702
0.0236684
0.0236672
0.0236662
0.0236655
0.0236651
0.0236646
0.0236394
0.0236396
0.0236399
0.0236403
0.0236408
0.0236413
0.0236422
0.0236433
0.0236445
0.0236455
0.0236182
0.0217376
0.023008
0.0236423
0.0236487
0.0236472
0.0236455
0.0236439
0.023642
0.0236408
0.0236398
0.0236391
0.0236386
0.0236381
0.0236131
0.0236134
0.0236137
0.0236141
0.0236147
0.0236152
0.0236161
0.0236173
0.0236186
0.0236195
0.0235853
0.0217192
0.0229834
0.0236151
0.0236225
0.0236211
0.0236192
0.0236176
0.0236157
0.0236144
0.0236134
0.0236126
0.0236121
0.0236116
0.0235869
0.0235871
0.0235875
0.0235879
0.0235885
0.0235891
0.0235901
0.0235914
0.0235928
0.0235934
0.023553
0.0217002
0.0229585
0.0235879
0.0235962
0.0235949
0.023593
0.0235913
0.0235893
0.0235879
0.0235869
0.0235861
0.0235856
0.023585
0.0235606
0.0235609
0.0235612
0.0235617
0.0235623
0.023563
0.023564
0.0235654
0.0235669
0.0235674
0.0235214
0.0216808
0.0229335
0.0235606
0.0235699
0.0235687
0.0235668
0.0235649
0.023563
0.0235615
0.0235605
0.0235596
0.0235591
0.0235585
0.0235344
0.0235347
0.023535
0.0235356
0.0235362
0.0235369
0.023538
0.0235395
0.0235411
0.0235413
0.0234903
0.0216608
0.0229082
0.0235333
0.0235436
0.0235426
0.0235406
0.0235386
0.0235366
0.0235351
0.023534
0.0235332
0.0235326
0.023532
0.0235082
0.0235085
0.0235088
0.0235094
0.02351
0.0235108
0.0235119
0.0235136
0.0235153
0.0235152
0.023459
0.0216409
0.0228831
0.023506
0.0235173
0.0235164
0.0235143
0.0235123
0.0235102
0.0235087
0.0235076
0.0235067
0.0235061
0.0235055
0.023482
0.0234823
0.0234826
0.0234832
0.0234839
0.0234847
0.0234859
0.0234877
0.0234894
0.0234891
0.0234275
0.0216212
0.0228582
0.0234787
0.023491
0.0234903
0.0234882
0.023486
0.0234839
0.0234823
0.0234812
0.0234802
0.0234797
0.023479
0.0234557
0.0234561
0.0234565
0.0234571
0.0234578
0.0234586
0.0234599
0.0234618
0.0234637
0.0234629
0.0233965
0.0216009
0.0228333
0.0234513
0.0234647
0.0234641
0.023462
0.0234598
0.0234576
0.023456
0.0234548
0.0234538
0.0234532
0.0234526
0.0234295
0.0234299
0.0234303
0.0234309
0.0234317
0.0234326
0.0234339
0.023436
0.0234379
0.0234368
0.023366
0.0215802
0.0228083
0.0234239
0.0234383
0.023438
0.0234358
0.0234335
0.0234313
0.0234296
0.0234284
0.0234274
0.0234267
0.0234261
0.0234033
0.0234037
0.0234041
0.0234048
0.0234056
0.0234065
0.0234079
0.0234101
0.0234121
0.0234106
0.0233359
0.021559
0.0227832
0.0233965
0.0234119
0.0234118
0.0234096
0.0234072
0.0234049
0.0234032
0.023402
0.0234009
0.0234003
0.0233996
0.0233771
0.0233775
0.0233779
0.0233786
0.0233795
0.0233805
0.023382
0.0233843
0.0233863
0.0233844
0.0233063
0.0215373
0.0227581
0.023369
0.0233855
0.0233857
0.0233835
0.023381
0.0233786
0.0233768
0.0233755
0.0233745
0.0233738
0.0233731
0.0233509
0.0233513
0.0233518
0.0233525
0.0233534
0.0233545
0.0233561
0.0233585
0.0233605
0.0233582
0.0232769
0.0215152
0.022733
0.0233416
0.023359
0.0233595
0.0233573
0.0233547
0.0233523
0.0233505
0.0233491
0.023348
0.0233473
0.0233467
0.0233247
0.0233251
0.0233256
0.0233263
0.0233273
0.0233285
0.0233302
0.0233327
0.0233347
0.023332
0.0232479
0.0214926
0.0227078
0.0233141
0.0233325
0.0233332
0.0233311
0.0233285
0.023326
0.0233241
0.0233227
0.0233216
0.0233209
0.0233202
0.0232985
0.0232989
0.0232995
0.0233002
0.0233012
0.0233025
0.0233042
0.0233068
0.0233089
0.0233058
0.023219
0.0214695
0.0226825
0.0232866
0.0233059
0.023307
0.0233049
0.0233022
0.0232997
0.0232977
0.0232963
0.0232951
0.0232944
0.0232937
0.0232724
0.0232728
0.0232733
0.0232741
0.0232751
0.0232765
0.0232783
0.023281
0.023283
0.0232796
0.0231903
0.0214461
0.0226572
0.0232591
0.0232793
0.0232807
0.0232786
0.023276
0.0232733
0.0232714
0.0232699
0.0232687
0.0232679
0.0232673
0.0232462
0.0232466
0.0232472
0.023248
0.0232491
0.0232505
0.0232525
0.0232551
0.0232572
0.0232533
0.0231613
0.0214224
0.0226317
0.0232316
0.0232527
0.0232544
0.0232524
0.0232498
0.023247
0.023245
0.0232435
0.0232423
0.0232415
0.0232408
0.0239783
0.023979
0.024001
0.0239544
0.0239557
0.023976
0.0239306
0.0239328
0.0239529
0.0239062
0.0239091
0.0239299
0.0238806
0.0238839
0.0239061
0.0238528
0.00964813
0.0134489
0.0238568
0.0238806
0.0240042
0.0240283
0.0240043
0.0240288
0.0239804
0.0239787
0.0240014
0.0239878
0.0240001
0.0239793
0.0239815
0.0240003
0.0239554
0.0239545
0.0239756
0.0239662
0.0239553
0.0239733
0.0239445
0.0239715
0.0239558
0.0239573
0.0239754
0.0239306
0.0239307
0.0239515
0.0239425
0.0239007
0.0239174
0.0236941
0.0238357
0.0239329
0.0239334
0.0239513
0.0239057
0.0239062
0.0239276
0.0239185
0.0238882
0.0238919
0.023794
0.0236932
0.0239092
0.0239093
0.0239274
0.0238633
0.0238674
0.0238841
0.0238845
0.0239032
0.0238569
0.0238639
0.0238249
0.0132313
0.00973754
0.0187505
0.0238275
0.023853
0.0239753
0.0239871
0.0239877
0.0239867
0.0239719
0.0240004
0.0239883
0.0239727
0.023987
0.023988
0.0239867
0.0239747
0.023921
0.0239514
0.0239633
0.0239237
0.0238325
0.0239684
0.023929
0.023844
0.0239429
0.0239643
0.0239524
0.0239185
0.0239736
0.0239537
0.0239672
0.0238925
0.0238993
0.0239395
0.023796
0.0238238
0.0238282
0.0237952
0.0236932
0.0236835
0.0239414
0.0238883
0.023874
0.0239171
0.0238905
0.0239443
0.0238043
0.0238279
0.0238262
0.0238
0.0238656
0.0238025
0.0239181
0.0238821
0.0238912
0.0238731
0.023881
0.0239211
0.0238428
0.023845
0.0238304
0.0238419
0.0238645
0.0238642
0.0238906
0.0238847
0.0238967
0.0238407
0.0238164
0.023845
0.0238416
0.0238438
0.0238556
0.0239909
0.0239888
0.024001
0.023991
0.0239988
0.0238804
0.0238806
0.0239031
0.0238935
0.0238769
0.023883
0.0233848
0.0231505
0.0238571
0.023859
0.0238782
0.0239995
0.0239918
0.0240008
0.0239883
0.0239912
0.0238837
0.0238877
0.0239155
0.0155439
0.0164793
0.0207048
0.0215419
0.0165044
0.0179347
0.023108
0.0227504
0.0238936
0.0238836
0.0238747
0.021645
0.0221736
0.0238733
0.0238625
0.0238706
0.024015
0.0240137
0.0240022
0.024002
0.0240136
0.024015
0.02399
0.0239929
0.0239905
0.0239994
0.0239914
0.0239946
0.0239557
0.0239604
0.0237757
0.0237834
0.0237544
0.0237399
0.0238592
0.0227658
0.0238753
0.0235753
0.0234124
0.0234249
0.0235793
0.0238614
0.0238922
0.0239816
0.0237083
0.0239538
0.0236551
0.0239797
0.0239613
0.0239913
0.0239933
0.0239893
0.0239182
0.0239798
0.0239807
0.0238738
0.023868
0.0239564
0.0239536
0.0238874
0.023893
0.0239274
0.023959
0.0239635
0.0239531
0.0239576
0.0239264
0.0239651
0.023971
0.0239756
0.023965
0.0239695
0.023963
0.0238089
0.0238104
0.0238043
0.0238018
0.0235636
0.0235805
0.0238703
0.0239359
0.0239402
0.0239302
0.0239345
0.0238682
0.0239069
0.0239473
0.0239517
0.0239416
0.0239459
0.0239053
0.0157462
0.0238159
0.0173349
0.0163249
0.0187701
0.0173788
0.0238192
0.0237814
0.0165148
0.023786
0.0238457
0.0238411
0.0238745
0.0239244
0.0239287
0.0239185
0.0239229
0.0238761
0.0195296
0.0205301
0.0238365
0.020105
0.0188653
0.0212151
0.0202476
0.0238382
0.0180778
0.0193814
0.0238654
0.0231482
0.0233958
0.0228033
0.0231031
0.0238654
0.0226708
0.0220741
0.022255
0.011548
0.0222339
0.0220008
0.0163092
0.0235764
0.0235903
0.0239971
0.0238545
0.0238535
0.0238773
0.0238673
0.0238587
0.0238682
0.0182115
0.0238127
0.0238348
0.0239974
0.0238677
0.0238759
0.0238903
0.0131958
0.0134566
0.00757158
0.0219232
0.0218549
0.0137917
0.014363
0.023489
0.0235725
0.00932891
0.0240065
0.0240071
0.0240006
0.024
0.0240069
0.0240065
0.0239642
0.0239698
0.0239652
0.0239475
0.0239514
0.0239666
0.0239062
0.0239453
0.0239408
0.0239514
0.0239468
0.0239085
0.0237326
0.0238152
0.0237754
0.0236915
0.0219929
0.0217084
0.0238604
0.0235957
0.0237006
0.0237774
0.0237676
0.0128062
0.023995
0.0239926
0.0240001
0.0239757
0.0239634
0.0239548
0.0239818
0.0239834
0.0239883
0.0239771
0.0239818
0.0239802
0.0239333
0.0239575
0.0239529
0.0239637
0.023959
0.0239376
0.0239013
0.0232995
0.0236212
0.0230316
0.0230952
0.0238468
0.0236592
0.023709
0.0239409
0.0238627
0.0239114
0.023939
0.0239594
0.023961
0.0239487
0.0239513
0.023922
0.0239393
0.0239349
0.0238958
0.0238026
0.0227882
0.0226105
0.0238164
0.0229386
0.0230132
0.0225856
0.0226423
0.0237953
0.0236413
0.0236319
0.0238803
0.0239322
0.0239345
0.023921
0.023926
0.0238717
0.0239131
0.0239453
0.0239479
0.0239353
0.0239377
0.0238974
0.0238584
0.0233939
0.0234821
0.0233289
0.023261
0.0238206
0.0238929
0.0239125
0.023917
0.0239063
0.023911
0.0238926
0.0238446
0.0219826
0.0213253
0.0227132
0.0225132
0.0238449
0.0162876
0.0166176
0.0238442
0.0229327
0.0227748
0.0158909
0.0161944
0.0223557
0.0220677
0.0239941
0.0239971
0.0239953
0.0217486
0.023296
0.0219292
0.022065
0.0220199
0.0232655
0.0239962
0.0239948
0.0239981
0.0239934
0.0239951
0.0155453
0.0159072
0.0136028
0.0132904
0.0211023
0.0147371
0.0145671
0.0153665
0.0147899
0.0212097
0.0167948
0.0170854
0.0229667
0.0229056
0.0219082
0.0163546
0.0157068
0.0144032
0.0146946
0.023987
0.0239893
0.0239923
0.0239853
0.0239883
0.0239858
0.0239486
0.0239654
0.0237417
0.0238079
0.0237719
0.0236955
0.0228334
0.0235193
0.0234482
0.0235989
0.0235426
0.0228195
0.0233005
0.0232516
0.0234273
0.0233333
0.0235184
0.0224876
0.022669
0.0221796
0.0224004
0.0234942
0.0215564
0.0216748
0.0238287
0.0239749
0.0239647
0.0239849
0.0239779
0.0238601
0.0239046
0.0238802
0.0239574
0.0239142
0.0239837
0.0239897
0.0239863
0.023981
0.0239742
0.0239748
0.0239657
0.0239767
0.0239697
0.0239802
0.0239842
0.0239719
0.0239788
0.0239835
0.0239806
0.023976
0.0231838
0.02325
0.0238933
0.022786
0.0225308
0.0233377
0.0228269
0.0221402
0.0218608
0.0224507
0.0222649
0.023852
0.0231175
0.0231664
0.0236443
0.0235587
0.0238682
0.0237112
0.02347
0.0234022
0.0235426
0.0234889
0.0239443
0.0237218
0.0237591
0.0238688
0.0239081
0.0239557
0.0239585
0.0239335
0.0239231
0.0239522
0.0239548
0.0228215
0.0228172
0.0238045
0.0210413
0.0210144
0.0199956
0.0209165
0.0208694
0.0211804
0.020976
0.0208806
0.0228272
0.0229136
0.0238129
0.0213752
0.021032
0.0217981
0.0214736
0.0203303
0.019967
0.0208926
0.0205128
0.023797
0.0226878
0.0227923
0.0236021
0.0236186
0.0239292
0.0239314
0.0238777
0.023869
0.0239266
0.0239285
0.0239419
0.0239444
0.0239117
0.0238993
0.0239386
0.0239411
0.0162098
0.0167286
0.0226777
0.0228595
0.0224437
0.022613
0.0163399
0.0181944
0.0231005
0.0227243
0.0229088
0.0230547
0.0178844
0.0217247
0.0218
0.021382
0.021696
0.0171155
0.0222212
0.0223981
0.0218484
0.0221262
0.0171888
0.0233337
0.0233751
0.0238557
0.0231114
0.0232127
0.0232289
0.0231072
0.0232224
0.0238252
0.0232307
0.0232937
0.0199165
0.0133684
0.0136697
0.0143873
0.0134219
0.0200613
0.0136706
0.0185171
0.0137762
0.0187392
0.0229517
0.0236655
0.0236167
0.0237257
0.0236826
0.0229766
0.0225474
0.0225948
0.0167817
0.0171509
0.014958
0.0157517
0.0225552
0.0224234
0.024005
0.0240068
0.0240265
0.0238672
0.0238603
0.0238492
0.0240026
0.024003
0.023999
0.0239981
0.0240027
0.0240025
0.0240148
0.0240142
0.0240027
0.0239759
0.0239713
0.0239667
0.0239455
0.0239172
0.0239124
0.0237048
0.0238288
0.0239274
0.0239229
0.0238901
0.0235309
0.0235036
0.023692
0.0235021
0.0235494
0.0238716
0.0239806
0.0239822
0.0239775
0.0239328
0.023949
0.0239748
0.0239851
0.0239818
0.0239844
0.0239656
0.0238639
0.0239255
0.0238503
0.0239074
0.0239021
0.0239396
0.0239353
0.0239363
0.0239197
0.0239628
0.0239645
0.0239567
0.0238948
0.0239334
0.0239289
0.0228879
0.0228126
0.0238171
0.0236891
0.0235729
0.0235564
0.0236725
0.0238861
0.0239161
0.0239172
0.0239158
0.0239333
0.0239343
0.0239183
0.0239195
0.0238927
0.0237728
0.0230199
0.0229314
0.0238705
0.0239185
0.0239197
0.0238885
0.0239001
0.0239047
0.0124127
0.0123619
0.0230957
0.0229791
0.0238437
0.0125257
0.0124674
0.0237102
0.0237311
0.0238513
0.0239918
0.0239917
0.0153935
0.0148903
0.0151125
0.0164216
0.0165371
0.0144538
0.0146647
0.0155772
0.0153935
0.0177275
0.0224915
0.0224361
0.0228009
0.0168774
0.0164636
0.0219801
0.0240078
0.0240073
0.0240006
0.0239886
0.0239891
0.0239899
0.023991
0.0239826
0.0239839
0.0239933
0.0239964
0.0239947
0.0239406
0.0239381
0.0239522
0.0239628
0.0239562
0.023952
0.0237608
0.023791
0.0235498
0.0235641
0.0237633
0.0237219
0.0234797
0.0235161
0.022896
0.0229016
0.0231077
0.0230781
0.0227638
0.0229229
0.022945
0.0238727
0.0235697
0.0236278
0.0238685
0.0237661
0.0239053
0.0238882
0.0239735
0.0239664
0.0239383
0.023482
0.0234226
0.0238454
0.0237255
0.0235621
0.0239924
0.0239906
0.0239866
0.0239868
0.0239797
0.0239838
0.0239386
0.0239778
0.0239808
0.0237716
0.0238302
0.0239636
0.0233448
0.023276
0.0238818
0.0238985
0.0239697
0.0239713
0.023969
0.0239579
0.0239662
0.0239679
0.0238153
0.0228092
0.0228169
0.023558
0.0235934
0.0239271
0.0239281
0.0239085
0.0239032
0.023925
0.023926
0.0159566
0.0172694
0.0195538
0.019665
0.0183603
0.0184251
0.0161562
0.0230806
0.0230355
0.0237771
0.0173752
0.0171758
0.0185445
0.0185099
0.0167244
0.0183171
0.0183363
0.0170499
0.0170863
0.0239162
0.0239173
0.0238703
0.0238782
0.0239139
0.0239151
0.0194763
0.0229291
0.0229935
0.0227933
0.022861
0.0192609
0.0232578
0.0237004
0.0237374
0.0237296
0.0237158
0.0232964
0.0228629
0.0231925
0.0231481
0.0225878
0.0225119
0.0226827
0.0127513
0.0130385
0.0130757
0.0127439
0.0223942
0.0177508
0.0170979
0.0182911
0.0179069
0.0219211
0.0213224
0.0213841
0.022719
0.0228809
0.0236266
0.0239966
0.0239975
0.0239956
0.0131438
0.0132136
0.0164944
0.0162652
0.0078187
0.0141302
0.0133979
0.0134483
0.0131035
0.013266
0.0142915
0.00927998
0.022363
0.0225394
0.0240036
0.0240031
0.0239987
0.0239263
0.0239218
0.0239465
0.023944
0.0239549
0.0239633
0.0239499
0.0239527
0.0237202
0.023822
0.0233249
0.0233565
0.0233499
0.0233221
0.023691
0.0234817
0.0234637
0.0219301
0.0214898
0.0214664
0.0215597
0.0215451
0.0218499
0.0239608
0.023969
0.02397
0.0239664
0.0239679
0.023958
0.0238565
0.0239316
0.0238963
0.0238832
0.0239209
0.0239373
0.0239383
0.0235849
0.0235849
0.0236756
0.0236493
0.0239138
0.023915
0.023883
0.0239313
0.0239323
0.0239145
0.0238952
0.0239206
0.0239217
0.0233209
0.023431
0.0233917
0.0234587
0.0234494
0.0233016
0.0123261
0.0123365
0.0126684
0.0125888
0.0160005
0.0139183
0.0138563
0.0215155
0.0215249
0.0222665
0.021677
0.0217909
0.0214835
0.0215616
0.0221641
0.0239936
0.0239928
0.023993
0.0239936
0.0239963
0.0239966
0.0239978
0.0239945
0.0239953
0.0239954
0.0218946
0.0225856
0.022541
0.022716
0.0226475
0.0219429
0.0221989
0.0223824
0.0222995
0.0225063
0.0224619
0.0221207
0.0239956
0.0239962
0.0239951
0.0239896
0.0239863
0.0239937
0.0239925
0.0153484
0.0162649
0.0153002
0.0153831
0.0135032
0.0133962
0.0166193
0.0167672
0.0146515
0.0143246
0.0143023
0.0166172
0.0144755
0.0143131
0.0145328
0.0174281
0.0149949
0.0145882
0.0225299
0.022611
0.0230217
0.0223092
0.0223331
0.0222559
0.0222675
0.0228483
0.0224137
0.0224482
0.0144475
0.0127768
0.0129346
0.0126645
0.0126635
0.0145303
0.0239879
0.0239889
0.0239881
0.0239836
0.023985
0.0239869
0.0239252
0.02395
0.0239346
0.0239306
0.0239429
0.0239465
0.0239348
0.0239391
0.0237507
0.0237988
0.0234207
0.023437
0.0233778
0.0233997
0.0237684
0.0235692
0.0235713
0.0234514
0.0234554
0.0237056
0.0234403
0.0229722
0.0229177
0.0227893
0.0230548
0.0230249
0.0232784
0.022973
0.0229661
0.0230669
0.0230125
0.0232646
0.0234027
0.0231134
0.0231433
0.0230029
0.0230594
0.0233702
0.022951
0.0222512
0.0228277
0.0227778
0.0215144
0.0215705
0.0238138
0.0239204
0.023913
0.0237975
0.0238867
0.0239482
0.0239317
0.0235806
0.0235277
0.0237679
0.0237824
0.0238889
0.023696
0.0236386
0.0239596
0.0239692
0.023984
0.0239759
0.0239476
0.0239111
0.0239457
0.023973
0.0239759
0.0239772
0.0239715
0.0239734
0.0239674
0.0239606
0.0239672
0.0239814
0.0239791
0.0239774
0.023983
0.0239803
0.0239827
0.0239737
0.0239755
0.0239716
0.0239753
0.0227286
0.022623
0.0231901
0.0225705
0.0226566
0.0224298
0.022868
0.0220323
0.0219392
0.0223832
0.022329
0.0236026
0.023295
0.0233601
0.0231852
0.023235
0.0235773
0.0238475
0.0237044
0.023746
0.0234
0.023609
0.0238017
0.0232148
0.0231387
0.0234513
0.0228372
0.0228867
0.0227523
0.022795
0.0234312
0.0235269
0.0231003
0.023143
0.0229468
0.0230179
0.0235081
0.0238761
0.0239036
0.0210706
0.0198431
0.0200531
0.0193987
0.0196096
0.0210507
0.020228
0.0201639
0.0201912
0.0205907
0.0209026
0.0182671
0.018448
0.018559
0.0182849
0.0210045
0.0209409
0.0190328
0.0192069
0.018683
0.0188739
0.02091
0.0212953
0.0211944
0.0217281
0.0215906
0.0201704
0.0200316
0.0207744
0.0206753
0.0235702
0.0236059
0.0239101
0.0239292
0.0239302
0.0239228
0.0239239
0.0239012
0.0161358
0.0191313
0.0193851
0.017105
0.0161193
0.0185784
0.0188339
0.0178329
0.0175965
0.0217461
0.0195034
0.0195274
0.0215468
0.0193439
0.0189655
0.0195362
0.0194953
0.0216452
0.018354
0.0180866
0.0181026
0.0182628
0.0169358
0.0173161
0.0177202
0.0233532
0.0235812
0.0235638
0.0236064
0.023594
0.0233638
0.0231445
0.0231907
0.0231838
0.0231
0.0230905
0.0231366
0.0232267
0.0234849
0.0234683
0.0235391
0.0235103
0.0232522
0.0134441
0.0151547
0.0152509
0.0150553
0.0151018
0.0135559
0.0140226
0.0160901
0.0164009
0.0154406
0.0157399
0.0136666
0.0136498
0.0138134
0.013832
0.0141165
0.013943
0.0139286
0.0148038
0.0149768
0.0140667
0.0144346
0.0139891
0.0232616
0.0232316
0.0229198
0.0225396
0.0226487
0.0124685
0.0127464
0.0152696
0.013218
0.0128627
0.0137625
0.0135793
0.0155508
0.0127959
0.0127476
0.0214217
0.0214415
0.0240598
0.0240597
0.0240731
0.0240596
0.0240595
0.0240729
0.0240595
0.0240595
0.024073
0.0240597
0.0240599
0.0240731
0.0240333
0.0240331
0.0240465
0.0240328
0.0240325
0.024053
0.0240322
0.0240319
0.0240527
0.0240319
0.0240323
0.0240527
0.0240327
0.0240332
0.0240532
0.0240336
0.0240338
0.0240468
0.0240073
0.0240067
0.0240264
0.0240062
0.0240048
0.0240256
0.0240181
0.0240178
0.0240287
0.024017
0.0240174
0.0240283
0.0240189
0.0240193
0.0240259
0.0240074
0.0240081
0.0240209
0.0239815
0.0239808
0.0240001
0.0239931
0.023993
0.0239995
0.0239974
0.0239971
0.0240005
0.0239918
0.0239932
0.0240029
0.023982
0.0239829
0.0239954
0.0239562
0.0239557
0.0239745
0.0239678
0.0239678
0.023974
0.0239722
0.0239723
0.0239753
0.0239674
0.0239686
0.0239776
0.0239575
0.0239581
0.0239704
0.0239309
0.0239308
0.0239494
0.023943
0.0239432
0.0239494
0.0239484
0.0239485
0.0239514
0.0239444
0.023945
0.0239538
0.0239334
0.0239335
0.0239458
0.0239055
0.0239057
0.0239245
0.0239182
0.0239187
0.0239248
0.0239246
0.0239246
0.0239277
0.0239212
0.0239214
0.0239303
0.0239091
0.0239087
0.0239211
0.0238799
0.0238803
0.0238994
0.0238999
0.0238998
0.023903
0.0238969
0.0238968
0.023906
0.0238842
0.0238837
0.0238963
0.0238541
0.0238545
0.0238739
0.0238708
0.0238716
0.023878
0.0238586
0.0238582
0.023871
0.0238275
0.0238275
0.0238407
0.0238279
0.0238264
0.0238466
0.023839
0.0238275
0.0238382
0.0147246
0.0233152
0.0233709
0.0238296
0.0238328
0.0238525
0.0238322
0.0238324
0.0238453
0.0238014
0.0238015
0.0238145
0.0238019
0.0237995
0.0238197
0.0237972
0.0168502
0.016683
0.0211214
0.0237989
0.0238203
0.0238018
0.0238063
0.0238259
0.0238058
0.0238062
0.0238192
0.0237758
0.023774
0.0237875
0.0237336
0.0199766
0.0168971
0.0224484
0.0237664
0.0237916
0.0237758
0.0237798
0.023793
0.0239783
0.0239814
0.0239814
0.0239819
0.023983
0.0239781
0.0240007
0.0239975
0.0239977
0.0239544
0.0239573
0.0239573
0.0239586
0.0239584
0.023954
0.0239765
0.0239718
0.0239731
0.0239307
0.0239337
0.0239336
0.0239357
0.0239353
0.023931
0.0239525
0.0239482
0.02395
0.0239061
0.0239093
0.0239093
0.0239121
0.0239118
0.0239076
0.0239296
0.0239252
0.023927
0.0238872
0.0238859
0.0238827
0.0239046
0.0239016
0.023903
0.0238417
0.0238554
0.0238638
0.00785151
0.0151351
0.0151206
0.0204348
0.020455
0.00928116
0.0238794
0.0238761
0.0238773
0.0240029
0.0240142
0.0240146
0.0239994
0.0239994
0.0239984
0.0240283
0.0240174
0.024017
0.0239991
0.0239993
0.0240078
0.0240076
0.0240041
0.0240287
0.0240179
0.0240182
0.0239803
0.0239866
0.0239867
0.0239882
0.0239864
0.0239801
0.0239992
0.0239927
0.0239915
0.0239895
0.0239891
0.0239861
0.0239998
0.0239978
0.0239982
0.0239807
0.02399
0.0239886
0.0239877
0.0239877
0.0239816
0.0240002
0.0239939
0.023994
0.0239555
0.0239616
0.0239616
0.0239635
0.0239617
0.0239556
0.0239739
0.0239678
0.0239665
0.0239663
0.0239692
0.0239692
0.0239585
0.0239641
0.0239621
0.0239747
0.0239731
0.0239712
0.0239686
0.0239651
0.0239698
0.0239567
0.0239656
0.0239645
0.0239633
0.0239636
0.0239577
0.0239755
0.0239696
0.0239693
0.023931
0.0239371
0.0239368
0.0239396
0.0239374
0.0239314
0.0239496
0.0239435
0.0239426
0.0239426
0.0239455
0.0239455
0.0239023
0.0239316
0.02393
0.0239422
0.0239402
0.0239141
0.0239333
0.0239421
0.0239415
0.0239394
0.02394
0.0239341
0.0239518
0.0239459
0.0239454
0.0239062
0.0239124
0.023912
0.0239155
0.0239129
0.0239067
0.0239252
0.0239191
0.0239185
0.0239186
0.0239216
0.0239216
0.0238896
0.0239214
0.0239169
0.0239174
0.0239161
0.0238913
0.023786
0.0235922
0.0236134
0.0239092
0.0239183
0.0239183
0.0239154
0.0239161
0.0239101
0.0239281
0.0239222
0.0239214
0.0238622
0.0237025
0.0237376
0.0238056
0.0238114
0.023869
0.0238844
0.0238907
0.0238937
0.0238908
0.0238915
0.0238852
0.0239039
0.0238977
0.023897
0.0238582
0.0238406
0.0238407
0.0238339
0.0238358
0.0238632
0.0238173
0.023824
0.0238318
0.0129195
0.0237639
0.0237458
0.0218659
0.021854
0.0100445
0.0238005
0.0238096
0.0183679
0.0238345
0.0238299
0.0238214
0.0238455
0.0238335
0.0238424
0.0239772
0.023978
0.0239764
0.0239886
0.0239838
0.0239823
0.0239845
0.0239845
0.0239876
0.0239851
0.0239826
0.0239867
0.0239986
0.0239983
0.0240001
0.0239878
0.0239895
0.0239899
0.0239737
0.0239716
0.0239704
0.0239868
0.0239858
0.0239861
0.0239878
0.0239847
0.0239849
0.0239851
0.0239855
0.0239872
0.023976
0.0239775
0.0239768
0.0239249
0.0239465
0.0239443
0.02396
0.0239578
0.0239467
0.0239603
0.0239603
0.0239633
0.0239173
0.023861
0.0238763
0.023702
0.0237091
0.0238371
0.0238873
0.0238956
0.0239334
0.0239643
0.0239598
0.0239615
0.0239505
0.0239562
0.0239575
0.0239701
0.0239729
0.0239745
0.0239587
0.0239597
0.0239547
0.0239701
0.0239703
0.0239658
0.0238931
0.02392
0.0239187
0.0239285
0.023927
0.023898
0.0239366
0.0239366
0.0239396
0.0237983
0.023643
0.0236384
0.0236951
0.0236893
0.0238214
0.0238241
0.0236889
0.0236953
0.0236358
0.0236351
0.0237942
0.0239411
0.0239368
0.0239386
0.0239066
0.0239069
0.0238744
0.0239471
0.0239468
0.0239425
0.0238084
0.0233764
0.0233105
0.0236372
0.0236235
0.0238253
0.0238285
0.0237073
0.0237013
0.02329
0.0232192
0.0237956
0.0238634
0.0237914
0.023799
0.0236373
0.0236575
0.0238101
0.0239178
0.0239133
0.0239151
0.0238847
0.0239092
0.0239104
0.0239017
0.023903
0.0238917
0.023872
0.0239056
0.0239061
0.0239116
0.0239127
0.0238786
0.023924
0.0239237
0.0239193
0.0238436
0.023737
0.0237299
0.0237688
0.0237646
0.0238451
0.0238326
0.0236622
0.0236499
0.0237222
0.0237139
0.0238408
0.023865
0.0238285
0.0238314
0.0237478
0.0237744
0.0238648
0.02389
0.023899
0.0239004
0.0238938
0.0238984
0.0238876
0.0238999
0.0238985
0.0238954
0.0238372
0.0232031
0.0231277
0.0229545
0.0231411
0.0238346
0.0238449
0.023776
0.0237726
0.0238495
0.0237334
0.0237338
0.0239907
0.0239939
0.0239941
0.0239938
0.0239952
0.0239902
0.0240002
0.0239969
0.0239956
0.0239984
0.0239971
0.0239976
0.0238903
0.0238877
0.0238813
0.0239004
0.0238941
0.0238935
0.0238934
0.0238966
0.0238967
0.0238797
0.0238943
0.0238912
0.0239006
0.0238975
0.0238806
0.0233555
0.0230576
0.0231027
0.0227748
0.0228389
0.0231929
0.0238585
0.0238651
0.0238674
0.0239984
0.023998
0.0239992
0.0239904
0.0239921
0.023993
0.0239952
0.0239968
0.024002
0.02399
0.023995
0.0239934
0.0239944
0.0239942
0.023991
0.0238856
0.0239092
0.0239037
0.0239153
0.0239108
0.0238862
0.0239124
0.0239124
0.0239155
0.0208541
0.0189396
0.0187809
0.0198007
0.0196287
0.0214294
0.0230665
0.0226638
0.0227141
0.0238923
0.0238891
0.0238904
0.02388
0.0238875
0.0238921
0.0238805
0.0238858
0.0238788
0.0217434
0.0201384
0.0199738
0.0208555
0.0207449
0.0221112
0.0238688
0.0238739
0.0238772
0.0238672
0.0238706
0.0238672
0.023874
0.0238728
0.0238694
0.0240152
0.0240092
0.0240088
0.0240098
0.0240095
0.0240155
0.0240012
0.0240075
0.024008
0.0240039
0.0240037
0.0240017
0.0240154
0.0240094
0.0240098
0.0240088
0.0240091
0.0240151
0.0239931
0.0239901
0.0239912
0.0239958
0.0239973
0.0239994
0.023992
0.023993
0.0239924
0.0239964
0.023996
0.0239942
0.023643
0.0236884
0.0238608
0.0238746
0.0238356
0.0238393
0.0235588
0.0233491
0.0233756
0.0231449
0.0231823
0.0234374
0.0235016
0.0237525
0.0237418
0.0237702
0.023762
0.0235227
0.0238624
0.0238375
0.0238387
0.023975
0.023981
0.0239834
0.0239774
0.0239545
0.0239717
0.0239677
0.0239808
0.0239774
0.0239922
0.0239911
0.0239898
0.0239916
0.0239912
0.0239929
0.0239788
0.0239777
0.0239788
0.0239816
0.0239808
0.0239798
0.023766
0.0237758
0.0238797
0.0238626
0.0237486
0.023757
0.0239374
0.0239428
0.023959
0.0239507
0.0239265
0.023932
0.0239435
0.0239448
0.0239287
0.0239605
0.0239596
0.023958
0.0239627
0.0239611
0.023962
0.0239546
0.0239534
0.0239519
0.0239565
0.023955
0.0239561
0.0239254
0.0239414
0.0239424
0.0239676
0.0239687
0.0239667
0.0239725
0.023972
0.0239704
0.023975
0.0239735