/*--------------------------------*- C++ -*----------------------------------*\
| =========                 |                                                 |
| \\      /  F ield         | OpenFOAM: The Open Source CFD Toolbox           |
|  \\    /   O peration     | Version:  5.x                                   |
|   \\  /    A nd           | Web:      www.OpenFOAM.org                      |
|    \\/     M anipulation  |                                                 |
\*---------------------------------------------------------------------------*/
FoamFile
{
    version     2.0;
    format      ascii;
    class       volScalarField;
    location    "100";
    object      p;
}
// * * * * * * * * * * * * * * * * * * * * * * * * * * * * * * * * * * * * * //

dimensions      [0 2 -2 0 0 0 0];

internalField   nonuniform List<scalar> 
6584
(
21.0004
19.176
17.3512
15.5266
13.7022
11.8778
10.0535
8.22971
6.4062
4.58266
2.75854
0.933249
-0.893639
-2.72203
-4.55134
-6.38092
-8.21022
-10.0391
-11.8676
-13.6958
-15.5237
-17.3509
-19.1772
-21.0024
21.002
19.1804
17.3568
15.5326
13.7083
11.883
10.0563
8.23104
6.40734
4.58408
2.76026
0.935164
-0.891765
-2.72044
-4.55016
-6.38054
-8.21121
-10.0417
-11.872
-13.7015
-15.5297
-17.357
-19.182
-21.0037
21.0024
19.1836
17.3633
15.5407
13.7168
11.8915
10.0627
8.23395
6.40895
5.04136
3.21893
1.395
-0.431416
-2.26051
-4.09131
-6.38417
-8.2194
-10.0519
-11.8823
-13.711
-15.538
-17.3633
-19.1849
-21.0048
21.0023
19.1842
17.3656
15.5458
13.7235
11.8994
10.0709
8.24066
6.41302
5.0436
3.22292
1.40084
-0.425228
-2.25679
-4.09618
-5.93501
-8.2353
-10.066
-11.894
-13.7205
-15.5451
-17.3669
-19.1864
-21.0056
21.0018
19.1839
17.3657
15.5475
13.7277
11.9052
10.0799
8.25538
6.87797
5.0483
3.22843
1.40914
-0.41594
-2.26015
-4.11499
-5.95866
-7.79193
-10.0788
-11.9042
-13.7282
-15.5494
-17.3689
-19.1877
-21.0065
21.0014
19.1835
17.3654
15.5474
13.729
11.9092
10.0883
8.72238
6.89929
5.07567
3.47346
1.65155
-0.168612
-2.04321
-4.1384
-5.97729
-7.80591
-10.0896
-11.9127
-13.7333
-15.5523
-17.3707
-19.1889
-21.0073
21.0008
19.183
17.3649
15.5468
13.7285
11.9098
10.0904
8.72449
6.90551
5.09007
3.50668
1.80485
-0.00778099
-2.0643
-3.93122
-5.99646
-7.82038
-10.0994
-11.9191
-13.737
-15.5546
-17.3723
-19.1901
-21.008
21.0003
19.1824
17.3642
15.5459
13.7275
11.9086
10.0897
8.72463
6.90255
5.08162
3.4938
1.80821
-2.01527
-3.96772
-6.01648
-7.83355
-10.1061
-11.9235
-13.74
-15.5567
-17.3738
-19.1911
-21.0086
20.9999
19.1818
17.3636
15.5451
13.7263
11.9068
10.087
8.72185
6.896
5.06578
3.46027
1.71945
-2.13159
-4.00838
-6.03279
-7.84116
-10.1084
-11.9254
-13.742
-15.5583
-17.3748
-19.1918
-21.009
20.9996
19.1814
17.363
15.5444
13.7254
11.9057
10.0851
8.71849
6.8893
5.05457
3.4404
1.68588
-2.18606
-4.03179
-6.04054
-7.8439
-10.1071
-11.9236
-13.7415
-15.5589
-17.3753
-19.1922
-21.0091
20.9993
19.1809
17.3625
15.5438
13.7248
11.905
10.0843
8.71678
6.88711
5.05356
3.44211
1.70244
-2.16759
-4.02481
-6.03465
-7.83896
-10.1016
-11.9182
-13.7372
-15.5572
-17.3753
-19.1921
-21.0089
20.9992
19.1807
17.3623
15.5436
13.7247
11.9052
10.0846
8.71685
6.88914
5.06057
3.45852
1.7437
-2.10272
-3.99345
-6.01685
-7.82675
-10.0919
-11.9099
-13.73
-15.5521
-17.3733
-19.1916
-21.0085
20.9992
19.1807
17.3623
15.5437
13.725
11.9062
10.0859
8.71856
6.89348
5.07019
3.47749
1.78289
-2.02741
-3.9516
-5.99251
-7.8096
-10.0787
-11.899
-13.7207
-15.5445
-17.3693
-19.1905
-21.0077
20.9992
19.1808
17.3625
15.544
13.7256
11.9071
10.0873
8.26494
6.8972
5.07456
3.4822
1.77679
0.0613153
-2.0714
-3.91211
-5.96481
-7.78974
-10.0627
-11.8858
-13.7096
-15.5366
-17.3638
-19.1876
-21.0067
20.9993
19.1808
17.3626
15.5442
13.7259
11.9074
10.0865
8.26031
6.89247
5.05789
3.45973
1.64622
-0.177055
-2.03519
-4.10805
-5.94158
-8.22571
-10.0516
-11.8771
-13.7016
-15.5293
-17.3563
-19.1811
-21.0041
20.9993
19.1808
17.3625
15.5441
13.7257
11.9067
10.0836
8.25188
6.87623
5.0492
3.22777
1.63485
-0.19356
-2.26084
-4.09915
-5.93318
-8.21906
-10.0459
-11.8716
-13.6993
-15.5251
-17.3507
-19.1758
-21.0014
20.9993
19.1807
17.3623
15.5437
13.725
11.9049
10.0791
8.24641
6.41589
5.04717
3.22415
1.39997
-0.428897
-2.26299
-4.0974
-5.92819
-8.21281
-10.0392
-11.8662
-13.694
-15.5209
-17.3472
-19.1744
-21
20.9992
19.1805
17.3619
15.5431
13.7238
11.9016
10.0736
8.24158
6.41426
4.58888
3.22158
1.39485
-0.433691
-2.26506
-4.55295
-6.38061
-8.20909
-10.0357
-11.8628
-13.69
-15.5167
-17.3434
-19.1707
-20.9979
20.9991
19.1802
17.3614
15.5423
13.7226
11.8981
10.0683
8.23813
6.41259
4.58634
2.76216
0.934509
-0.893418
-2.72174
-4.55189
-6.37862
-8.20687
-10.0333
-11.8603
-13.6871
-15.5139
-17.3408
-19.1676
-20.996
20.999
19.1799
17.3608
15.5414
13.7213
11.8953
10.0648
8.23625
6.41132
4.58486
2.76
0.932957
-0.894275
-2.72187
-4.5507
-6.37718
-8.20514
-10.0314
-11.8583
-13.6849
-15.5118
-17.3386
-19.1652
-20.9944
20.9988
19.1795
17.3601
15.5404
13.72
11.8933
10.0626
8.23492
6.41032
4.58387
2.75864
0.931808
-0.895009
-2.72193
-4.5499
-6.37616
-8.20381
-10.0299
-11.8567
-13.6831
-15.5101
-17.3368
-19.1633
-20.9931
20.9985
19.179
17.3593
15.5394
13.7187
11.8918
10.0612
8.23391
6.40923
4.58314
2.75775
0.931064
-0.895468
-2.722
-4.54942
-6.37549
-8.20281
-10.0288
-11.8555
-13.6817
-15.5087
-17.3352
-19.1616
-20.992
20.9983
19.1785
17.3586
15.5384
13.7174
11.8905
10.06
8.23275
6.40828
4.58255
2.75713
0.930582
-0.895766
-2.72204
-4.54908
-6.37501
-8.20205
-10.028
-11.8545
-13.6806
-15.5075
-17.3339
-19.1602
-20.9911
20.998
19.178
17.3578
15.5374
13.7162
11.8892
10.0589
8.23169
6.40742
4.58189
2.75665
0.930258
-0.895969
-2.72209
-4.54883
-6.37462
-8.20147
-10.0273
-11.8537
-13.6797
-15.5065
-17.3327
-19.159
-20.9902
20.9977
19.1775
17.3571
15.5364
13.715
11.888
10.0579
8.23072
6.40645
4.58122
2.75627
0.930012
-0.896109
-2.7221
-4.54862
-6.37435
-8.20099
-10.0267
-11.853
-13.679
-15.5057
-17.3318
-19.158
-20.9895
20.9975
19.177
17.3564
15.5354
13.7138
11.8869
10.057
8.22982
6.40547
4.58057
2.75543
0.929423
-0.896583
-2.72237
-4.54869
-6.37433
-8.20084
-10.0265
-11.8528
-13.6788
-15.5051
-17.3311
-19.1571
-20.9889
20.9972
19.1766
17.3557
15.5345
13.7127
11.8859
10.0561
8.22903
6.40453
4.57923
2.75398
0.928129
-0.897725
-2.72342
-4.5496
-6.37519
-8.20157
-10.0272
-11.8535
-13.6793
-15.5054
-17.3312
-19.1571
-20.9887
20.9969
19.1761
17.355
15.5337
13.7117
11.8849
10.0553
8.22826
6.40324
4.57754
2.75225
0.926444
-0.899382
-2.72504
-4.55111
-6.37665
-8.20291
-10.0285
-11.8547
-13.6804
-15.5064
-17.3322
-19.158
-20.989
20.9966
19.1756
17.3544
15.5329
13.7108
11.884
10.0545
8.22709
6.40155
4.5759
2.75055
0.924791
-0.901016
-2.72665
-4.55262
-6.37812
-8.20426
-10.0298
-11.8559
-13.6815
-15.5075
-17.3332
-19.159
-20.9894
20.9963
19.1752
17.3538
15.5321
13.7099
11.8831
10.0533
8.22544
6.39988
4.57425
2.74887
0.923161
-0.902627
-2.72821
-4.55414
-6.37958
-8.20564
-10.0311
-11.8572
-13.6827
-15.5086
-17.3343
-19.1601
-20.9898
20.9961
19.1747
17.3532
15.5314
13.7089
11.8817
10.0514
8.22379
6.3982
4.57261
2.74722
0.921552
-0.904219
-2.72977
-4.55563
-6.38106
-8.20704
-10.0325
-11.8584
-13.6839
-15.5098
-17.3354
-19.1611
-20.9902
20.9958
19.1743
17.3526
15.5307
13.7073
11.8792
10.0493
8.22212
6.39655
4.571
2.74557
0.919957
-0.905793
-2.73132
-4.55714
-6.38252
-8.20845
-10.0339
-11.8597
-13.6852
-15.511
-17.3365
-19.1623
-20.9907
20.9956
19.1739
17.3521
15.5296
13.7048
11.8763
10.0473
8.22046
6.3949
4.56936
2.74395
0.918378
-0.907349
-2.73287
-4.55863
-6.38402
-8.20985
-10.0352
-11.861
-13.6865
-15.5122
-17.3377
-19.1634
-20.9912
20.9953
19.1736
17.3516
15.5281
13.7018
11.8735
10.0453
8.21878
6.39323
4.56773
2.74232
0.916826
-0.908853
-2.73439
-4.56015
-6.38553
-8.21128
-10.0366
-11.8623
-13.6878
-15.5135
-17.3389
-19.1645
-20.9917
20.9951
19.1732
17.3511
15.5265
13.699
11.8708
10.0432
8.21714
6.39158
4.56611
2.74069
0.915253
-0.910398
-2.73593
-4.56164
-6.38699
-8.21268
-10.038
-11.8637
-13.6891
-15.5147
-17.3402
-19.1657
-20.9922
20.9949
19.1729
17.3507
15.5255
13.6971
11.8685
10.0412
8.21533
6.38971
4.56422
2.739
0.913936
-0.911362
-2.73741
-4.56339
-6.38878
-8.21428
-10.0395
-11.865
-13.6904
-15.516
-17.3414
-19.1669
-20.9927
1.72773
-1.90217
-1.78282
1.68715
-1.97114
-1.91568
1.69826
-1.95654
-1.97404
1.73831
-1.89257
-1.95034
1.77867
-1.81032
-1.88234
1.78983
0.189919
0.0700329
-1.7378
-1.80027
1.81789
0.22169
-1.76614
-1.70168
3.46823
1.96257
2.03137
-1.01877
-0.876389
-2.11961
-3.55193
-3.51254
3.44325
1.92335
1.95495
1.70047
0.923559
0.945553
-1.19
-1.14775
-2.18308
-3.58795
-3.56361
3.43984
1.93102
1.92205
1.68681
0.911774
0.908174
-1.22981
-1.2331
-2.17363
-3.58782
-3.59151
3.45373
1.96658
1.93475
1.71683
0.968402
0.941429
-1.13034
-1.17624
-2.11179
-3.55615
-3.58218
-1.01258
-1.08525
-2.03682
-3.50973
-3.54524
-0.909363
-0.954442
1.64979
0.170939
0.178152
-0.0592131
-1.56826
-1.72946
0.950095
1.00042
1.75896
0.881115
0.827873
0.990323
0.890951
-1.14433
-1.0597
-1.85533
-1.14093
-1.19732
0.908834
0.920949
1.69601
0.832121
0.818003
0.823839
0.832948
-1.2289
-1.19538
-1.95464
-1.25036
-1.26991
-1.20045
-1.24653
-1.94685
0.937701
0.914681
1.6888
0.822653
0.849797
0.818349
0.820502
-1.18145
-1.2261
-1.97084
-1.26669
-1.23918
-1.27296
-1.27004
-1.97376
0.856752
0.885704
0.852578
0.852747
-1.0883
-1.12937
-1.91928
-1.18484
-1.17234
-1.23506
-1.1863
-1.92775
0.919409
0.940354
0.889584
0.915985
-0.961034
-1.00633
-1.16661
-1.12425
-1.85146
0.965591
0.939358
0.942837
0.963348
-0.854571
-0.90442
1.77106
1.01067
1.09846
-0.520057
-0.371146
3.47305
2.00368
1.97154
1.75964
1.02801
1.00268
-0.502029
-0.529477
-1.9696
-3.46401
-3.49759
0.609209
0.483458
-0.999293
-1.12651
-1.83731
0.998888
0.972278
1.72207
0.443403
0.463346
0.513248
0.521582
0.46111
0.479346
-0.53311
-0.554953
-1.84124
-1.11805
-1.07409
0.523692
0.535574
-1.06772
-1.02531
-1.7709
0.227163
0.955284
1.00305
-0.858528
-0.736906
0.101018
-0.547519
-0.96168
-0.598389
-0.442155
-0.579786
-0.940724
-1.16903
-1.17081
-1.24289
-1.24246
-1.1557
-1.15288
-1.03061
-0.63928
-1.06258
-0.47402
-0.498811
-0.587385
-0.560939
-0.934275
0.417701
0.853187
0.454224
0.474883
0.455969
0.845359
0.477955
0.536798
0.930523
0.469086
0.416618
-1.11008
-1.1056
0.820509
0.820642
0.840611
0.840149
-1.20196
-1.19871
-1.24221
-1.59578
-1.58495
-1.60787
-1.599
-1.24547
-1.2212
-1.56052
-1.54094
-1.58079
-1.56599
-1.22186
0.836459
0.838327
0.817137
0.817749
-1.19057
-1.19512
-1.23792
-1.60073
-1.60956
-1.58453
-1.59701
-1.23395
-1.28217
-1.61423
-1.61006
-1.6117
-1.61444
-1.28239
0.446992
0.869033
0.499249
0.476775
0.519112
0.497588
0.873146
0.835213
0.480026
0.839056
-1.10872
-1.11069
-1.2099
-1.56517
-1.57943
-1.54552
-1.56043
-1.20905
0.498688
0.51094
0.901363
0.535166
0.51862
0.552941
0.537041
0.905157
0.48041
0.497002
-0.980492
-0.61146
-0.590793
-0.632307
-0.61147
-0.986985
-0.550006
0.526753
0.537382
0.204585
0.537343
0.523308
0.000725883
-0.417106
-0.471023
-0.0287761
3.48641
2.13006
2.00753
1.79415
1.12756
1.11193
-0.0335132
-0.74382
-0.789721
0.415761
1.05057
1.0313
1.76469
0.287409
0.282628
0.189572
0.529419
0.503438
0.291113
0.307449
-0.366932
-0.400722
0.0513602
0.313763
0.621125
0.622387
-0.35055
-0.262817
0.182147
0.930178
1.29204
1.28267
-1.17314
-1.00995
-1.15586
0.907963
1.2703
1.27218
1.27028
1.26892
0.907542
-1.23801
-1.23836
-1.14195
-1.15678
-0.231862
-0.238868
-0.927693
-0.557271
-0.563083
0.881939
0.870695
0.197467
0.945498
0.548959
0.660693
-1.12775
-0.969408
-1.00305
-1.18085
-1.49765
-1.46368
-1.53339
-1.50682
-1.19147
0.911776
1.27411
1.26988
1.28136
1.27457
0.913092
0.825083
0.633369
0.657389
0.629056
0.62813
0.81937
0.659506
0.657616
0.836452
-1.21947
-1.18884
-1.24635
-1.40555
-1.37752
-1.42911
-1.42278
-1.26093
1.27451
1.2792
0.924781
0.829443
0.65282
0.627638
0.817245
0.628586
0.629211
0.624821
0.624404
0.818743
-1.17755
-1.21452
-1.25562
-1.42328
-1.42833
-1.36704
-1.40141
-1.23701
-1.27853
-1.43429
-1.42967
-1.43087
-1.43373
-1.27778
-1.09667
-0.922125
-0.921875
-0.983051
-0.965294
-1.12311
-1.19612
-1.52507
-1.54042
-1.50401
-1.51975
-1.19078
0.929051
0.567663
0.554863
0.605524
0.598163
0.932038
0.329719
0.330984
0.951698
0.618605
0.609017
0.327459
0.329575
-0.223128
-0.225154
-0.465655
-0.136348
-0.442266
-0.282042
-0.514796
-0.343592
-0.319513
-0.356259
-0.519829
0.547726
0.368768
0.47221
0.346218
0.527849
0.438557
0.44788
0.301356
0.291214
0.51678
0.344856
0.350225
0.344271
0.342236
0.517344
0.457413
0.461646
-0.54096
-0.541337
0.529773
0.36246
0.351245
0.305238
0.301499
-0.643964
-0.799493
-0.759743
-0.842204
-0.811222
-0.664663
-1.16842
-1.16055
-1.23989
-1.24102
-1.14724
-1.15148
-0.672675
-0.824845
-0.834133
-0.812369
-0.822952
-0.667998
-0.84167
-0.863249
-0.838466
-0.838901
-0.484748
-0.303674
-0.293574
-0.323772
-0.305205
-0.487607
-0.242641
-0.275898
0.445481
0.643518
0.633755
0.666944
0.648181
0.446388
0.611138
0.61302
0.629006
0.612663
0.503501
0.692844
0.67253
0.444208
0.439362
-0.951981
-0.962385
-1.12418
-0.909446
-0.873178
-0.851901
-0.898466
-0.880068
-1.08724
-0.931533
-0.944701
0.625149
0.627459
0.823811
0.56544
0.565947
0.601471
0.568867
0.569931
0.571626
0.567301
0.570197
0.819125
0.627995
0.62596
0.590402
0.585894
0.613282
0.598392
0.597448
0.602581
0.588134
0.595043
0.836598
0.656269
0.652374
-1.2165
-1.19136
-1.41256
-1.40631
-1.24174
-1.25777
-1.42167
-1.41393
0.662288
0.658785
0.832258
0.602504
0.603189
0.563967
0.596203
0.597497
0.605163
0.602223
0.598702
0.627158
0.628462
0.817723
0.570864
0.568815
0.571903
0.570864
0.564963
0.56364
0.56833
0.566222
0.817877
0.625168
0.626679
-1.17818
-1.20884
-1.41377
-1.42031
-1.25077
-1.23156
-1.40395
-1.41075
-1.43665
-1.43414
-1.28036
-1.27957
-1.43559
-1.43569
0.446236
0.482401
0.661564
0.670183
0.651978
0.657905
0.472611
0.508211
0.6813
0.659145
0.672002
0.678392
0.50101
0.628955
0.627634
0.61386
0.628665
0.486389
0.644077
0.651124
0.627995
0.638918
0.480947
-0.945407
-0.928118
-1.1003
-0.879224
-0.905594
-0.866992
-0.869893
-0.909348
-1.11901
-0.955933
-0.939855
0.50053
0.325237
0.336309
0.346853
0.323061
0.501973
0.302214
0.481425
0.339031
0.484576
-0.630007
-0.800942
-0.809184
-0.787611
-0.79751
-0.622102
-0.569836
-0.581081
0.333554
0.348889
0.305608
0.325281
-0.194739
-0.22024
-2.00137
-3.49996
-3.4701
-1.76205
-1.0731
-1.03874
0.363818
0.490036
0.470764
-0.00200615
0.0331365
0.297858
-1.73231
-0.991249
-0.983341
1.30735
1.29437
0.932962
-1.18407
-1.1417
-1.14857
-1.23388
-1.23484
1.29251
1.30073
0.952614
-1.13533
-1.12766
-1.16996
-0.919566
-0.903709
-1.07537
0.967331
1.32855
1.31114
0.673743
0.676419
0.83238
-0.902638
-0.925179
-1.08163
0.848332
0.661135
0.672844
-1.22523
-1.15579
-1.16175
-1.19889
-1.32749
-1.32492
-1.26676
-1.37297
-1.36691
-1.2321
0.927847
1.28222
1.28905
0.667735
0.660976
0.844057
-1.18492
-1.14715
-1.14149
-1.22269
-1.2634
-1.32347
-1.32611
-1.275
-1.33175
-1.32981
-1.32872
-1.33106
-1.27337
0.828121
0.684988
0.673337
-1.21989
-1.35955
-1.36491
-1.14864
-1.48166
-1.49828
0.220916
0.218843
0.633161
0.62213
0.954284
0.222593
0.222197
-0.556453
-0.535705
-0.886784
-0.506879
-0.456888
0.440137
0.411778
0.415093
0.464168
0.458661
0.403882
0.407877
0.424658
0.421635
0.475599
-0.509264
-0.499775
-0.550713
0.361744
0.361884
0.531044
-0.818535
-0.407858
-0.423207
-0.566936
-0.610753
-0.66481
-0.6501
-0.743668
-0.727204
-0.74689
-0.707878
-0.523064
-1.11197
-1.11559
-1.16654
-1.16947
-1.11524
-1.1174
-1.24408
-1.24239
-1.10063
-1.09896
-1.15536
-1.1491
-1.09535
-1.09483
-0.714959
-0.723814
-0.693738
-0.699902
-0.648677
-0.733335
-0.741964
-1.07214
-0.900357
-0.894332
0.419446
0.452152
0.510112
0.510226
0.539468
0.532975
0.470611
0.49063
0.494148
0.506945
0.490339
0.450465
0.692593
0.698611
0.510868
0.457269
0.391546
0.394438
0.418921
-0.773089
-0.761603
0.651328
0.655946
0.846629
0.497112
0.500237
-1.20628
-1.19571
-1.3513
-1.34552
-1.21255
-1.22776
-1.36096
-1.35603
0.842086
0.661118
0.662108
-1.18513
-1.19929
-1.33792
-1.33761
-1.2819
-1.28259
-1.33792
-1.33795
0.449994
0.499623
0.554758
0.556106
0.532158
0.530882
0.473529
0.688114
0.68622
0.831657
0.511873
0.509096
0.515709
0.522093
0.48321
0.535544
0.533998
0.506652
0.505609
-1.34863
-1.35349
-1.21528
-1.20022
-1.33903
-1.34438
0.52207
0.670012
0.675399
0.661923
0.665211
0.518756
-0.601563
-0.746917
-0.784595
-0.734935
-0.741471
-0.599496
-0.631412
-0.691086
-0.690778
-0.551523
-0.513911
-0.596806
0.190934
0.227286
0.243198
0.217389
0.544018
0.379145
0.364945
0.385663
0.381605
0.520213
-0.0541691
-0.0832081
-0.28848
-0.282129
-0.460239
0.385827
0.414335
0.351552
0.283917
0.281774
0.338061
0.328383
0.18103
0.305122
0.260125
0.255834
0.255829
0.258964
0.308258
0.115546
-0.151901
-0.183427
-0.316117
-0.0574903
-0.0936224
-1.13
-1.13548
-1.1784
-1.01366
-1.0422
-1.04581
-1.05347
-1.04696
-1.23677
-1.23627
-1.0266
-1.03424
-1.0131
-1.01873
-1.16317
-1.11939
-1.11158
-0.239967
-0.186054
-0.174237
-0.200628
-0.196058
-0.244957
-0.979656
-1.02465
-1.01747
-1.04193
-1.03373
-0.991583
-1.22193
-1.19769
-1.16359
-1.16336
-1.26372
-1.3224
-1.31975
-1.15736
-1.1524
-1.1842
-1.21979
-1.31733
-1.32059
-1.26004
-1.33481
-1.33327
-1.27667
-1.276
-1.33309
-1.33456
-0.979607
-1.01844
-1.01216
-1.01068
-1.0163
-0.972821
0.216349
0.214169
0.222945
0.221952
0.328434
0.274115
0.274071
-0.118988
-0.121477
-0.222816
-0.159284
-0.166463
-0.164448
-0.158212
-0.222228
-0.411628
-0.429203
-0.487832
-0.354491
-0.172719
-0.252951
-0.214451
-0.317916
-0.293343
-0.223952
-0.331656
-0.389066
-0.397455
-0.382432
-0.38399
-0.32239
-0.372388
-0.408873
-0.41084
-0.406653
-0.412932
-0.367355
0.382323
0.451506
0.421155
0.367712
0.362684
0.3839
0.37693
0.437701
0.461237
0.416476
0.412018
0.298475
0.294958
0.403223
0.404134
0.349645
0.397975
0.400207
0.456945
0.376544
0.375128
0.37221
0.468949
0.408054
0.398865
-0.480074
-0.484808
-0.540488
-0.438795
-0.44361
-0.418853
-0.428957
-0.544883
-0.489736
-0.481748
0.302831
0.248339
0.252107
0.242945
0.245012
0.301139
-0.694342
-0.678819
-0.622469
-0.682462
-0.717645
-0.709098
-1.0855
-1.16539
-1.11841
-1.12423
-1.06803
-1.06097
-1.08128
-1.07535
-1.2423
-1.24257
-1.05716
-1.06379
-1.0421
-1.04993
-1.15198
-1.09369
-1.08711
-1.10455
-1.09868
-1.14853
-1.06836
-0.706656
-0.708197
-0.658808
-0.70694
-0.711306
-0.848103
-0.797949
-0.78809
-0.817889
-0.808625
-0.856151
-0.840664
-0.784593
-0.780851
-0.780994
-0.779426
-0.839878
-0.746358
-0.317795
-0.376877
-0.381045
-0.252296
-0.264338
0.413703
0.509351
0.508772
0.448139
0.454384
0.523243
0.514363
0.482659
0.486476
0.550942
0.548413
0.61218
0.482972
0.480648
0.388529
0.387374
0.448276
0.354712
0.423689
0.383221
0.389224
-0.958012
-1.01091
-1.00592
-1.01458
-1.01344
-0.957108
-0.928889
-0.919922
-0.865718
-0.81434
-0.828586
-0.801962
-0.806133
-0.859599
-0.888451
-0.84042
-0.848095
-0.880921
0.564796
0.564774
0.596087
0.549286
0.55022
0.541988
0.578714
0.570507
0.571193
0.56843
0.569417
0.585285
0.522275
0.525043
0.526846
0.523701
0.584409
0.61184
0.553521
0.552911
0.533648
0.549788
0.607087
0.501194
0.495543
0.599633
0.545054
0.542112
0.549985
0.54767
0.60146
0.590662
0.533694
0.530135
0.5388
0.535672
0.592732
-1.211
-1.19213
0.604155
0.552333
0.553279
0.549249
0.5507
0.60394
0.56734
0.551609
0.544205
0.579167
0.597262
0.538007
0.539901
0.540428
0.537723
0.599365
0.601119
0.546076
0.547729
0.542387
0.544461
0.59998
0.570697
0.570184
0.57202
0.571008
0.564344
0.563733
0.567918
0.567582
-1.18039
-1.20385
-1.28158
-1.33717
-1.33613
-1.33598
-1.33712
-1.28137
0.451077
0.543888
0.550733
0.496243
0.47139
0.53164
0.53625
0.51733
0.514655
0.628547
0.569073
0.570782
0.621757
0.566928
0.551426
0.571979
0.571641
0.62677
0.522355
0.51992
0.53169
0.535561
0.485763
0.506943
0.517269
-0.942318
-0.998175
-0.999895
-0.988248
-0.993698
-0.935711
-0.889391
-0.898134
-0.861816
-0.83024
-0.826114
-0.863284
-0.947127
-0.998414
-1.00382
-0.998454
-0.996578
-0.94103
0.328758
0.383158
0.381371
0.387664
0.385574
0.332609
0.332775
0.392633
0.399447
0.381623
0.385564
0.323935
0.297086
0.364363
0.362121
0.371727
0.367981
0.340542
0.385365
0.388275
0.362943
0.371944
0.336238
-0.687297
-0.6907
-0.635318
-0.559375
-0.591369
0.213936
0.216908
0.31301
0.253298
0.243921
0.272928
0.268157
0.320417
0.223283
0.224024
-0.0978392
-0.110464
3.23454
2.09923
2.31861
1.64643
0.282857
0.49792
-0.174198
-1.56574
-1.33372
-2.03697
-3.19997
-3.18919
5.08814
3.95663
4.16499
3.50258
2.13811
2.10481
1.68368
0.212334
0.288728
-0.0163459
-1.5799
-1.57296
-2.05392
-3.46344
-3.44027
-3.92493
-5.07079
-5.05956
5.08714
3.95208
3.95854
3.50012
2.03957
2.14927
1.82924
1.16479
1.13129
0.0227212
-0.735674
-0.743798
-1.96379
-2.54981
-2.53728
-3.95802
-5.09499
-5.08182
5.0741
3.92675
3.94714
3.48591
3.03025
3.0407
1.79686
1.5722
1.58609
-2.06139
-2.73832
-2.7102
-3.99902
-5.11989
-5.10732
5.05901
3.9055
3.92023
3.45329
2.98975
2.99803
1.71212
1.47542
1.48328
-2.16016
-2.80775
-2.78467
-4.02884
-5.13923
-5.13096
5.05275
3.90156
3.90297
3.43888
2.97433
2.9755
1.68531
1.44719
1.44778
-2.18787
-2.83035
-2.82698
-4.02947
-5.14223
-5.14321
5.05641
3.91216
3.90323
3.44531
2.98483
2.98039
1.70691
1.47395
1.46855
-2.14593
-2.80163
-2.81561
-4.00294
-5.12677
-5.13655
5.06537
3.9279
3.91603
1.74911
1.52187
1.51561
-2.07464
-2.74511
-2.768
-3.96237
-5.09948
-5.11401
5.0742
3.94006
3.93163
-1.99988
-2.57493
-2.59038
-3.92141
-5.0683
-5.08399
5.06848
4.15207
4.16268
3.46111
2.10217
2.11747
1.76882
1.0951
1.10342
0.0330584
-0.315426
-0.352168
-2.03602
-3.42551
-3.45378
-4.11933
-5.03564
-5.05251
5.0514
4.14077
4.14404
3.23
2.09025
2.09969
1.63709
0.267865
0.283628
-0.19098
-1.57066
-1.56915
-2.0337
-3.18212
-3.41989
-4.10165
-5.02131
-5.02567
3.22582
2.3139
2.31724
1.40298
0.488802
0.264982
-0.426889
-1.34276
-1.57109
-2.26164
-3.18008
-3.17979
1.49242
1.50298
1.7372
-1.88688
-1.61541
-1.63967
-1.54732
-1.56761
-1.8005
1.44922
1.45152
1.68936
-1.96686
-1.70312
-1.7105
-1.6467
-1.66582
-1.92748
1.46345
1.45881
1.69459
-1.96205
-1.69865
-1.68942
-1.71189
-1.71452
-1.97548
1.50929
1.50341
1.73294
-1.90143
-1.62997
-1.67126
-1.6855
-1.67264
-1.94343
-1.8205
-1.59619
-1.58538
-1.66153
-1.65058
-1.87198
1.108
1.13237
1.79678
0.17204
0.300221
0.290716
-0.06414
-0.0863087
0.111698
-1.57423
-1.56297
-1.79014
1.10941
1.17397
1.82967
0.422313
0.446782
0.468961
0.903417
0.942535
0.268074
0.267567
0.358318
-1.75256
-1.51244
-1.52771
-0.986344
-0.984817
-1.72424
3.00784
3.01884
3.477
1.99071
2.56173
2.54788
2.58977
2.57627
2.00102
-1.00169
-0.863969
-0.893687
-0.750233
-0.774199
-0.896528
-2.77704
-2.74787
-2.07695
-3.53913
-3.08831
-3.10458
-3.05522
-3.07136
-3.52578
2.97844
2.9832
3.44762
1.93241
2.51791
2.51247
2.53567
2.52563
1.93665
1.46314
1.46876
1.7059
0.925729
1.04599
1.04352
1.06653
1.06216
0.941618
-1.09825
-1.09839
-1.15015
-2.82612
-2.8121
-2.16744
-3.58187
-3.14217
-3.14962
-3.11939
-3.13209
-3.5738
2.97699
2.97487
3.43875
1.92334
2.50926
2.51224
2.50926
2.50823
1.92177
1.449
1.44759
1.6857
0.909903
1.03244
1.03392
1.03016
1.02979
0.907705
-2.82086
-2.82773
-2.18595
-3.59136
-3.1541
-3.14986
-3.1541
-3.15559
-3.59273
2.99576
2.99007
3.4493
1.95215
2.5295
2.53677
2.51683
2.52271
1.9474
1.48556
1.47968
1.71179
0.956452
1.30436
1.31349
1.05857
1.06188
0.945021
-1.13276
-1.06967
-1.0686
-2.77572
-2.79481
-2.13783
-3.56614
-3.12392
-3.11204
-3.14317
-3.13446
-3.57495
-1.01875
-0.879651
-0.870405
-1.02953
-1.02631
-1.08213
-2.60687
-2.62195
-2.06532
-3.5218
-3.07215
-3.05799
-3.09918
-3.08573
-3.5337
-0.915173
-0.800365
-0.794229
-0.841363
-0.834486
-0.947722
1.19856
1.09181
1.6529
0.188763
0.866429
0.855764
0.499774
0.488188
0.149313
-0.751544
-0.74299
-0.0416661
-1.57339
-0.9803
-1.10006
-1.02679
-0.988022
-1.70241
0.955067
1.07648
1.07122
1.35606
1.33415
0.974537
1.74752
1.51485
1.52818
0.87057
0.712233
0.728255
0.97604
0.865671
0.883533
0.769894
0.782514
0.902586
-1.13946
-1.08867
-1.095
-1.00718
-1.0158
-1.06844
-1.63367
-1.65286
-1.87212
-1.15584
-1.26209
-1.24834
-1.3231
-1.31507
-1.20995
0.909659
1.03148
1.03067
1.04117
1.03873
0.917748
1.69223
1.45458
1.45846
0.829561
0.769667
0.772609
0.755289
0.755518
0.818804
0.774312
0.775431
0.834705
-1.68938
-1.70033
-1.96134
-1.25268
-1.30027
-1.29709
-1.20917
-1.3389
-1.33168
-1.29476
-1.29048
-1.2417
-1.93784
-1.67107
-1.68551
0.934139
1.05186
1.05507
1.03595
1.03825
0.918301
1.69135
1.45475
1.45145
0.824305
0.762153
0.75898
0.79016
0.787852
0.847791
0.817574
0.75496
0.755218
0.756699
0.755504
0.819937
-1.70908
-1.70182
-1.96689
-1.28942
-1.29255
-1.24197
-1.97536
-1.71413
-1.7112
0.860838
0.71724
0.711162
0.771996
0.767745
0.881661
0.855867
0.794222
0.792765
0.70957
0.702373
0.848435
-1.09087
-1.03417
-1.03213
-1.07141
-1.0739
-1.12847
-1.64933
-1.63489
-1.91051
-1.18042
-1.31728
-1.3221
-1.28305
-1.28879
-1.17818
-1.23026
-1.28143
-1.28541
-1.32701
-1.3328
-1.19585
-1.93586
-1.66802
-1.65423
0.922732
0.81092
0.807514
0.82891
0.826157
0.937665
0.89348
0.7798
0.77585
0.803922
0.800126
0.91244
-0.967599
-0.854757
-0.848106
-0.86723
-0.85771
-0.999938
-1.16056
-1.27134
-1.27726
-1.45899
-1.47579
-1.14266
-1.86171
-1.63968
-1.62888
0.972898
0.64626
0.636565
0.611462
0.643507
0.969412
0.945974
0.834794
0.831763
-0.881631
-0.525254
-0.497945
1.5426
1.55753
1.78391
1.0467
1.38772
1.36346
1.36654
1.34945
1.05998
-0.294149
-0.323713
-0.394421
1.99075
2.55916
2.56602
2.5443
2.55182
1.98613
1.53358
1.52784
1.75443
1.01759
1.30117
1.30745
1.28748
1.29454
1.01396
-0.505549
-0.44564
-0.442505
-0.470208
-0.469143
-0.526766
-2.54685
-2.56058
-1.99156
0.588801
0.537323
0.561774
0.412593
0.423946
0.49633
-1.05518
-1.40128
-1.36713
-1.45203
-1.41419
-1.0746
-1.81883
-1.58971
-1.61202
0.987576
1.3306
1.28107
1.31716
1.32692
0.983862
1.7274
1.49746
1.49152
0.515047
0.459396
0.457843
0.463595
0.461301
0.519602
-0.537441
-0.480194
-0.474065
-1.618
-1.60711
-1.83092
-1.09924
-1.43557
-1.45316
-1.35901
-1.42968
-1.09303
0.526081
0.469724
0.466615
0.478871
0.47722
0.533787
-1.04822
-1.33574
-1.34784
-1.31331
-1.32416
-1.04202
-1.78031
-1.55217
-1.54195
0.573612
0.609261
0.288671
1.02275
0.711228
0.678802
0.701276
0.718765
1.02227
-0.843383
-0.710882
-0.728955
-0.418138
-0.40422
-0.809557
0.159139
-0.264373
-0.290129
-0.816465
-0.853115
-0.982205
-0.502714
-0.647335
-0.619825
-0.634073
-0.617656
-0.561898
-0.918954
-0.800025
-0.823526
-0.89079
-0.881921
-1.02483
-1.06619
-1.01071
-1.00821
-0.478064
-0.418807
-0.414946
-0.439711
-0.435956
-0.495039
-0.577287
-0.721068
-0.72806
-0.706439
-0.713778
-0.573109
-0.940999
-0.827509
-0.820503
0.696515
0.707867
0.861351
0.838101
0.678615
0.692193
0.484314
0.550987
0.544691
0.603443
0.592573
0.526215
0.915973
0.797472
0.811986
-1.05776
-1.06256
-1.11585
-1.09908
-1.04675
-1.05246
0.75652
0.757063
0.821624
0.819754
0.756181
0.756379
0.778751
0.779926
0.842769
0.838391
0.777519
0.77815
-1.30328
-1.3004
-1.23961
-1.59228
-1.48709
-1.49047
-1.47995
-1.48293
-1.58866
-1.60515
-1.49938
-1.50175
-1.4936
-1.49664
-1.60227
-1.24941
-1.30998
-1.30647
-1.27474
-1.27167
-1.21919
-1.55447
-1.45011
-1.45602
-1.43656
-1.44365
-1.54805
-1.5761
-1.47116
-1.47579
-1.46133
-1.46633
-1.57125
-1.22267
-1.27742
-1.27529
0.77848
0.777306
0.835582
0.839222
0.780731
0.779719
0.75409
0.75429
0.817663
0.817402
0.754054
0.754118
-1.30306
-1.3066
-1.24199
-1.60402
-1.49248
-1.48887
-1.49902
-1.49594
-1.60708
-1.58884
-1.48059
-1.48028
-1.4854
-1.48266
-1.59317
-1.23049
-1.29607
-1.29946
-1.6133
-1.50619
-1.50661
-1.50372
-1.50524
-1.61199
-1.61315
-1.50381
-1.50171
-1.5063
-1.50541
-1.61419
0.755154
0.719945
0.865078
0.518214
0.573325
0.574899
0.556209
0.556367
0.49626
0.87737
0.763011
0.758729
0.843627
0.698513
0.689385
-1.05407
-1.05155
-1.10672
-1.11245
-1.05698
-1.05559
-1.26415
-1.26462
-1.2103
-1.56983
-1.4618
-1.45668
-1.47428
-1.46772
-1.5746
-1.55057
-1.44209
-1.43689
-1.452
-1.44722
-1.55563
-1.20736
-1.26203
-1.26289
0.499432
0.442497
0.442927
0.454708
0.450062
0.507679
0.788398
0.784052
0.897437
0.531756
0.588816
0.591851
0.575535
0.576025
0.517813
0.543481
0.687573
0.691914
0.679718
0.683426
0.540833
0.908825
0.796291
0.792475
0.480292
0.421991
0.42391
0.441958
0.438355
0.493803
-0.867743
-0.861192
-0.973998
-0.608767
-0.666173
-0.669098
-0.648269
-0.651743
-0.594439
-0.671002
-0.673134
-0.611506
-0.99342
-0.880325
-0.874261
0.530304
0.390258
0.386566
0.403398
0.392736
0.534415
0.539663
0.483775
0.481032
-0.425652
-0.279467
-0.261255
-0.411357
-0.407782
-0.467063
2.13331
2.58221
2.58279
2.57229
2.5778
2.01684
1.12232
1.34463
1.34915
1.33482
1.33981
1.11685
-0.267746
-0.262214
-0.0262469
-0.753269
-0.502767
-0.503143
-0.489302
-0.516817
-0.771458
1.0435
1.32472
1.32989
1.3135
1.31926
1.04064
1.76958
1.54447
1.53913
0.232136
0.246689
0.232996
0.518778
0.406642
0.393033
0.397618
0.402769
0.509046
-0.376508
-0.241061
-0.221784
-0.249764
-0.257691
-0.386488
0.14553
-0.0111838
-0.0409118
0.424174
0.483812
0.336971
0.629235
0.536256
0.522555
0.502046
0.52955
0.626875
-0.333158
-0.251222
-0.269898
-0.115512
-0.0588219
-0.267094
0.271783
0.026501
0.035427
1.05133
1.04849
0.927822
1.288
1.1684
1.17153
1.16321
1.16587
1.28623
-1.15241
-1.09803
-1.09948
1.03049
1.03126
0.90868
1.27004
1.15009
1.1495
1.15256
1.1513
1.27189
1.2689
1.14901
1.14962
1.14893
1.14899
1.26977
0.907501
1.02977
1.02993
-1.08035
-1.07422
-1.13693
-0.813549
-0.806728
-0.921234
-0.576095
-0.691926
-0.699138
-0.678888
-0.685364
-0.5699
0.879517
0.65872
0.608924
0.648107
0.654173
0.875216
0.206433
0.427401
0.421226
0.828691
0.84698
0.960897
0.591628
0.734748
0.712037
0.778929
0.758013
0.608639
-1.07454
-1.08132
-1.13408
-1.28589
-1.27446
-1.16903
-1.48615
-1.38002
-1.39126
-1.35567
-1.36836
-1.47591
-1.52532
-1.42037
-1.42868
-1.40159
-1.41143
-1.51671
-1.20098
-1.30599
-1.29632
1.0336
1.03239
0.910628
1.27179
1.15215
1.15363
1.15013
1.15121
1.27175
1.2782
1.15868
1.16105
1.15496
1.15687
1.2773
0.914971
1.03667
1.03492
0.762496
0.766129
0.827883
0.642254
0.703986
0.698479
0.7137
0.709653
0.651763
0.628801
0.693188
0.693229
0.693014
0.693061
0.628424
0.818518
0.755587
0.755846
0.659583
0.716522
0.715753
0.716394
0.716565
0.658784
0.834944
0.775916
0.776449
-1.29952
-1.30106
-1.25135
-1.40334
-1.35432
-1.35392
-1.42645
-1.37165
-1.37366
-1.3678
-1.36991
-1.42563
1.2753
1.15635
1.15446
1.16098
1.15872
1.27798
0.921697
1.04078
1.0433