/*--------------------------------*- C++ -*----------------------------------*\
| =========                 |                                                 |
| \\      /  F ield         | OpenFOAM: The Open Source CFD Toolbox           |
|  \\    /   O peration     | Version:  5.x                                   |
|   \\  /    A nd           | Web:      www.OpenFOAM.org                      |
|    \\/     M anipulation  |                                                 |
\*---------------------------------------------------------------------------*/
FoamFile
{
    version     2.0;
    format      ascii;
    class       volScalarField;
    location    "100";
    object      p_rgh;
}
// * * * * * * * * * * * * * * * * * * * * * * * * * * * * * * * * * * * * * //

dimensions      [0 2 -2 0 0 0 0];

internalField   nonuniform List<scalar> 
6584
(
0.00683244
0.00729546
0.00784616
0.00866448
0.00970114
0.0110247
0.0126152
0.0144847
0.0164423
0.0183607
0.0197049
0.0198999
0.0185244
0.0156551
0.0118547
0.00782544
0.00412358
0.000922495
-0.00167246
-0.00371968
-0.00527018
-0.00644723
-0.00722244
-0.00785406
0.00667016
0.00717875
0.00769819
0.00851151
0.00952631
0.0108515
0.0124622
0.0144237
0.0165229
0.018681
0.0202719
0.0206414
0.0192286
0.0161132
0.0120173
0.00767962
0.00382409
0.000560832
-0.00201985
-0.00402979
-0.00552624
-0.00667575
-0.00739629
-0.00807901
0.0063217
0.0068444
0.0073063
0.00808261
0.00904159
0.0103543
0.0120151
0.014232
0.0166459
0.0188927
0.0217953
0.0232483
0.0222989
0.018764
0.0137387
0.0071242
0.00290765
-0.000489748
-0.00301021
-0.00489056
-0.00623822
-0.00728041
-0.00788904
-0.00856091
0.00586283
0.0063564
0.00673443
0.00742754
0.00827926
0.00951367
0.0112004
0.013678
0.0169651
0.0201319
0.0246986
0.0279282
0.0273191
0.0220785
0.0148414
0.00814391
0.0012978
-0.00223602
-0.00458306
-0.00620247
-0.0073018
-0.00814959
-0.00859609
-0.00918232
0.00532705
0.00574892
0.00601222
0.00655732
0.00722149
0.00823759
0.00978424
0.0122992
0.015351
0.0209947
0.0281292
0.0350796
0.0354675
0.0264818
0.0149546
0.00602682
0.000204788
-0.00498749
-0.0068753
-0.00796099
-0.00867552
-0.00922115
-0.00945437
-0.00988479
0.0047428
0.00505077
0.00516653
0.00548519
0.00585217
0.00638459
0.00748867
0.0090875
0.0131151
0.0192954
0.0294735
0.0466949
0.053878
0.0357282
0.0124966
0.000953511
-0.0046614
-0.00863977
-0.00977844
-0.0100958
-0.0102917
-0.0104303
-0.0104043
-0.0106133
0.00415192
0.00431136
0.00425785
0.00428691
0.00427506
0.00415118
0.00452019
0.00546563
0.00741192
0.0122858
0.0252729
0.0567533
0.100453
0.0388807
0.00528115
-0.00917004
-0.0118766
-0.0134139
-0.0132008
-0.0124837
-0.0120294
-0.0116742
-0.0113595
-0.0112956
0.00360197
0.00359503
0.00337245
0.00308661
0.0026504
0.00177854
0.00102791
0.000832219
-0.000689664
-0.00174591
0.00199319
0.0209592
-0.00192427
-0.0231309
-0.0252936
-0.0215004
-0.0187814
-0.0167762
-0.014871
-0.0136982
-0.0128158
-0.0122146
-0.0118528
0.00313724
0.00297007
0.00260759
0.00204154
0.0012203
-0.000311011
-0.00220556
-0.00390818
-0.00924741
-0.0185428
-0.0326367
-0.0711021
-0.114332
-0.0635282
-0.0431511
-0.0312714
-0.0236396
-0.019834
-0.0168683
-0.0150494
-0.0136976
-0.0128583
-0.012212
0.00279096
0.00249585
0.00205225
0.00130754
0.00025265
-0.00161911
-0.00422375
-0.00704283
-0.0144671
-0.0281144
-0.0512023
-0.104412
-0.168707
-0.0891922
-0.0541942
-0.0376151
-0.0266304
-0.0216326
-0.0180648
-0.0158391
-0.0141762
-0.0131939
-0.012318
0.00257747
0.00220632
0.00175648
0.00097336
-9.98554e-05
-0.00188633
-0.00450771
-0.00756979
-0.0143795
-0.0263063
-0.0463256
-0.0851292
-0.153792
-0.0876376
-0.0538194
-0.0382695
-0.0268943
-0.0217462
-0.0182172
-0.0159194
-0.0141677
-0.0131643
-0.0121462
0.00248878
0.00209979
0.00171296
0.00102372
0.000129394
-0.00122206
-0.0032404
-0.00569541
-0.00989118
-0.0161404
-0.0260055
-0.0394435
-0.096186
-0.0649302
-0.0437646
-0.0335904
-0.0245558
-0.0202573
-0.0173451
-0.0153003
-0.0136727
-0.0127682
-0.0117075
0.00249803
0.00214148
0.001863
0.00135292
0.000755134
-7.98212e-06
-0.00111432
-0.0025279
-0.00366469
-0.00391708
-0.00331105
0.00477949
-0.0327161
-0.0352139
-0.0296449
-0.0259513
-0.0205539
-0.0176825
-0.0156925
-0.0141283
-0.0127833
-0.0120581
-0.011045
0.00256833
0.00227753
0.00212211
0.00181739
0.00153823
0.00132341
0.00110108
0.00158276
0.0016537
0.0051583
0.0111582
0.0313479
0.0882251
0.00907262
-0.0117959
-0.0169695
-0.018075
-0.0160743
-0.0146893
-0.0136245
-0.0126223
-0.0116278
-0.0111223
-0.0102222
0.00266254
0.00245172
0.00240777
0.00228526
0.00226809
0.00243366
0.00279626
0.00379016
0.00489099
0.00906491
0.0156771
0.0279116
0.0343385
0.0156991
-0.00144122
-0.00857333
-0.0111194
-0.0119746
-0.0118031
-0.0114826
-0.0109977
-0.0103428
-0.0100576
-0.00930477
0.0027503
0.00261831
0.00265945
0.00267311
0.00283249
0.00321695
0.00385292
0.0051857
0.00640593
0.00955381
0.0141779
0.0194945
0.0199147
0.0100459
0.00234542
-0.00395191
-0.00761129
-0.00882154
-0.00934524
-0.00949533
-0.00941619
-0.00905172
-0.00895488
-0.00836167
0.00281121
0.00274741
0.00284331
0.00294437
0.00319841
0.00367229
0.00437402
0.00566095
0.00746726
0.00852691
0.0115909
0.0141008
0.0127216
0.00763758
0.00254968
-0.0015842
-0.00490557
-0.00642727
-0.00734145
-0.00776669
-0.00797116
-0.00782039
-0.00787122
-0.0074303
0.00283435
0.00282384
0.00294705
0.00309239
0.00337716
0.00383192
0.00448978
0.00536475
0.00702478
0.00753099
0.00952589
0.00951204
0.00849712
0.00488003
0.000761948
-0.000508455
-0.00319331
-0.00469557
-0.00576928
-0.00632145
-0.00670475
-0.00669998
-0.00685333
-0.00654397
0.00281654
0.00284389
0.00297379
0.00313097
0.00340891
0.00378369
0.0043703
0.00485569
0.00617221
0.00592046
0.00788682
0.00670398
0.00572135
0.00407632
0.00040686
-0.000103779
-0.00247608
-0.00352842
-0.00460092
-0.0051514
-0.005628
-0.00571044
-0.00592639
-0.00572464
0.00275984
0.00281146
0.00293527
0.0030841
0.00333968
0.00361741
0.00413439
0.00434714
0.00541134
0.00499048
0.00628009
0.00543926
0.00472679
0.00334763
0.000643113
0.000158997
-0.00193476
-0.00266809
-0.00371714
-0.0042059
-0.00472418
-0.00485064
-0.00509958
-0.0049812
0.00266914
0.00273409
0.00284514
0.00297441
0.00320214
0.00338615
0.00383679
0.00386377
0.00471527
0.00422576
0.00502096
0.00417766
0.0036536
0.00269548
0.00067292
0.000292549
-0.00150196
-0.0020232
-0.00303009
-0.00343778
-0.00396843
-0.00411047
-0.00437196
-0.00431517
0.0025503
0.00262038
0.00271586
0.00282065
0.00301947
0.00312193
0.00351004
0.00341218
0.00408728
0.00356631
0.00412234
0.00327397
0.00286025
0.00216227
0.000580363
0.000324873
-0.00119709
-0.00155255
-0.00249337
-0.00281516
-0.00333813
-0.00347713
-0.00373761
-0.00372391
0.00240926
0.0024788
0.00255838
0.00263808
0.00280929
0.00284628
0.00317815
0.00300216
0.00354159
0.00302155
0.00342787
0.00263836
0.00230021
0.00174843
0.000481505
0.000319298
-0.000978372
-0.00120555
-0.00207035
-0.0023107
-0.00281261
-0.00293716
-0.00318788
-0.00320224
0.00225141
0.00231691
0.00238164
0.00243842
0.00258443
0.00257241
0.00285495
0.00263496
0.00306966
0.00257213
0.00287054
0.00215101
0.00186827
0.00141919
0.000390403
0.000298019
-0.000814349
-0.000944135
-0.00173192
-0.00190007
-0.00237329
-0.00247742
-0.00271319
-0.00274387
0.00208143
0.0021411
0.00219258
0.00223006
0.00235345
0.00230719
0.00254693
0.00230757
0.00265962
0.00220137
0.00242072
0.001771
0.00152339
0.00115217
0.000306388
0.000268549
-0.000688905
-0.000744425
-0.00145762
-0.00156417
-0.0020044
-0.00208567
-0.00230367
-0.00234187
0.00190317
0.00195649
0.0019965
0.00201886
0.00212219
0.00205428
0.00225633
0.00201492
0.0022995
0.00188613
0.00204566
0.00146363
0.00124173
0.000938215
0.000234576
0.000237475
-0.000591244
-0.000590304
-0.001233
-0.00128794
-0.00169303
-0.0017513
-0.00195028
-0.00198971
0.00171965
0.00176707
0.00179721
0.00180878
0.00189407
0.00181498
0.0019835
0.00175231
0.00198143
0.00161508
0.00173259
0.00121188
0.0010207
0.00077269
0.000175298
0.000207288
-0.000514293
-0.000470313
-0.00104697
-0.00105948
-0.00142918
-0.00146551
-0.00164514
-0.00168117
0.00153322
0.00157578
0.00159741
0.00160223
0.00167109
0.00158926
0.00172761
0.00151581
0.0016997
0.0013827
0.00146981
0.00100842
0.000843561
0.000627144
0.00011381
0.000175563
-0.000451989
-0.000374271
-0.000889842
-0.000868348
-0.00120292
-0.00121938
-0.00138002
-0.00140999
0.00134589
0.00138478
0.00139899
0.00140062
0.00145448
0.0013763
0.00148766
0.00130089
0.00144677
0.00118043
0.00124283
0.000836262
0.000691779
0.000505174
6.186e-05
0.00014712
-0.000400792
-0.00029696
-0.000756124
-0.000707231
-0.00100761
-0.00100645
-0.00114881
-0.00117122
0.00115926
0.00119569
0.00120343
0.00120474
0.00124465
0.00117468
0.00126224
0.00110235
0.0012153
0.000999249
0.00104256
0.000688204
0.000560769
0.000403388
1.78668e-05
0.000121549
-0.000357969
-0.000233773
-0.000640746
-0.000569874
-0.000837338
-0.000820837
-0.000945717
-0.000959942
0.000974557
0.0010095
0.0010115
0.00101468
0.00104151
0.000983085
0.00104861
0.000916214
0.00100081
0.000833555
0.000863127
0.000560026
0.000448184
0.000317143
-2.10803e-05
9.73356e-05
-0.000321648
-0.000181291
-0.000539339
-0.000451124
-0.000686941
-0.000657463
-0.000765854
-0.000771846
0.000792872
0.000826922
0.000823975
0.000830033
0.000845534
0.000798876
0.000843285
0.000737342
0.000796961
0.00067666
0.000699461
0.000449164
0.000354832
0.000244182
-5.68589e-05
7.20966e-05
-0.000291597
-0.000137614
-0.00044876
-0.000347092
-0.000552041
-0.000511953
-0.000604742
-0.000603058
0.000614877
0.000647808
0.000640962
0.000650448
0.00065645
0.000620736
0.000646671
0.000563786
0.00060118
0.00052384
0.00054647
0.000351827
0.000278755
0.000180595
-8.92782e-05
4.57207e-05
-0.000264177
-9.97066e-05
-0.000364217
-0.000253626
-0.00042809
-0.00038038
-0.000458309
-0.00045007
0.000442982
0.000474316
0.000464788
0.000477523
0.000474708
0.000448064
0.00045425
0.00037964
0.000390936
0.000352571
0.000398216
0.000281583
0.00025694
0.000132637
-0.000133664
-3.53457e-06
-0.000253504
-7.13186e-05
-0.000284218
-0.000168735
-0.000311293
-0.000259868
-0.000323174
-0.000310596
0.000270331
0.000295436
0.000286011
0.000298795
0.000293277
0.000276953
0.000276094
0.000220987
0.000217738
0.000201738
0.000247641
0.000193475
0.000194971
7.14573e-05
-0.000139578
-1.98906e-05
-0.000198166
-3.42886e-05
-0.000191098
-8.90391e-05
-0.000194558
-0.000147524
-0.000194113
-0.000179939
0.000132154
0.000157449
0.000150183
0.000168826
0.000158605
0.000146515
0.000104933
-7.33232e-05
-0.000197688
-0.000213338
3.60962e-05
0.00035968
0.000711282
7.45163e-05
-0.000427659
-0.000331111
-0.000352405
-3.28237e-05
-0.000107446
-1.05589e-05
-7.7807e-05
-4.14213e-05
-7.26639e-05
-6.36764e-05
-0.0627326
-0.111743
0.0031054
-0.103287
-0.179791
-0.124908
-0.0897851
-0.167852
-0.182778
-0.0454572
-0.110295
-0.162264
-5.73694e-05
-0.0387459
-0.101142
0.0299419
0.100408
0.0961668
0.0127727
-0.0304569
0.0319143
0.100451
0.017994
0.0498715
-0.0247124
-0.0546773
0.0170727
-0.0807728
0.0557577
-0.102648
-0.0609341
-0.0226456
-0.0488518
-0.0936626
-0.0623443
-0.0902376
-0.131391
-0.108513
-0.217477
-0.179687
-0.165581
-0.0981516
-0.0726465
-0.0495234
-0.0834562
-0.0947917
-0.102772
-0.140322
-0.145372
-0.251106
-0.253721
-0.159171
-0.102388
-0.10244
-0.0318109
-0.0436089
-0.0792444
-0.0692717
-0.082868
-0.111235
-0.169427
-0.204497
-0.104119
-0.0784188
-0.0983461
-0.0778016
-0.119243
-0.0403325
-0.0434287
-0.0700043
0.0141988
-0.0251115
0.0303715
0.0370786
0.0900377
0.0362221
0.0226075
0.0151462
-0.103741
-0.0523023
-0.030879
-0.0581788
-0.112457
0.0560038
-0.0480648
-0.175899
-0.0927591
-0.0661109
-0.0887565
-0.171857
-0.144635
-0.133602
-0.0946722
-0.137973
-0.149316
-0.116965
-0.137551
-0.251342
-0.219482
-0.163319
-0.220197
-0.239282
-0.17523
-0.218307
-0.15561
-0.114894
-0.137761
-0.100467
-0.142715
-0.117456
-0.149093
-0.144451
-0.20657
-0.249263
-0.180644
-0.236728
-0.210041
-0.240783
-0.238463
-0.183174
-0.0811594
-0.0505409
-0.114963
-0.0855512
-0.122331
-0.165965
-0.134097
-0.162883
-0.121795
-0.207721
-0.165548
-0.141748
-0.0143068
0.00889285
-0.0462931
-0.0180073
-0.0310196
-0.0720155
-0.116286
-0.0771636
-0.0739348
0.0371338
0.0541195
0.0117028
0.0345902
0.0435209
0.0183342
-0.0183806
-0.0417506
0.0501338
-0.0275674
0.127744
-0.00856401
-0.00158094
-0.0380334
-0.0216237
-0.01871
-0.0461113
0.00273386
-0.0227262
0.00610749
-0.0134571
-0.0348344
0.105067
-0.0223435
0.0467453
-0.0747925
-0.0487367
-0.0502066
-0.0787394
-0.06347
-0.0683772
-0.0514723
0.00312894
0.0144022
-0.0489887
-0.0316212
-0.0261317
-0.048104
-0.0650327
-0.071488
-0.0321408
0.0158316
0.0279492
-0.0265262
0.00974929
-0.00755568
0.162518
0.106954
0.0703932
0.0717752
0.108227
0.163776
-0.0458204
-0.0253599
-0.0428195
0.115831
-0.025196
-0.0053087
-0.206877
-0.203874
-0.25685
-0.256642
-0.187511
-0.189802
-0.0948595
-0.08032
-0.0980285
0.0309364
0.00635622
-0.0230956
0.0014766
-0.00735415
-0.097138
-0.0866122
-0.122279
-0.0929117
-0.124632
-0.0942118
-0.0873548
-0.0274707
-0.00721642
-0.0360848
-0.0916897
-0.143917
-0.139309
-0.144899
-0.145032
-0.127773
-0.12853
-0.242847
-0.242736
-0.229441
-0.200712
-0.189607
-0.212026
-0.203784
-0.230296
-0.197459
-0.165793
-0.146538
-0.185551
-0.171264
-0.200875
-0.132823
-0.130602
-0.149976
-0.149123
-0.235545
-0.236853
-0.223747
-0.206585
-0.214334
-0.190855
-0.203159
-0.222245
-0.244494
-0.218108
-0.214076
-0.216188
-0.218386
-0.244615
-0.0706289
-0.0683209
-0.0710357
-0.0877911
-0.0508513
-0.0685332
-0.0638456
-0.103121
-0.0901101
-0.0986492
-0.141941
-0.144913
-0.188735
-0.172747
-0.186026
-0.15421
-0.168182
-0.184974
-0.0118254
0.00162342
-0.0337086
-0.0319761
-0.0484168
-0.0144284
-0.0297217
-0.0296748
-0.0292706
-0.0138921
-0.0486028
-0.0493041
-0.0263933
-0.0771709
-0.0521707
-0.0545271
-0.0521984
0.0486238
0.0619968
0.0837939
0.0297332
0.0442372
0.105818
0.0556848
0.0336859
0.229406
0.00894408
0.022275
0.00283683
0.0178323
0.0295379
0.0119165
0.0568757
0.041484
0.0456367
0.150975
0.00642808
-0.0151222
-0.0159559
0.0125565
0.0165729
0.0932045
0.067932
0.0727254
0.0180329
0.0223144
0.0660902
0.0614976
0.0996309
0.241901
0.170551
0.11999
0.146604
0.184011
0.247256
-0.124033
-0.102139
-0.1116
-0.213013
-0.198456
-0.191727
-0.145115
-0.123466
-0.121198
-0.123808
-0.12495
-0.145784
-0.254646
-0.254871
-0.178175
-0.19693
0.0414258
0.0311727
-0.00162815
0.00513288
0.0260053
0.0550248
0.0469835
0.0586625
0.0083584
-0.0154426
0.0985685
-0.16344
-0.185535
-0.196739
-0.128441
-0.104344
-0.07142
-0.139199
-0.113311
-0.139287
-0.14101
-0.120095
-0.124254
-0.112911
-0.119654
-0.139475
-0.141746
-0.152496
-0.14792
-0.160858
-0.159773
-0.147441
-0.146799
-0.144419
-0.133641
-0.248741
-0.228448
-0.22537
-0.209696
-0.208222
-0.230618
-0.225714
-0.236032
-0.11874
-0.113598
-0.129123
-0.139037
-0.146954
-0.153312
-0.150312
-0.162479
-0.161271
-0.155111
-0.159408
-0.146791
-0.218351
-0.244769
-0.23171
-0.226886
-0.230276
-0.198872
-0.206634
-0.217234
-0.242844
-0.234509
-0.230768
-0.232358
-0.234148
-0.242271
-0.131034
-0.132203
-0.124839
-0.175877
-0.165393
-0.156516
-0.145121
-0.135205
-0.149435
-0.115899
-0.130289
-0.139245
-0.00373737
0.00139671
-0.0123998
0.0127084
0.00350348
-0.000435828
0.0522079
0.0587063
0.0216689
0.0261723
0.0158817
0.0413819
0.0497999
0.0541222
0.0449865
0.0342972
0.175857
0.0586105
0.00557923
-0.00833815
-0.00725365
0.00660392
-0.0111008
-0.0119774
0.0433484
0.0383483
0.143667
0.0114144
0.0243215
-0.0615181
-0.0581239
0.0064445
0.0111388
0.00814548
0.0102445
0.00534093
0.0162395
0.0117516
0.00962556
-0.0411874
-0.038395
-0.035679
-0.0386115
0.0208342
0.0222141
0.0177205
0.0239342
0.0294126
-0.0832914
-0.0640637
-0.0253221
-0.104697
-0.0750759
-0.0937548
-0.211687
-0.195118
-0.255633
-0.256474
-0.180568
-0.194791
-0.0937717
-0.0897566
-0.0988141
-0.0771151
-0.0864296
-0.0890014
-0.111813
-0.120189
-0.10155
-0.109003
0.0201854
0.0273904
0.0382153
0.0104557
0.0232975
0.0172036
0.0242919
0.0104358
-0.111652
-0.0937512
-0.10587
-0.0726197
-0.0891571
-0.107775
-0.122426
-0.128968
-0.109578
-0.119891
-0.0649808
-0.046866
-0.067091
-0.0669327
-0.074444
-0.160271
-0.182411
-0.160097
-0.17148
-0.137025
-0.113861
-0.167715
-0.143337
-0.120333
-0.138553
-0.155936
-0.156642
-0.153887
-0.142053
-0.155947
-0.158913
-0.152115
-0.154686
-0.162414
-0.163048
-0.159182
-0.161031
-0.147437
-0.158961
-0.157121
-0.140604
-0.145056
-0.130988
-0.138492
-0.149069
-0.15103
-0.145983
-0.148619
-0.133167
-0.143714
-0.140842
-0.248167
-0.239206
-0.21833
-0.211442
-0.227229
-0.234977
-0.225169
-0.219231
-0.139283
-0.144956
-0.13701
-0.149338
-0.143284
-0.157465
-0.151568
-0.132918
-0.124809
-0.141153
-0.134964
-0.162502
-0.162462
-0.149788
-0.165099
-0.165789
-0.163489
-0.165251
-0.162796
-0.158375
-0.165189
-0.16346
-0.148052
-0.160221
-0.162092
-0.227164
-0.241903
-0.219924
-0.224555
-0.229244
-0.218255
-0.210109
-0.217419
-0.236399
-0.234159
-0.243819
-0.243251
-0.235759
-0.235446
-0.0772008
-0.0777204
-0.0757906
-0.0690937
-0.0853221
-0.0781635
-0.0811854
-0.0577363
-0.0570101
-0.0513868
-0.0667054
-0.0594685
-0.0604213
-0.113184
-0.106146
-0.122176
-0.115546
-0.0967938
-0.0945145
-0.0876651
-0.103786
-0.0966941
-0.0989835
-0.143459
-0.135045
-0.134128
-0.141488
-0.149532
-0.123181
-0.137972
-0.154916
-0.153556
-0.16246
-0.148639
-0.00583002
-0.00376965
-0.00948659
0.00364924
-0.00197066
-0.00391044
0.00477852
-0.0223222
-0.0119959
-0.0200739
-0.0643941
-0.0649998
-0.0741172
-0.05289
-0.0621334
-0.0611841
-0.0640682
-0.0672528
0.0612526
0.0747735
0.0315915
0.038727
0.0749252
0.0577961
0.0105936
-0.0110548
0.0108643
-0.00122312
0.0164313
0.0339344
0.321794
0.242589
0.206102
0.247626
0.272976
0.330856
0.0440375
0.0891167
0.060978
-0.0865844
-0.0997521
-0.121002
-0.215623
-0.227288
-0.229048
-0.253358
-0.254029
-0.0993211
-0.0903768
-0.0992899
-0.21641
-0.213623
-0.2021
-0.122262
-0.113601
-0.110457
-0.0860089
-0.0650241
-0.0827102
-0.124913
-0.117474
-0.107146
-0.107442
-0.131471
-0.114543
-0.120359
-0.13379
-0.126984
-0.249895
-0.231544
-0.233867
-0.221485
-0.241141
-0.239855
-0.23795
-0.204359
-0.200032
-0.212278
-0.125715
-0.110407
-0.102981
-0.122822
-0.129362
-0.123305
-0.2087
-0.220479
-0.218218
-0.247805
-0.235169
-0.238983
-0.240316
-0.241535
-0.243327
-0.242339
-0.241742
-0.242998
-0.240278
-0.111573
-0.114345
-0.12064
-0.200616
-0.193829
-0.197453
-0.0996159
-0.0955954
-0.110648
0.0558343
0.0573757
0.04174
0.0299378
0.0245999
0.050199
0.0534733
0.0321536
0.0488064
0.0323429
-0.0159792
-0.0106398
-0.0659937
-0.0507921
-0.0531198
-0.0539706
-0.0464821
-0.0460953
-0.0484391
-0.0318055
-0.0340654
-0.0338623
-0.0501441
-0.0469235
-0.0449118
0.0292972
0.0238685
0.0224032
0.102212
0.159383
0.133005
-0.0595554
-0.06044
-0.0505491
-0.0351885
-0.119026
-0.110215
-0.012574
0.0263397
0.0354642
-0.211041
-0.221108
-0.209452
-0.200942
-0.201648
-0.204545
-0.258299
-0.256867
-0.18561
-0.18255
-0.185236
-0.191318
-0.199546
-0.19225
-0.0986019
-0.10115
-0.0768442
-0.079511
-0.0830917
-0.103611
-0.106764
-0.107421
-0.110323
-0.10051
-0.101198
-0.117921
-0.113846
-0.117372
-0.0848727
-0.0905576
-0.0977616
-0.136117
-0.138345
-0.120295
-0.125408
-0.128038
-0.0170755
-0.040949
-0.0567822
-0.0473031
-0.0510514
-0.0485129
-0.0847712
-0.136869
-0.128529
-0.139822
-0.135675
-0.12177
-0.140578
-0.141737
-0.243959
-0.242527
-0.183903
-0.177854
-0.188554
-0.210051
-0.195245
-0.18984
-0.125643
-0.131366
-0.137305
-0.233146
-0.238042
-0.246481
-0.246323
-0.244458
-0.245032
-0.246613
-0.246479
-0.0729055
-0.0735647
-0.072392
-0.0699053
-0.0875835
-0.0850943
-0.0857224
-0.105296
-0.112072
-0.107589
-0.111583
-0.109304
-0.1243
-0.122253
-0.092372
-0.092505
-0.0900499
-0.107067
-0.104766
-0.183533
-0.188897
-0.197954
-0.176204
-0.17273
-0.178122
-0.0386886
-0.037791
-0.0334062
-0.0471626
-0.0424104
-0.0411122
-0.0398003
-0.0410329
-0.049677
-0.0291145
-0.0356008
-0.0365244
-0.0727109
-0.0717227
-0.0741553
-0.0571842
-0.0543717
-0.0759572
0.0678549
0.0691829
0.0800483
0.0338876
0.0360753
0.0383734
0.0313326
0.0484779
0.0407927
0.0404044
0.0931397
0.0746641
0.0418027
0.0518578
0.0440527
0.112709
0.202335
0.0680767
0.0138923
0.0151709
0.0784666
0.0943984
0.11559
0.0193015
0.0198059
0.0189337
0.0227542
0.0212611
0.0207577
0.112772
0.0905972
0.0780792
0.173787
0.24622
0.220353
-0.225877
-0.22624
-0.214197
-0.203202
-0.194357
-0.187755
-0.20783
-0.203919
-0.254615
-0.254087
-0.182351
-0.184226
-0.175074
-0.179065
-0.199406
-0.210362
-0.207493
0.0374866
0.0394588
0.0438393
0.0314415
0.0357096
0.033987
-0.188879
-0.177492
-0.174254
-0.184645
-0.181053
-0.192711
-0.248886
-0.223163
-0.234389
-0.238882
-0.236832
-0.238712
-0.237507
-0.234062
-0.224429
-0.210894
-0.247271
-0.235953
-0.237576
-0.233837
-0.244806
-0.244006
-0.242046
-0.241547
-0.244054
-0.244737
-0.170045
-0.162674
-0.168099
-0.157519
-0.159881
-0.166993
0.0584031
0.0593778
0.0421553
0.0455287
0.0441548
0.0450987
0.0419294
0.0571524
0.0540998
0.0509997
0.0537326
0.0564563
0.0474661
0.0504462
0.0481332
0.0268688
0.0118849
0.0104352
0.0396775
0.147951
0.128248
0.163528
0.0678847
0.0864996
0.109119
-0.00322253
-0.00259613
-0.00642857
0.00503481
0.00132755
0.00105297
-0.0187904
-0.0177154
-0.0225015
-0.0102213
-0.013914
-0.0148966
0.0546184
0.062956
0.0343585
-0.020777
-0.0356484
0.00526611
-0.00250021
-0.0640242
-0.0563084
-0.0553937
-0.0574547
0.00802784
0.00961271
0.00468854
0.00637387
0.00704413
-0.0414726
-0.0437946
-0.0438965
-0.03293
-0.0307354
-0.0348082
-0.0358627
-0.0358658
-0.0389713
-0.0353078
-0.03143
-0.0327075
-0.0326985
-0.0368228
-0.0260412
-0.0292653
-0.0418087
-0.0437203
-0.0401222
0.0256381
0.025876
0.0242879
0.0291951
0.0275687
0.0274701
-0.0768358
-0.0643223
-0.0706884
-0.106455
-0.10118
-0.0878653
-0.221533
-0.210217
-0.222846
-0.224912
-0.21126
-0.210284
-0.214878
-0.212788
-0.257227
-0.257398
-0.190841
-0.194552
-0.1863
-0.18854
-0.182857
-0.17992
-0.177478
-0.204999
-0.202328
-0.193023
-0.202246
-0.0900855
-0.0954973
-0.0857469
-0.0823418
-0.0854517
-0.11469
-0.120278
-0.116764
-0.125336
-0.123316
-0.117548
-0.10418
-0.102478
-0.0995343
-0.113039
-0.107148
-0.106639
-0.111721
0.014638
0.0126847
0.00862756
0.0195037
0.0149358
-0.106797
-0.106898
-0.110578
-0.114866
-0.104239
-0.0969253
-0.102277
-0.132705
-0.134394
-0.134816
-0.132803
-0.126818
-0.126822
-0.130576
-0.0695492
-0.061914
-0.0584548
-0.0479436
-0.0825157
-0.0845722
-0.0768501
-0.165077
-0.161969
-0.156553
-0.171662
-0.167479
-0.173347
-0.183716
-0.175288
-0.130193
-0.13953
-0.147858
-0.119597
-0.13032
-0.122758
-0.162495
-0.153094
-0.159038
-0.152396
-0.157062
-0.158511
-0.152984
-0.155264
-0.154772
-0.156205
-0.154554
-0.162657
-0.162735
-0.159681
-0.160308
-0.142785
-0.146381
-0.14391
-0.147841
-0.147302
-0.144125
-0.133069
-0.138187
-0.136685
-0.142847
-0.139882
-0.135412
-0.142987
-0.144809
-0.149632
-0.151802
-0.151425
-0.153066
-0.15243
-0.150316
-0.146817
-0.149211
-0.148627
-0.151375
-0.151062
-0.147958
-0.245489
-0.240654
-0.147348
-0.14839
-0.149722
-0.144591
-0.14676
-0.145394
-0.155852
-0.151413
-0.152906
-0.153271
-0.130517
-0.132649
-0.134716
-0.127744
-0.130284
-0.127738
-0.139074
-0.140336
-0.142413
-0.136349
-0.138182
-0.13698
-0.16506
-0.16521
-0.163977
-0.165206
-0.161355
-0.15996
-0.164454
-0.163579
-0.230134
-0.239747
-0.244475
-0.246149
-0.245519
-0.245545
-0.246184
-0.244359
-0.0751194
-0.076803
-0.0747494
-0.0759235
-0.0837318
-0.0824503
-0.079513
-0.116359
-0.113936
-0.110841
-0.113351
-0.115767
-0.120201
-0.122634
-0.124504
-0.118135
-0.120338
-0.117871
-0.120238
-0.118659
-0.0973926
-0.0950224
-0.0946244
-0.102727
-0.0992198
-0.140555
-0.142554
-0.144979
-0.137101
-0.139938
-0.137908
-0.144573
-0.146626
-0.1281
-0.133576
-0.12843
-0.13425
-0.158856
-0.152021
-0.154799
-0.14727
-0.149352
-0.155069
-0.00562955
-0.00654786
-0.00453268
-0.0107031
-0.00857226
-0.00752021
0.00213068
0.00140746
0.0030313
-0.00250996
-0.000448281
-4.74715e-05
0.0029377
-0.0240375
-0.0218491
-0.0285566
-0.026227
-0.0139268
-0.0150358
-0.0130182
-0.0195116
-0.0166376
-0.0156794
-0.0657957
-0.0688726
-0.0679018
-0.0607751
-0.0710019
0.0610551
0.0636113
0.0338504
0.0337942
0.0310855
0.0389512
0.0361001
0.0361119
0.0363764
0.0393131
0.0662756
0.0602103
0.0296848
0.0394644
0.0318349
0.0433388
0.04893
0.0365358
0.0482988
0.0389314
0.0319388
0.0337573
0.0212153
0.0206996
0.0164549
0.0231018
0.0242972
0.0278102
0.0478441
0.0418826
0.058184
0.0912533
0.0545202
0.0911555
0.052432
0.0419251
0.0398713
0.0147778
0.0192939
0.00907513
0.0011215
0.00582212
0.00615412
0.00731239
0.02065
0.00987701
0.0263437
0.0477088
0.0560848
0.0891932
0.0782462
0.142478
0.103712
0.0840606
0.0388905
0.0219742
0.0275462
-0.0139767
-0.0144598
-0.0053128
-0.0104597
-0.0207644
0.000881621
-0.00683203
-0.00799281
0.00335113
0.00858921
0.0109789
0.0259394
-0.0459054
-0.0420186
-0.0153885
-0.0540013
-0.0386808
-0.0259919
-0.0246906
-0.041024
-0.0271951
-0.039484
-0.0487407
-0.0405496
-0.0785133
-0.0885973
-0.0806296
-0.142576
-0.110637
-0.0874995
-0.0854334
-0.0602164
-0.0506774
-0.0285794
-0.0422647
-0.0430461
-0.052102
-0.0624957
-0.0619515
-0.10479
-0.116496
-0.116073
-0.171345
-0.135254
-0.130709
-0.0906807
-0.0676816
-0.0660612
-0.0218877
-0.0280186
-0.0396865
-0.0421978
-0.0484474
-0.0538704
-0.0801667
-0.0868687
-0.0927634
-0.134335
-0.112263
-0.123796
-0.0719404
-0.0592919
-0.0652075
-0.00990159
-0.00865443
-0.0232146
-0.0334128
-0.0344105
-0.0412884
-0.0719531
-0.0653665
-0.0842068
-0.0425727
-0.041366
-0.0509605
0.001225
0.00666892
-0.00419987
-0.0116122
-0.0215163
-0.0329181
-0.016423
-0.0226632
-0.0316138
0.00764201
0.0114983
0.00899811
0.015802
0.026419
0.0257819
0.0334473
0.0434125
0.0485348
0.0628626
0.0601408
0.0651455
0.0162269
0.00129531
-0.00840058
-0.00506244
-0.00946892
-0.0152488
0.0096419
0.0130601
0.0127475
0.0156004
0.0175819
0.0248544
0.0212238
0.0234334
0.036586
0.0224249
0.0160437
0.021084
0.010305
0.00535332
0.00254249
0.00137742
-0.00303307
-0.00561091
0.0128345
0.0142192
0.0169513
0.0168698
0.0164182
0.0208396
0.0150003
0.0130237
0.0146722
0.00873631
0.00584525
0.0058003
-0.0713702
-0.0606449
-0.0531468
-0.0967491
-0.108558
-0.132235
0.0111301
-0.00773575
-0.0134685
-0.114747
-0.112527
-0.101191
-0.175475
-0.194533
-0.201691
-0.139052
-0.157775
-0.136477
-0.0983218
-0.103377
-0.0938935
-0.172816
-0.191563
-0.182913
-0.203048
-0.205729
-0.184369
-0.0482362
-0.0547186
-0.0514241
-0.118155
-0.12797
-0.114156
-0.179267
-0.16732
-0.155966
-0.047305
-0.0477051
-0.038477
-0.105439
-0.0955633
-0.0919092
0.0466798
0.0349015
0.0210375
0.108188
0.0954944
0.0874598
0.0889057
0.0864935
0.106491
-0.02907
-0.0198321
-0.022345
0.0624334
0.0901065
0.05298
0.375999
0.324806
0.330027
0.0860093
0.10357
0.141565
0.377229
0.392504
0.0293179
0.041114
0.0284567
0.0753945
0.0875293
0.048174
-0.0307385
-0.0196617
-0.0159083
-0.0260363
-0.0225787
-0.03663
0.00700477
-0.0075613
-0.0153666
-0.0641706
-0.0697659
-0.0985974
0.0675671
0.0451312
0.0369056
-0.0799503
-0.0512425
-0.0609383
-0.0481979
-0.0512606
-0.0673204
-0.0197088
-0.0349734
-0.0352983
-0.0594973
-0.0550717
-0.0448713
-0.0849134
-0.0664039
-0.0715636
-0.0488573
-0.0588366
-0.0807274
-0.100996
-0.0953301
-0.08479
-0.129136
-0.1219
-0.124402
-0.100835
-0.105267
-0.112423
-0.186438
-0.189951
-0.183839
-0.129583
-0.115089
-0.149824
-0.091547
-0.105299
-0.113152
-0.0820669
-0.0948822
-0.0830549
-0.058224
-0.0611805
-0.051455
-0.0924091
-0.0729977
-0.0691622
-0.0743398
-0.0747895
-0.0943258
-0.114187
-0.115865
-0.104158
-0.142413
-0.134236
-0.132632
-0.137259
-0.137614
-0.145869
-0.128279
-0.133168
-0.169855
-0.104487
-0.120277
-0.117411
-0.118256
-0.12064
-0.104635
-0.0354534
-0.0422144
-0.037258
-0.0598044
-0.0488883
-0.0404897
-0.0635995
-0.056712
-0.0651051
-0.0742894
-0.0806632
-0.0748129
-0.095117
-0.0865063
-0.0766483
-0.107193
-0.103706
-0.107586
-0.172709
-0.170845
-0.168359
-0.0906817
-0.106409
-0.127109
-0.086089
-0.0966976
-0.0870778
-0.112259
-0.105233
-0.0928762
-0.0835942
-0.0859741
-0.0772719
-0.120016
-0.117262
-0.116401
-0.0457071
-0.0574
-0.0639925
-0.05225
-0.0554298
-0.04461
-0.0767314
-0.0659867
-0.0611661
0.00920715
0.0124729
0.0178998
-0.023918
-0.0177256
-0.0191634
0.0356559
0.0409997
0.032334
0.0514521
0.0437693
0.0358618
0.0702602
0.0611817
0.064532
0.0324082
0.0388295
0.0502785
0.0225412
0.0338691
0.0289186
0.0369834
0.0352336
0.0221931
-0.0984568
-0.0905704
-0.0959971
-0.0367917
-0.0592759
-0.0787917
-0.0425652
-0.0484728
-0.0348353
-0.0688794
-0.0839202
-0.0687259
0.0405667
0.0440459
0.0632653
-0.055407
-0.0425709
-0.0360872
-0.17211
-0.178917
-0.182903
-0.097283
-0.10589
-0.101394
-0.0711861
-0.0897398
-0.0823969
-0.103401
-0.0961597
-0.0827892
-0.155581
-0.148164
-0.157752
-0.143631
-0.135881
-0.136741
-0.126619
-0.128767
-0.135831
-0.0984057
-0.109524
-0.10567
-0.139704
-0.142765
-0.141462
-0.153378
-0.152884
-0.148374
-0.140465
-0.139337
-0.135829
-0.180884
-0.191802
-0.169951
-0.222344
-0.215196
-0.211732
-0.185779
-0.171433
-0.164082
-0.210412
-0.207739
-0.21619
-0.146683
-0.16296
-0.177091
-0.118582
-0.114203
-0.11082
-0.130644
-0.128505
-0.135039
-0.0975451
-0.107818
-0.111446
-0.141907
-0.144872
-0.146394
-0.119326
-0.121172
-0.119297
-0.149952
-0.1541
-0.153676
-0.147951
-0.149168
-0.145002
-0.201008
-0.194481
-0.177135
-0.205093
-0.208556
-0.212773
-0.18448
-0.205417
-0.202919
-0.0767772
-0.0775165
-0.0843279
-0.0513558
-0.0557428
-0.0548326
-0.111922
-0.116763
-0.117487
-0.0866665
-0.0934652
-0.0898616
-0.125147
-0.125565
-0.122799
-0.166473
-0.164411
-0.162551
-0.145667
-0.132438
-0.126234
-0.156706
-0.151987
-0.156844
-0.119888
-0.125275
-0.127499
-0.20552
-0.199599
-0.202026
-0.161939
-0.167283
-0.173465
-0.149067
-0.162961
-0.150196
-0.0106835
-0.0098231
-0.0135377
0.0100946
0.00700895
0.00586671
-0.042038
-0.0423721
-0.0469053
-0.0173478
-0.0212671
-0.021805
-0.0369313
-0.0362477
-0.0300892
-0.0742856
-0.0648247
-0.0661379
-0.110779
-0.109031
-0.114478
-0.0752071
-0.0902779
-0.0941325
-0.0828919
-0.0858556
-0.0762555
0.0461272
0.0574684
0.0456403
0.0669387
0.0614324
0.0476131
0.0152086
0.0165945
0.0132349
0.0350126
0.0533716
0.0584056
-0.0199684
-0.00442662
-0.00501115
-0.00454227
-0.00393155
-0.0291752
0.033542
0.0153136
0.00927358
0.144701