/*--------------------------------*- C++ -*----------------------------------*\
| =========                 |                                                 |
| \\      /  F ield         | OpenFOAM: The Open Source CFD Toolbox           |
|  \\    /   O peration     | Version:  5.x                                   |
|   \\  /    A nd           | Web:      www.OpenFOAM.org                      |
|    \\/     M anipulation  |                                                 |
\*---------------------------------------------------------------------------*/
FoamFile
{
    version     2.0;
    format      ascii;
    class       surfaceScalarField;
    location    "100";
    object      phi;
}
// * * * * * * * * * * * * * * * * * * * * * * * * * * * * * * * * * * * * * //

dimensions      [0 3 -1 0 0 0 0];

internalField   nonuniform List<scalar> 
13181
(
8.30575e-06
0.00915689
7.82079e-06
0.00916748
6.49532e-06
0.00916783
5.08112e-06
0.00916791
2.90926e-06
0.00916917
-4.76578e-06
0.00917418
-9.60401e-06
0.00917149
-1.04353e-05
0.00916753
-9.2399e-06
0.00916545
-4.29684e-06
0.00916171
4.95407e-06
0.00915745
1.68151e-05
0.00915479
2.79589e-05
0.00915551
3.50188e-05
0.00915964
3.67479e-05
0.00916492
3.40195e-05
0.00916938
2.84462e-05
0.00917227
2.13956e-05
0.0091737
1.00083e-05
0.00917789
1.32248e-07
0.00917688
-1.25689e-05
0.0091792
-1.78911e-05
0.00917182
-1.90986e-05
0.00916821
0.00914561
1.15987e-05
0.00914196
3.40989e-05
0.00914498
3.40636e-05
0.00916786
3.31617e-05
0.00916882
2.67463e-05
0.00917559
7.16995e-06
0.00919375
-1.82961e-05
0.00919695
-2.65404e-05
0.00917578
-2.55898e-05
0.0091645
-1.59569e-05
0.00457593
0.00457614
2.76255e-06
0.00456932
0.00456941
2.77098e-05
0.00456472
0.00456512
5.12123e-05
0.00456553
0.00456647
6.59375e-05
0.00457187
0.00457304
6.92692e-05
0.00458022
0.00458137
5.59212e-05
0.00918273
3.45182e-05
0.00919368
1.28492e-05
0.00919537
-1.01701e-05
0.00920091
-1.8457e-05
0.00918516
-1.93903e-05
0.00918013
-2.08294e-05
0.00917326
7.58173e-07
0.00914662
0.00914186
-5.02813e-06
0.00914155
-2.39534e-06
0.00914235
1.69959e-05
0.00914847
1.45589e-05
0.00917125
1.51023e-05
0.00917504
1.58766e-05
0.00919298
-1.74725e-05
0.0092303
-3.95822e-05
0.00919789
-2.07159e-05
0.00917136
-2.57191e-05
0.00457267
-1.74546e-05
0.00456394
-7.90341e-06
1.32834e-05
7.02693e-07
0.00455635
7.66687e-06
-1.69089e-05
0.00455665
2.57887e-05
-3.35589e-05
0.00456587
3.9564e-05
-4.29807e-05
0.00457962
4.35798e-05
4.62343e-05
0.00460885
-3.44902e-05
-4.552e-05
0.00460765
8.81134e-06
0.0092311
-3.78834e-06
0.00920797
-2.68729e-06
0.00919981
-4.56664e-06
0.00918704
-6.64338e-06
0.00918221
1.01223e-05
0.0091565
1.03153e-05
0.00914643
0.00914489
-1.13378e-05
0.00914539
-1.483e-05
0.00914584
-1.58662e-05
0.00914951
-2.7495e-06
0.00915814
-7.96131e-06
0.00918026
-8.37374e-06
0.00919339
-1.34327e-05
0.00923536
-3.4402e-05
0.00921885
-3.71937e-05
0.00461597
-4.05218e-05
0.0045987
0.00456758
-3.35414e-05
-0.00457123
0.00454961
-2.0957e-05
-0.00455736
2.87055e-05
9.24169e-06
0.00452966
6.05912e-06
-0.00454496
-2.35724e-05
0.00452717
4.06666e-05
-0.00454426
-5.37668e-05
0.00455935
5.36687e-05
-0.00455925
-3.7676e-05
0.00460845
1.74205e-05
-0.00458819
-4.17618e-06
0.00461133
1.69809e-06
3.89571e-05
0.00461152
-1.68105e-05
-4.92502e-06
0.00460236
3.22293e-05
0.0092147
2.34211e-05
0.00920861
1.19536e-05
0.00919851
2.25825e-05
0.00917158
2.09092e-05
0.00915817
1.46565e-05
0.00915268
0.00914973
-1.36038e-05
0.00914967
-1.89091e-05
0.00915115
-2.50461e-05
0.00915564
-2.77194e-05
0.00916081
-2.20358e-05
0.00917457
-2.63517e-05
0.00919771
6.01592e-06
0.00920299
1.71644e-05
0.00459144
4.74125e-06
0.00461153
0.00464353
-1.03896e-05
0.00457569
-3.72455e-05
-0.00456868
3.02328e-05
0.00454762
-4.52922e-05
-0.00454314
4.08173e-05
2.93493e-05
-2.45525e-06
-0.00450937
0.00224094
0.00224154
-3.11953e-05
6.48272e-05
-0.00450378
0.00223509
0.00223506
-7.71323e-05
4.31197e-05
-0.00457566
0.00229873
0.00231094
-5.52953e-05
0.00460626
5.79089e-05
-0.00460888
-5.04933e-05
0.00461779
5.12872e-05
-0.00461858
-4.96397e-05
0.00461242
4.87323e-05
6.04776e-05
0.00924297
-4.75849e-05
-4.11664e-05
3.96734e-05
0.00922942
4.04701e-05
0.00919771
3.38914e-05
0.00917816
2.44717e-05
0.00916759
1.73984e-05
0.00915975
0.00915531
-1.50838e-05
0.009154
-2.07477e-05
0.00915681
-2.79263e-05
0.00916282
-3.76888e-05
0.00917057
-4.37937e-05
0.00918068
-4.76488e-05
0.00920156
-2.96007e-05
0.00922327
-3.83203e-05
0.00460071
-3.88734e-05
0.00460628
-2.38675e-06
-0.00463791
3.40223e-05
0.00458328
1.56581e-05
-0.00458545
-1.34868e-05
-0.00228327
2.02902e-06
0.00228865
-7.41185e-06
-0.00222825
1.75419e-05
0.00223024
-1.95301e-05
-0.00221113
-1.83301e-05
0.00219759
3.18727e-05
-0.00228691
-2.8046e-05
0.00225777
5.71896e-05
-4.37235e-05
0.000110708
-0.00461171
-4.79832e-05
0.00229215
0.00230056
-0.000107651
0.00463255
9.39347e-05
-0.00461883
-7.8252e-05
-0.00462264
0.00463611
6.47897e-05
7.75378e-05
0.00928061
-6.01819e-05
-5.49927e-05
6.25085e-05
0.00924445
4.95893e-05
0.00921063
3.59811e-05
0.00919177
2.62901e-05
0.00917728
1.8685e-05
0.00916736
0.00916097
-1.60981e-05
0.00915847
-2.20501e-05
0.00916277
-2.89978e-05
0.00916977
-3.82245e-05
0.0091798
-5.12165e-05
0.00919367
-6.36394e-05
0.00921398
-4.11584e-05
0.00924211
-4.13291e-05
-0.00460998
0.00462001
-5.11864e-05
-0.00460831
0.00462376
-7.9266e-05
6.38125e-05
-0.00459456
0.00461973
9.91869e-05
-5.88209e-05
-6.55279e-05
-0.0022773
6.06128e-05
0.00227868
-6.19958e-05
-0.00111178
2.25844e-05
0.00110796
-1.87693e-05
-8.81237e-06
-0.00105342
0.00104752
1.47159e-05
-4.72814e-05
-0.00227289
9.45584e-05
-3.38158e-05
0.00111677
0.00114266
-0.000109307
-0.00230552
0.00231718
9.76441e-05
-0.000150496
-0.00465608
0.00468518
0.0001214
-9.74976e-05
-0.00465183
0.00467136
7.79642e-05
9.02097e-05
0.00931449
-6.2085e-05
-6.2008e-05
6.8319e-05
0.00926634
4.80894e-05
0.00923086
3.41963e-05
0.00920566
2.44451e-05
0.00918703
1.7241e-05
0.00917456
0.00916504
-1.55784e-05
0.0091622
-2.12288e-05
0.00916842
-2.76059e-05
0.00917615
-3.69288e-05
0.00918912
-4.90788e-05
0.00920582
-6.62769e-05
0.00923118
-4.02977e-05
0.0092615
-4.53674e-05
-0.00463069
0.00464186
-5.14641e-05
-0.00464358
0.00466293
-8.55194e-05
6.61663e-05
-0.0046545
0.00469264
0.000112308
-7.37642e-05
-7.66821e-05
-0.00231559
0.000102529
0.00233634
-0.000123274
-0.00112935
0.000108085
0.00114347
-0.000122203
-0.000146928
-0.00115143
0.00116491
0.000133448
-0.000155091
-0.00236223
0.00238403
0.000133288
-0.000178706
-0.00472378
0.00476232
0.000140172
-0.000111157
-0.00469495
0.00471627
8.98367e-05
8.8566e-05
0.00936466
-6.65811e-05
-7.21526e-05
5.58357e-05
0.00929907
3.92499e-05
0.00924745
2.77503e-05
0.00921716
2.03241e-05
0.00919446
1.54952e-05
0.00917939
0.00916837
-1.46194e-05
0.0091654
-1.84564e-05
0.00917225
-2.35114e-05
0.0091812
-2.9621e-05
0.00919523
-3.77281e-05
0.00921393
-4.86772e-05
0.00924213
-3.56567e-05
0.00927858
-3.00953e-05
-0.0046451
0.00465422
-4.47734e-05
-0.00468565
0.00470076
-7.54703e-05
6.03667e-05
-0.00472964
0.00475649
9.48243e-05
-6.391e-05
-5.77662e-05
-0.00239566
8.8741e-05
0.00241108
-0.00010416
-0.00123413
9.11025e-05
0.00124285
-9.98232e-05
-0.000128616
-0.00126429
0.00127493
0.00011798
-0.000125941
-0.00244629
0.00246494
0.000107293
-0.000133789
-0.00479921
0.00482822
0.000104786
-8.23336e-05
-0.00473578
0.00475117
6.69385e-05
7.0322e-05
0.00938964
-4.22701e-05
-5.30315e-05
4.14141e-05
0.00932798
2.4714e-05
0.00926415
1.81323e-05
0.00922374
1.37377e-05
0.00919885
1.05996e-05
0.00918253
0.00916898
-1.24826e-05
0.00916746
-1.57376e-05
0.00917551
-1.85691e-05
0.00918403
-2.22831e-05
0.00919895
-2.5184e-05
0.00921683
-2.84405e-05
0.00924539
-1.90273e-05
0.00928168
-1.25159e-05
-0.00466244
0.00467067
-2.72514e-05
-0.00471036
0.00471415
-3.47485e-05
3.09514e-05
-0.00477218
0.00477544
3.81418e-05
-2.47156e-05
-1.66923e-05
-0.00243933
3.15415e-05
0.00244216
-3.43725e-05
-0.00127351
2.44329e-05
0.00127394
-2.48584e-05
-3.59148e-05
-0.00131587
0.00131711
3.46826e-05
-4.33007e-05
-0.00250023
0.00250489
3.86369e-05
-4.65167e-05
-0.00484665
0.00485281
4.03562e-05
-3.54053e-05
-0.004762
0.0047672
3.02059e-05
3.54412e-05
0.00939255
-1.3848e-05
-2.45014e-05
3.31032e-05
0.00933031
1.3176e-05
0.00928407
5.61789e-06
0.0092313
5.96074e-06
0.00919851
5.49696e-06
0.00918299
0.00916767
-1.05457e-05
0.00916896
-1.22351e-05
0.0091772
-1.34171e-05
0.00918521
-1.33662e-05
0.00919889
-1.33787e-05
0.00921684
-8.87404e-06
0.00924088
-3.06362e-06
0.00927543
4.35978e-07
-0.00467374
0.00467481
-4.13921e-06
-0.00471235
0.00470543
6.88013e-06
3.88093e-08
-0.00476716
0.00475018
-1.81642e-05
1.41893e-05
2.09526e-05
-0.00243276
-2.40378e-05
0.00242488
3.19179e-05
-0.00125133
-3.53484e-05
0.00124558
4.10935e-05
5.51114e-05
-0.00129283
0.00128556
-4.78459e-05
4.28959e-05
-0.00249608
0.00248734
-3.41517e-05
4.19018e-05
-0.00484713
0.00483188
-2.66506e-05
1.43235e-05
-0.00476565
0.00475889
-7.56283e-06
-4.11403e-07
0.00937663
1.21476e-05
4.17661e-06
1.02263e-05
0.00931967
1.53117e-05
0.00927899
-6.94823e-06
0.00925356
-3.41733e-06
0.00919498
-1.93942e-07
0.00917977
0.00916453
-8.18682e-06
0.0091696
-8.09792e-06
0.00917711
-7.61547e-06
0.00918473
-5.67959e-06
0.00919696
-7.97771e-07
0.00921196
8.88962e-06
0.00923119
8.24216e-06
0.00926478
1.13031e-05
-0.00466994
0.00466461
1.35736e-05
-0.00469527
0.00468334
3.39865e-05
-2.20596e-05
-0.00472723
0.00470243
-5.12777e-05
3.71182e-05
3.89539e-05
-0.0023934
-5.44095e-05
0.0023817
6.61092e-05
-0.00119745
-6.1815e-05
0.00118999
6.92821e-05
0.000101275
-0.00122378
0.00121433
-9.1827e-05
9.47414e-05
-0.00244749
0.00243207
-7.93201e-05
0.0001005
-0.00480722
0.00477685
-7.01284e-05
5.0205e-05
-0.00474742
0.00473337
-3.61556e-05
-2.55018e-05
0.00934624
2.99747e-05
2.59223e-05
-7.66438e-06
0.00930184
3.63234e-06
0.00926769
7.91273e-06
0.00924928
-1.17798e-05
0.00921467
-6.31652e-06
0.00917431
0.00915944
-6.21146e-06
0.00916972
-5.30563e-06
0.0091762
-3.87308e-06
0.0091833
-2.47773e-07
0.00919333
5.5183e-06
0.00920619
1.63319e-05
0.00922038
1.57671e-05
0.00924889
1.64544e-05
-0.00465784
0.00465139
2.22165e-05
-0.00467084
0.00465935
4.16827e-05
-3.01894e-05
-0.00467814
0.0046576
-5.72164e-05
3.98609e-05
3.78952e-05
-0.00234816
-5.55687e-05
0.00233868
6.50479e-05
-0.00113919
-5.72626e-05
0.00113293
6.35235e-05
0.000102251
-0.00114173
0.00113128
-9.18064e-05
0.000100305
-0.00238496
0.00237079
-8.61351e-05
0.000110849
-0.00474291
0.00471462
-8.2563e-05
6.21023e-05
-0.00471855
0.00470403
-4.75896e-05
-3.64575e-05
0.00931394
3.44639e-05
3.42884e-05
-1.62501e-05
0.00928163
-2.76409e-06
0.00925421
-2.03152e-06
0.00924855
-1.52908e-05
0.00922793
-1.18349e-05
0.00917085
0.00915291
-4.2775e-06
0.00916912
-3.54093e-06
0.00917546
-1.3604e-06
0.00918112
1.83549e-06
0.00919014
7.24524e-06
0.00920078
1.54233e-05
0.0092122
2.62887e-05
0.00923802
2.65364e-05
0.00927885
1.72395e-05
-0.00464613
-0.00465021
-0.00465008
0.00464473
3.18863e-05
-0.00464271
0.00465212
2.27567e-05
-3.21701e-05
-0.00232594
2.13695e-06
0.00235166
-2.78664e-05
-0.0011227
3.68062e-05
0.00110213
-1.62345e-05
-0.000397468
1.0781e-05
0.000404749
-1.80619e-05
4.12562e-05
-0.00108253
0.00217819
-7.77747e-05
3.58873e-05
-0.00109503
-0.00233941
7.01593e-05
0.00233433
-6.50858e-05
8.28416e-05
-0.00469288
0.00467648
-6.64393e-05
5.28583e-05
-0.00469321
0.00468985
-4.94992e-05
-3.48203e-05
0.00928967
2.74849e-05
3.16089e-05
-1.71718e-05
0.00926398
-4.82527e-06
0.00924186
-1.80723e-05
0.00926179
7.57e-06
0.00920229
-1.39029e-05
0.00919232
0.00914804
-3.91704e-06
0.00916909
-3.24725e-06
0.00917479
-1.8572e-06
0.00917973
1.72176e-07
0.00918811
4.21503e-06
0.00919674
7.67694e-06
0.00920874
-6.22405e-07
0.00924632
-1.58126e-05
0.009332
-3.7957e-05
-0.00465627
0.00467623
-3.57752e-05
-0.00466492
0.0046472
-1.81149e-05
3.5832e-05
-0.00231687
-8.53371e-06
0.00231259
1.28186e-05
-0.0021765
-8.376e-06
0.00217887
6.01148e-06
-0.00098333
3.78937e-05
0.00200985
-5.76409e-05
-0.00100677
-0.00219002
7.0603e-05
0.00218121
-6.17871e-05
-0.00463946
6.67301e-05
0.00464786
-0.000118646
4.35181e-05
0.000110133
-0.0046677
0.00465623
-9.86707e-05
-0.000117844
0.00929094
5.89668e-05
9.02686e-05
-0.00470572
-0.00461661
-9.15376e-05
0.00926336
-7.23001e-05
0.00924474
-5.50396e-05
0.0092246
-1.53865e-06
0.00920829
7.13144e-06
0.00919362
1.36644e-05
0.00918579
0.00917393
-3.55356e-06
0.00916931
-3.72265e-06
0.00917496
-3.43671e-06
0.00917944
-2.43213e-06
0.0091871
-1.64163e-06
0.00919595
-5.14836e-06
0.00921225
-3.13398e-05
0.00927251
-3.79385e-05
0.00933834
2.60205e-07
-0.00467454
0.00464708
-1.04828e-05
-0.00463677
0.00463835
1.63326e-06
-3.20879e-06
-0.00462913
0.00463298
-5.8102e-06
1.95791e-06
-0.00218187
6.59145e-06
0.00218
-4.72067e-06
-0.00204837
2.77616e-05
0.00205706
-3.64552e-05
-0.00218141
4.4212e-05
0.00440944
-9.15298e-05
-0.00222352
4.28085e-05
-0.00463674
9.33423e-05
0.00462817
-8.4776e-05
-0.00464926
8.0013e-05
0.00464332
-7.40824e-05
-8.64711e-05
0.00925501
5.69239e-05
6.54805e-05
-5.7738e-05
0.00923463
-4.83444e-05
0.00923535
-4.33693e-05
0.00921962
-3.82062e-05
0.00920313
-3.19274e-05
0.00918734
-2.28653e-05
0.00917673
0.00916584
-4.07705e-06
0.00917039
-4.22331e-06
0.00917511
-4.66442e-06
0.00917988
-5.2728e-06
0.00918771
-6.67979e-06
0.00919736
-1.94178e-05
0.00922499
-3.74471e-05
0.00929054
-1.06471e-05
0.00931154
-6.1828e-06
0.00929395
-0.00464711
-0.00464247
-8.82754e-06
-0.00464299
0.00464676
-9.95269e-06
-0.00463543
0.00463656
-1.40235e-05
1.28948e-05
-0.00433935
1.55283e-05
0.00435016
-2.63367e-05
-0.00414075
4.59497e-05
0.00416168
-6.6878e-05
-0.0044114
7.48153e-05
0.00440789
-7.13075e-05
-0.00462108
6.28842e-05
0.00461713
-5.89411e-05
-0.00463935
5.71585e-05
0.00463616
-5.39624e-05
-8.61019e-05
0.00924496
4.68766e-05
4.92717e-05
-6.99142e-05
0.00921844
-5.40131e-05
0.00921945
-3.72693e-05
0.00920288
-2.26401e-05
0.0091885
-1.67854e-05
0.00918148
-1.54939e-05
0.00917544
0.00916713
-4.36039e-06
0.00917184
-5.52836e-06
0.00917628
-7.18491e-06
0.00918154
-8.79727e-06
0.00918932
-1.40985e-05
0.00920266
-3.78471e-05
0.00924873
-3.8367e-05
0.00929106
-2.02075e-05
0.00929338
-2.83334e-05
0.00930208
-2.0252e-05
0.00932222
-0.00465194
-0.0046567
-2.16685e-05
-0.00463541
0.00463097
-1.58094e-05
-0.00436236
1.81893e-05
0.00437396
-2.97889e-05
-0.00417686
4.17242e-05
0.0041894
-5.42722e-05
-0.00440556
5.91696e-05
0.00440577
-5.93784e-05
-8.69536e-05
0.00924701
-0.00461799
-0.00463087
4.38887e-05
4.49144e-05
-8.112e-05
0.009258
-0.00463291
-0.00463093
-7.46579e-05
0.0092385
-6.72417e-05
0.00921103
-5.33282e-05
0.00920553
-4.09585e-05
0.00919051
-3.09819e-05
0.00917852
-2.28225e-05
0.00917332
-1.12772e-05
0.00916389
0.00917401
-4.79842e-06
0.00917367
-6.95778e-06
0.00917844
-8.73089e-06
0.00918331
-1.11465e-05
0.00919174
-1.54252e-05
0.00920694
-3.38035e-05
0.00926711
-2.67698e-05
0.00928403
-2.21365e-05
0.00928875
-3.31271e-05
0.00931307
-4.17599e-05
0.00933085
-4.23212e-05
0.00918278
-0.00461848
-0.00456374
-7.04351e-05
0.00885783
-0.00439156
-0.00443816
-9.44039e-05
0.00842353
-0.00419808
-0.00420148
-8.20308e-05
0.00893565
-0.0044204
-0.00452763
-7.36582e-05
0.00923864
-7.01882e-05
0.00925453
-6.54843e-05
0.00923379
-5.93378e-05
0.00920488
-4.94267e-05
0.00919562
-4.0564e-05
0.00918165
-3.46144e-05
0.00917257
-2.46505e-05
0.00916336
-1.64887e-05
0.00915573
0.00917658
-5.31086e-06
0.00917583
-7.39128e-06
0.00918052
-1.01677e-05
0.00918609
-1.31873e-05
0.00919476
-1.76547e-05
0.0092114
-2.86504e-05
0.00927811
-2.52845e-05
0.00928066
-2.58351e-05
0.0092893
-3.52605e-05
0.00932249
-3.96691e-05
0.00933526
-3.74628e-05
0.00918057
-6.12682e-05
0.00888164
-8.13835e-05
0.00844364
-6.99022e-05
0.00892417
-6.32222e-05
0.00923196
-6.1316e-05
0.00925263
-5.79463e-05
0.00923042
-5.2817e-05
0.00919975
-4.57344e-05
0.00918854
-3.85099e-05
0.00917442
-3.24134e-05
0.00916648
-2.50412e-05
0.00915599
-1.82834e-05
0.00914897
0.00917788
-5.84463e-06
0.00917827
-8.77155e-06
0.00918344
-1.19351e-05
0.00918925
-1.5383e-05
0.00919821
-1.88075e-05
0.00921483
-2.36028e-05
0.0092829
-2.45398e-05
0.0092816
-2.78709e-05
0.00929263
-3.6397e-05
0.00933102
-3.82836e-05
0.00933715
-3.4181e-05
0.00917647
-5.59191e-05
0.00890338
-7.40312e-05
0.00846175
-6.17357e-05
0.00891188
-5.51062e-05
0.00922533
-5.37344e-05
0.00925126
-5.12495e-05
0.00922794
-4.75724e-05
0.00919607
-4.23677e-05
0.00918334
-3.64887e-05
0.00916854
-3.10548e-05
0.00916104
-2.46753e-05
0.00914961
-1.87817e-05
0.00914308
0.00917891
-6.36861e-06
0.00918093
-9.55858e-06
0.00918663
-1.2503e-05
0.0091922
-1.62346e-05
0.00920194
-1.99613e-05
0.00921856
-2.23831e-05
0.00928532
-2.55443e-05
0.00928476
-3.22645e-05
0.00929935
-3.66881e-05
0.00933544
-3.67522e-05
0.00933721
-3.10169e-05
0.00917074
-5.17804e-05
0.00892414
-6.88641e-05
0.00847884
-5.57729e-05
0.00889879
-4.85015e-05
0.00921806
-4.72563e-05
0.00925001
-4.55264e-05
0.00922621
-4.30637e-05
0.00919361
-3.83993e-05
0.00917867
-3.46269e-05
0.00916477
-2.91671e-05
0.00915558
-2.41727e-05
0.00914461
-1.95705e-05
0.00913847
0.00917912
-7.37202e-06
0.00918426
-9.74496e-06
0.00918901
-1.33913e-05
0.00919584
-1.67894e-05
0.00920534
-2.07001e-05
0.00922247
-2.3144e-05
0.00928777
-2.6586e-05
0.0092882
-3.28992e-05
0.00930566
-3.62514e-05
0.00933879
-3.46973e-05
0.00933566
-2.78604e-05
0.0091639
-4.8151e-05
0.00894443
-6.49105e-05
0.0084956
-5.11869e-05
0.00888506
-4.31582e-05
0.00921003
-4.16753e-05
0.00924853
-4.0401e-05
0.00922493
-3.82045e-05
0.00919141
-3.53371e-05
0.0091758
-3.19802e-05
0.00916141
-2.73227e-05
0.00915093
-2.31075e-05
0.0091404
-1.872e-05
0.00913409
0.00917998
-7.3466e-06
0.00918721
-1.08481e-05
0.00919251
-1.41209e-05
0.00919912
-1.76062e-05
0.00920882
-2.16168e-05
0.00922648
-2.3507e-05
0.00928966
-2.71655e-05
0.00929186
-3.30312e-05
0.00931153
-3.78632e-05
0.00934363
-3.2476e-05
0.00933027
-2.4826e-05
0.00915625
-4.48109e-05
0.00896441
-6.16895e-05
0.00851248
-4.76745e-05
0.00887105
-3.87637e-05
0.00920112
-3.68625e-05
0.00924663
-3.58573e-05
0.00922393
-3.43915e-05
0.00918995
-3.16454e-05
0.00917306
-2.90421e-05
0.00915881
-2.60546e-05
0.00914794
-2.25146e-05
0.00913686
-1.92597e-05
0.00913083
0.00917992
-7.80853e-06
0.00919024
-1.08774e-05
0.00919558
-1.47279e-05
0.00920297
-1.82396e-05
0.00921234
-2.17894e-05
0.00923003
-2.35923e-05
0.00929146
-2.74874e-05
0.00929576
-3.28721e-05
0.00931691
-3.77499e-05
0.0093485
-2.99751e-05
0.0093225
-2.18835e-05
0.00914816
-4.13924e-05
0.00898392
-5.89785e-05
0.00853006
-4.46431e-05
0.00885671
-3.50312e-05
0.00919151
-3.25836e-05
0.00924418
-3.18329e-05
0.00922318
-3.1014e-05
0.00918913
-2.92645e-05
0.00917131
-2.72958e-05
0.00915684
-2.38724e-05
0.00914451
-2.0923e-05
0.00913391
-1.82205e-05
0.00912813
0.00918038
-8.26959e-06
0.00919331
-1.13642e-05
0.00919867
-1.47419e-05
0.00920634
-1.82379e-05
0.00921583
-2.22965e-05
0.00923408
-2.39985e-05
0.00929316
-2.75569e-05
0.00929932
-3.24693e-05
0.00932183
-3.62355e-05
0.00935227
-3.31206e-05
0.00931938
-2.32469e-05
0.00913829
-4.17783e-05
0.00900245
-5.90694e-05
0.00854735
-4.50498e-05
0.00884269
-3.41603e-05
0.00918062
-3.10187e-05
0.00924104
-3.04793e-05
0.00922264
-3.04659e-05
0.00918911
-3.01296e-05
0.00917097
-2.62028e-05
0.00915292
-2.32596e-05
0.00914157
-2.03235e-05
0.00913097
-1.76056e-05
0.00912541
0.00918082
-8.74728e-06
0.0091964
-1.1832e-05
0.00920176
-1.47033e-05
0.00920922
-1.86591e-05
0.00921979
-2.21889e-05
0.00923762
-2.4291e-05
0.00929526
-2.75561e-05
0.00930258
-3.19333e-05
0.0093262
-3.70256e-05
0.00935736
-3.24381e-05
0.00931479
-2.39793e-05
0.00912983
-4.29503e-05
0.00902142
-6.1961e-05
0.00856637
-4.89275e-05
0.00882966
-3.74956e-05
0.00916919
-3.36149e-05
0.00923716
-3.27051e-05
0.00922173
-3.21894e-05
0.0091886
-3.12047e-05
0.00916999
-3.0207e-05
0.00915192
-2.81508e-05
0.00913951
-2.66428e-05
0.00912947
-2.4339e-05
0.00912311
0.00917372
-9.25705e-06
0.00919946
-1.23048e-05
0.0092048
-1.56484e-05
0.00921256
-1.85339e-05
0.00922267
-2.20187e-05
0.0092411
-2.40198e-05
0.00929727
-2.75351e-05
0.0093061
-3.37405e-05
0.00933241
-3.7143e-05
0.00936076
-2.983e-05
0.00930748
-2.12417e-05
0.00912124
-3.98105e-05
0.00903999
-5.97831e-05
0.00858634
-4.73284e-05
0.0088172
-3.51708e-05
0.00915703
-3.0518e-05
0.0092325
-2.93687e-05
0.00922058
-2.96533e-05
0.00918888
-2.84821e-05
0.00916882
-2.78703e-05
0.00915131
-2.66555e-05
0.0091383
-2.50263e-05
0.00912784
-2.35767e-05
0.00912166
0.00916648
-9.81388e-06
0.00920247
-1.2299e-05
0.00920729
-1.55866e-05
0.00921585
-1.83991e-05
0.00922548
-2.23221e-05
0.00924502
-2.42327e-05
0.00929918
-2.98461e-05
0.00931171
-3.54295e-05
0.00933799
-3.53633e-05
0.0093607
-2.7105e-05
0.00929922
-1.87273e-05
0.00911286
-3.66408e-05
0.00905791
-5.75858e-05
0.00860728
-4.61118e-05
0.00880573
-3.32897e-05
0.00914421
-2.77763e-05
0.00922699
-2.62548e-05
0.00921906
-2.67908e-05
0.00918942
-2.63906e-05
0.00916842
-2.56073e-05
0.00915052
-2.4191e-05
0.00913688
-2.3876e-05
0.00912752
-2.22364e-05
0.00912002
0.00915955
-9.92309e-06
0.0092049
-1.33393e-05
0.00921071
-1.60451e-05
0.00921855
-1.92809e-05
0.00922872
-2.21127e-05
0.00924786
-2.69678e-05
0.00930403
-3.28807e-05
0.00931762
-3.47807e-05
0.00933989
-3.34663e-05
0.00935938
-2.44929e-05
0.00929025
-1.62535e-05
0.00910462
-3.34526e-05
0.0090751
-5.53348e-05
0.00862917
-4.5017e-05
0.00879541
-3.17491e-05
0.00913094
-2.53053e-05
0.00922054
-2.3338e-05
0.00921709
-2.40715e-05
0.00919015
-2.39112e-05
0.00916826
-2.3401e-05
0.00915001
-2.27355e-05
0.00913622
-2.16917e-05
0.00912648
-2.08095e-05
0.00911914
0.00915288
-1.10971e-05
0.00920773
-1.34167e-05
0.00921303
-1.6025e-05
0.00922116
-1.91748e-05
0.00923187
-2.54391e-05
0.00925412
-3.27304e-05
0.00931132
-3.28867e-05
0.00931778
-3.39556e-05
0.00934096
-3.13643e-05
0.00935679
-2.1868e-05
0.00928075
-1.4045e-05
0.0090968
-3.0269e-05
0.00909133
-5.31357e-05
0.00865203
-4.4193e-05
0.00878647
-3.04147e-05
0.00911716
-2.32009e-05
0.00921333
-2.06211e-05
0.00921451
-2.1491e-05
0.00919102
-2.10317e-05
0.0091678
-2.1738e-05
0.00915072
-2.07869e-05
0.00913527
-2.046e-05
0.00912615
-1.97954e-05
0.00911847
0.00914592
-1.13162e-05
0.00920994
-1.40417e-05
0.00921575
-1.70338e-05
0.00922415
-1.9087e-05
0.00923392
-3.53252e-05
0.00927036
-3.24068e-05
0.0093084
-3.28708e-05
0.00931824
-3.30512e-05
0.00934114
-2.9282e-05
0.00935303
-1.93212e-05
0.00927079
-1.19984e-05
0.00908948
-2.71341e-05
0.00910646
-5.07605e-05
0.00867566
-4.34278e-05
0.00877913
-2.9454e-05
0.00910319
-2.13632e-05
0.00920524
-1.80721e-05
0.00921122
-1.90603e-05
0.00919201
-1.92536e-05
0.00916799
-1.91267e-05
0.00915059
-1.93442e-05
0.00913548
-1.86897e-05
0.0091255
-1.82035e-05
0.00911798
0.00913911
-1.25781e-05
0.0092125
-1.41924e-05
0.00921737
-1.70441e-05
0.00922701
-2.80943e-05
0.00924497
-3.60811e-05
0.00927835
-3.30442e-05
0.00930537
-3.26862e-05
0.00931788
-3.19384e-05
0.00934039
-2.70707e-05
0.00934816
-1.68927e-05
0.00926061
-1.01669e-05
0.00908275
-2.41002e-05
0.0091204
-4.83699e-05
0.00869993
-4.27193e-05
0.00877348
-2.86788e-05
0.00908915
-1.99112e-05
0.00919647
-1.58266e-05
0.00920714
-1.68071e-05
0.00919299
-1.70909e-05
0.00916827
-1.7572e-05
0.00915107
-1.69198e-05
0.00913483
-1.68907e-05
0.00912547
-1.6048e-05
0.00911714
0.00913292
-1.2844e-05
0.00921438
-1.536e-05
0.00921988
-1.75452e-05
0.00922919
-3.10139e-05
0.00925844
-3.52403e-05
0.00928257
-3.25365e-05
0.00930266
-3.23191e-05
0.00931767
-3.0605e-05
0.00933868
-2.48236e-05
0.00934238
-1.47385e-05
0.00925053
-8.90536e-06
0.00907692
-2.13354e-05
0.00913283
-4.56476e-05
0.00872424
-4.18238e-05
0.00876966
-2.80415e-05
0.00907537
-1.87846e-05
0.00918722
-1.38944e-05
0.00920225
-1.48073e-05
0.0091939
-1.50778e-05
0.00916854
-1.56067e-05
0.0091516
-1.55236e-05
0.00913475
-1.50812e-05
0.00912503
-1.48366e-05
0.0091169
0.00912631
-1.35743e-05
0.00921608
-1.54972e-05
0.00922181
-1.74946e-05
0.00923119
-2.78344e-05
0.00926878
-3.38124e-05
0.00928855
-3.29403e-05
0.00930179
-3.17372e-05
0.00931646
-2.91319e-05
0.00933607
-2.25218e-05
0.00933577
-1.26962e-05
0.0092407
-7.92984e-06
0.00907216
-1.87471e-05
0.00914364
-4.29002e-05
0.0087484
-4.10881e-05
0.00876785
-2.76465e-05
0.00906192
-1.80525e-05
0.00917762
-1.22701e-05
0.00919646
-1.35607e-05
0.0091952
-1.31871e-05
0.00916817
-1.37575e-05
0.00915217
-1.31757e-05
0.00913417
-1.37912e-05
0.00912564
-1.31089e-05
0.00911621
0.00911974
-1.47714e-05
-1.6592e-05
-1.78832e-05
-2.30137e-05
-2.65868e-05
-3.22567e-05
-3.0036e-05
-2.66686e-05
-2.01913e-05
-1.22908e-05
-9.64046e-06
-1.78992e-05
-3.74075e-05
-3.75854e-05
-2.67503e-05
-1.82787e-05
-1.20385e-05
-1.20118e-05
-1.16017e-05
-1.20717e-05
-1.1905e-05
-1.15421e-05
-1.18714e-05
9.846e-05
-0.000108295
-0.0012243
0.00126895
0.000137342
-0.00125581
-7.4124e-05
-7.63642e-05
-0.00114068
-0.000161927
0.00115568
3.32999e-05
-3.46179e-05
-0.00127219
0.00132065
4.86408e-05
-0.00131887
-2.39272e-05
-2.64963e-05
0.0012803
-6.89869e-05
-7.09804e-05
-2.94788e-05
3.4852e-05
-0.0012567
0.00129088
-4.59078e-05
-0.00129773
2.73912e-05
2.53721e-05
0.00132106
-1.68877e-05
-1.94399e-05
-6.02932e-05
6.76175e-05
-0.00120478
0.00121846
-9.84917e-05
-0.0012292
0.000109229
0.00128342
3.22157e-05
3.03498e-05
-5.90688e-05
6.59955e-05
-0.00114612
0.00112883
-0.000104697
-0.00114025
0.000116118
0.000112576
0.00120716
3.88015e-05
-5.01904e-05
-0.00111131
-1.18486e-05
0.000460692
2.32305e-06
-0.000232445
-0.000218721
-2.30065e-05
-0.000179695
-0.000206615
0.00106269
-5.91502e-05
-0.00106498
6.14418e-05
0.000112339
0.00111875
0.000101983
-0.000112875
-0.00111846
-0.00104815
3.66216e-06
0.00103567
0.000135808
-0.00112804
-0.000148454
-0.00110766
-5.26004e-05
0.00111298
9.87845e-05
-0.000117356
-0.00237709
0.00122832
-0.00121951
8.96552e-05
-0.00114058
9.70964e-05
0.00115156
0.000303367
0.000124094
-0.000599557
0.000304452
-6.54129e-05
-6.69445e-05
0.000111319
-0.000530544
-0.000120453
0.000539678
0.000125364
-0.00125231
0.00245917
0.000140655
-0.00243429
-0.000165537
-0.00235482
-0.000180949
0.00238068
4.72254e-05
-5.32818e-05
-0.00243327
0.00126676
-0.00126517
3.17112e-05
8.29916e-05
0.00123643
0.00126203
6.76659e-05
-7.29405e-05
-0.00125675
0.0006381
-2.08611e-05
-0.000637953
4.04501e-05
-1.97352e-05
-0.000633969
-6.46552e-05
6.27977e-05
0.000635827
0.00031168
9.54593e-06
-0.00032016
-1.06592e-06
-0.000319812
5.01095e-05
-5.47438e-05
0.000324446
4.6236e-05
-0.00131347
0.00252206
6.64849e-05
-0.00251316
-7.53845e-05
-0.000148218
0.00248145
-1.18537e-05
1.78418e-05
-0.00243875
0.00125015
-0.00125479
-2.48393e-05
2.34384e-05
0.00126775
0.00126925
-1.0912e-06
3.47772e-06
-0.00127164
0.000635586
9.01626e-06
-0.000637844
-1.03412e-05
3.58271e-06
-0.000642273
-6.58883e-06
1.20106e-05
0.000641035
-4.18346e-06
0.000278269
-1.19225e-07
-0.000278221
7.11861e-08
-0.000285416
4.50126e-07
0.000285384
-4.17938e-07
-3.92682e-05
-0.00129947
0.00251241
-2.2938e-05
-0.00252103
3.15616e-05
-4.76234e-05
0.00252638
-4.98513e-05
6.11896e-05
-0.00240474
0.00120118
-0.00120803
-5.34458e-05
-3.03178e-05
0.00124512
0.00122613
-4.93362e-05
5.61616e-05
-0.00123295
4.39356e-05
0.000583276
-0.000586289
-4.09223e-05
-0.000607785
1.76747e-05
-3.19035e-05
0.000603737
1.82769e-05
0.000297845
-3.89764e-05
-0.00030527
4.64015e-05
-0.000284294
-8.58756e-06
2.26418e-06
0.000290617
-8.83986e-05
-0.00123388
0.00245209
-8.44711e-05
-0.00247013
0.000102506
5.43909e-05
0.00250091
0.000519814
-7.64748e-05
-0.000522564
3.9944e-05
3.9281e-05
-0.000272676
-3.68015e-05
3.75003e-05
0.000271977
-9.41393e-05
-0.00115229
0.00237775
-0.000102797
-0.00239583
0.000120879
0.000113139
0.0024337
0.000475616
-6.1303e-05
-0.00047735
6.30366e-05
-0.00049535
-7.25928e-05
7.54643e-05
0.000492478
-1.53064e-05
1.24871e-05
-0.00217368
-1.99918e-05
0.00105309
-0.00104479
1.16896e-05
4.2405e-06
0.000467233
-3.15537e-05
-0.000971768
-7.72061e-05
0.00212345
-0.00213593
8.96871e-05
4.05677e-05
0.00106337
-6.66649e-05
-0.000633034
6.57297e-05
-9.24027e-05
-0.000602834
8.65837e-05
0.000608653
-0.00118767
0.000113821
0.00120073
-0.000126888
-0.000604323
0.000610987
-4.99012e-05
-4.91653e-05
0.000633891
-0.000636313
-3.25024e-05
-3.17403e-05
8.87053e-05
-0.000540079
0.000547602
-9.62289e-05
9.44679e-05
-0.000100458
-0.000598333
4.46649e-05
-0.000322127
-4.23502e-05
6.17955e-05
-6.34274e-05
0.000304999
-0.00120935
0.000155895
-0.000172417
0.00122587
-0.000605924
-6.10221e-05
0.000613052
0.000115689
0.000322736
4.51741e-05
-0.000323246
-5.42065e-06
-0.000643672
1.49763e-05
-8.15662e-06
-2.11169e-05
3.91979e-05
0.000642065
-2.20459e-05
5.91563e-05
0.00126644
-6.35669e-05
-0.000313262
0.000315349
-2.3204e-05
0.000319161
-5.40694e-06
-0.000319175
0.000318091
0.000318467
-3.25068e-05
-3.48151e-05
-2.07328e-05
-0.00031339
-1.11392e-06
-0.000287469
3.16701e-06
1.5563e-05
-5.30315e-06
0.00030142
-0.00130526
8.54554e-05
0.00131113
-4.4476e-05
-4.68532e-05
-0.000315782
0.000309071
2.22738e-05
0.000312333
1.9472e-06
-0.000315394
0.000325932
4.69141e-05
1.72716e-05
-0.000323508
9.7139e-05
-0.00129838
-5.08248e-05
-5.31947e-05
1.78202e-05
-0.00061155
-2.99488e-05
1.58936e-05
8.33497e-06
-1.50087e-05
0.000629027
1.32332e-05
-8.77934e-06
0.00126565
1.23824e-05
-0.000317012
0.000313146
1.22005e-05
0.000298854
1.93611e-05
-0.000300395
0.000317573
-5.00063e-06
8.5513e-06
-0.000316547
-1.43052e-05
-0.000276633
6.64411e-06
-7.96464e-07
0.000278052
1.0138e-06
-0.00131401
-1.37422e-05
0.00130935
1.02657e-05
8.13225e-06
-0.000303807
0.000304881
-1.86959e-06
0.000288606
-1.89426e-05
-0.000283969
0.000310532
2.25109e-06
-1.38465e-06
-0.000302542
-1.84817e-06
-0.00131761
3.83133e-06
1.61877e-06
-0.000570919
-4.45759e-05
0.000569657
2.21624e-05
2.36756e-05
0.000550422
-4.81264e-05
5.04585e-05
-0.000552754
0.000296339
2.01899e-05
-0.000572415
2.27771e-05
2.26544e-05
-3.79819e-05
-0.00027431
3.96158e-05
-4.2536e-05
5.34742e-05
0.000286907
-0.00125793
-8.37398e-05
0.00124863
4.69536e-05
4.60817e-05
-0.0002954
0.000289333
-3.64692e-05
0.000550189
3.74879e-05
-7.0871e-05
-0.000554788
0.000294176
-1.41571e-05
-3.47821e-05
-0.000299594
-7.7792e-05
-0.00126686
4.40262e-05
4.2695e-05
-0.000529675
-4.67652e-05
0.000527457
4.89836e-05
0.00051513
-4.31862e-05
4.46188e-05
-0.000516563
-4.83992e-05
0.000548747
5.00743e-05
-4.71566e-05
4.96888e-05