/*--------------------------------*- C++ -*----------------------------------*\
| =========                 |                                                 |
| \\      /  F ield         | OpenFOAM: The Open Source CFD Toolbox           |
|  \\    /   O peration     | Version:  5.x                                   |
|   \\  /    A nd           | Web:      www.OpenFOAM.org                      |
|    \\/     M anipulation  |                                                 |
\*---------------------------------------------------------------------------*/
FoamFile
{
    version     2.0;
    format      ascii;
    class       volScalarField;
    location    "100";
    object      pSat;
}
// * * * * * * * * * * * * * * * * * * * * * * * * * * * * * * * * * * * * * //

dimensions      [0 2 -2 0 0 0 0];

internalField   nonuniform List<scalar> 
6584
(
697.948
697.948
697.948
697.948
697.948
697.948
697.948
697.948
697.948
697.948
697.948
697.948
697.948
697.948
697.948
697.948
697.948
697.948
697.948
697.948
697.948
697.948
697.948
697.948
697.948
697.948
697.948
697.948
697.948
697.948
697.948
697.948
697.948
697.948
697.948
697.948
697.948
697.948
697.948
697.948
697.948
697.948
697.948
697.948
697.948
697.948
697.948
697.948
697.948
697.948
697.948
697.948
697.948
697.948
697.948
697.948
697.948
697.948
697.948
697.948
697.948
697.948
697.948
697.948
697.948
697.948
697.948
697.948
697.948
697.948
697.948
697.948
697.948
697.948
697.948
697.948
697.948
697.948
697.948
697.948
697.948
697.948
697.948
697.948
697.948
697.948
697.948
697.948
697.948
697.948
697.948
697.948
697.948
697.948
697.948
697.948
697.948
697.948
697.948
697.948
697.948
697.948
697.948
697.948
697.948
697.948
697.948
697.948
697.948
697.948
697.948
697.948
697.948
697.948
697.948
697.948
697.948
697.948
697.948
697.948
697.948
697.948
697.948
697.948
697.948
697.948
697.948
697.948
697.948
697.948
697.948
697.948
697.948
697.948
697.948
697.948
697.948
697.948
697.948
697.948
697.948
697.948
697.948
697.948
697.948
697.948
697.948
697.948
697.948
697.948
697.948
697.948
697.948
697.948
697.948
697.948
697.948
697.948
697.948
697.948
697.948
697.948
697.948
697.948
697.948
697.948
697.948
697.948
697.948
697.948
697.948
697.948
697.948
697.948
697.948
697.948
697.948
697.948
697.948
697.948
697.948
697.948
697.948
697.948
697.948
697.948
697.948
697.948
697.948
697.948
697.948
697.948
697.948
697.948
697.948
697.948
697.948
697.948
697.948
697.948
697.948
697.948
697.948
697.948
697.948
697.948
697.948
697.948
697.948
697.948
697.948
697.948
697.948
697.948
697.948
697.948
697.948
697.948
697.948
697.948
697.948
697.948
697.948
697.948
697.948
697.948
697.948
697.948
697.948
697.948
697.948
697.948
697.948
697.948
697.948
697.948
697.948
697.948
697.948
697.948
697.948
697.948
697.948
697.948
697.948
697.948
697.948
697.948
697.948
697.948
697.948
697.948
697.948
697.948
697.948
697.948
697.948
697.948
697.948
697.948
697.948
697.948
697.948
697.948
697.948
697.948
697.948
697.948
697.948
697.948
697.948
697.948
697.948
697.948
697.948
697.948
697.948
697.948
697.948
697.948
697.948
697.948
697.948
697.948
697.948
697.948
697.948
697.948
697.948
697.948
697.948
697.948
697.948
697.948
697.948
697.948
697.948
697.948
697.948
697.948
697.948
697.948
697.948
697.948
697.948
697.948
697.948
697.948
697.948
697.948
697.948
697.948
697.948
697.948
697.948
697.948
697.948
697.948
590.865
697.948
697.948
697.948
697.948
697.948
697.948
697.948
697.948
697.948
697.948
697.948
697.948
697.948
697.948
697.948
697.948
697.948
697.948
697.948
697.948
697.948
697.948
697.948
672.562
697.948
697.948
697.948
697.948
697.948
697.948
697.948
697.948
697.948
697.948
697.948
697.948
697.948
697.948
697.948
697.948
697.948
697.948
697.948
697.948
697.948
697.948
697.948
675.024
697.948
697.948
697.948
697.948
697.948
697.948
697.948
697.948
697.948
697.948
697.948
697.948
697.948
697.948
697.948
697.948
697.948
697.948
697.948
697.948
697.948
697.948
697.785
687.017
697.948
697.948
697.948
697.948
697.948
697.948
697.948
697.948
697.948
697.948
697.948
697.948
697.948
697.948
697.948
697.948
697.948
697.948
697.948
697.948
697.948
697.948
697.622
687.429
697.948
697.948
697.948
697.948
697.948
697.948
697.948
697.948
697.948
697.948
697.948
697.948
697.948
697.948
697.948
697.948
697.948
697.948
697.948
697.948
697.948
697.918
691.966
692.838
697.948
697.948
697.948
697.948
697.948
697.948
697.948
697.948
697.948
697.948
697.948
697.948
697.948
697.948
697.948
697.948
697.948
697.948
697.948
697.948
697.948
697.894
691.999
692.916
697.947
697.948
697.948
697.948
697.948
697.948
697.948
697.948
697.948
697.948
697.948
697.948
697.948
697.948
697.948
697.948
697.948
697.948
697.948
697.948
697.948
697.873
692.032
692.989
697.947
697.948
697.948
697.948
697.948
697.948
697.948
697.948
697.948
697.948
697.948
697.948
697.948
697.948
697.948
697.948
697.948
697.948
697.948
697.948
697.947
697.854
692.064
693.059
697.946
697.948
697.948
697.948
697.948
697.948
697.948
697.948
697.948
697.948
697.948
697.948
697.948
697.948
697.948
697.948
697.948
697.948
697.948
697.948
697.947
697.837
692.097
693.125
697.945
697.948
697.948
697.948
697.948
697.948
697.948
697.948
697.948
697.948
697.948
697.948
697.948
697.948
697.948
697.948
697.948
697.948
697.948
697.948
697.947
697.824
692.129
693.19
697.945
697.948
697.948
697.948
697.948
697.948
697.948
697.948
697.948
697.948
697.948
697.948
697.948
697.948
697.948
697.948
697.948
697.948
697.948
697.948
697.946
697.813
692.161
693.252
697.944
697.948
697.948
697.948
697.948
697.948
697.948
697.948
697.948
697.948
697.948
697.948
697.948
697.948
697.948
697.948
697.948
697.948
697.948
697.948
697.946
697.801
692.194
693.313
697.944
697.948
697.948
697.948
697.948
697.948
697.948
697.948
697.948
697.948
697.948
697.948
697.948
697.948
697.948
697.948
697.948
697.948
697.948
697.948
697.945
697.79
692.227
693.375
697.943
697.948
697.948
697.948
697.948
697.948
697.948
697.948
697.948
697.948
697.948
697.948
697.948
697.948
697.948
697.948
697.948
697.948
697.948
697.948
697.945
697.781
692.261
693.434
697.942
697.948
697.948
697.948
697.948
697.948
697.948
697.948
697.948
697.948
697.948
697.948
697.948
697.948
697.948
697.948
697.948
697.948
697.948
697.948
697.945
697.775
692.294
693.492
697.942
697.948
697.948
697.948
697.948
697.948
697.948
697.948
697.948
697.948
697.948
697.948
697.948
697.948
697.948
697.948
697.948
697.948
697.948
697.948
697.945
697.77
692.328
693.547
697.941
697.948
697.948
697.948
697.948
697.948
697.948
697.948
697.948
697.948
697.948
697.948
697.948
697.948
697.948
697.948
697.948
697.948
697.948
697.948
697.944
697.768
692.362
693.599
697.941
697.948
697.948
697.948
697.948
697.948
697.948
697.948
697.948
697.948
697.948
697.948
697.948
697.948
697.948
697.948
697.948
697.948
697.948
697.948
697.944
697.767
692.396
693.649
697.94
697.948
697.948
697.948
697.948
697.948
697.948
697.948
697.948
697.948
697.948
697.948
697.948
697.948
697.948
697.948
697.948
697.948
697.948
697.948
697.944
697.768
692.431
693.696
697.94
697.948
697.948
697.948
697.948
697.948
697.948
697.948
697.948
697.948
697.948
697.948
697.948
697.948
697.948
697.948
697.948
697.948
697.948
697.948
697.944
697.77
692.466
693.74
697.94
697.948
697.948
697.948
697.948
697.948
697.948
697.948
697.948
697.948
697.948
697.948
697.948
697.948
697.948
697.948
697.948
697.948
697.948
697.948
697.944
697.773
692.502
693.781
697.939
697.948
697.948
697.948
697.948
697.948
697.948
697.948
697.948
697.948
697.948
697.948
697.948
697.948
697.948
697.948
697.948
697.948
697.948
697.948
697.944
697.776
692.539
693.819
697.939
697.948
697.948
697.948
697.948
697.948
697.948
697.948
697.948
697.948
697.948
697.948
697.948
697.948
697.948
697.948
697.948
697.948
697.948
697.948
697.948
697.948
697.948
697.948
697.948
697.948
697.948
629.294
586.93
697.948
697.948
697.948
697.948
697.948
697.948
697.948
697.948
697.948
697.948
697.948
697.948
697.948
697.948
697.948
697.948
697.948
697.948
697.843
697.912
697.514
697.886
697.948
697.948
697.948
697.948
697.948
697.948
697.948
697.812
697.778
693.16
695.351
697.948
697.948
697.948
697.948
697.948
697.948
697.948
697.909
697.874
697.329
695.249
697.948
697.948
697.948
697.92
697.888
697.948
697.948
697.948
697.946
697.942
697.948
656.797
628.823
649.685
697.948
697.948
697.923
697.948
697.948
697.946
697.844
697.948
697.947
697.898
697.948
697.948
697.948
697.93
697.778
697.831
697.948
697.619
697.436
697.806
697.637
695.514
697.498
697.948
697.72
697.258
697.924
697.731
697.948
697.868
697.819
697.948
697.634
697.821
697.44
697.618
695.12
693.056
697.948
697.165
697.51
697.252
697.166
697.948
697.859
697.907
697.83
697.849
697.879
697.413
697.948
697.854
697.927
697.531
697.841
697.948
697.935
697.943
697.912
697.933
697.941
697.924
697.929
697.941
697.948
697.947
697.946
697.944
697.947
697.948
697.947
697.948
697.948
697.948
697.932
697.948
697.948
697.948
697.948
697.948
697.942
697.933
697.231
696.271
697.948
697.948
697.948
697.948
697.932
697.948
697.948
697.948
697.932
697.913
697.948
648.3
665.637
694.767
696.42
667.075
681.172
696.051
693.543
697.948
697.942
697.946
696.575
697.259
697.947
697.948
697.948
697.948
697.948
697.948
697.948
697.948
697.948
697.924
697.948
697.937
697.948
697.941
697.948
697.646
697.744
694.338
694.454
696.675
696.47
697.902
692.785
697.924
697.688
697.316
697.213
697.641
697.944
695.074
697.933
690.023
696.939
688.674
697.92
697.154
697.931
697.948
697.884
695.843
697.937
697.94
697.452
697.444
697.74
697.726
696.342
696.45
697.276
697.942
697.945
697.94
697.942
697.274
697.854
697.947
697.948
697.945
697.947
697.821
697.738
697.75
697.503
697.515
692.011
692.13
697.171
697.939
697.939
697.941
697.94
697.184
697.219
697.938
697.939
697.939
697.938
697.214
649.001
697.884
664.784
646.362
681.14
666.38
697.89
697.801
646.934
697.814
697.768
697.74
697.704
697.942
697.941
697.944
697.943
697.731
690.743
694.373
697.923
690.051
682.25
694.522
690.778
697.926
682.434
690.037
697.936
695.979
697.114
693.187
695.712
697.933
692.865
697.379
697.528
665.396
697.321
697.318
627.672
697.725
697.716
697.946
697.948
697.948
697.948
697.948
697.948
697.947
642.56
697.925
697.947
697.947
697.946
697.943
697.948
666.928
670.991
615.269
697.406
697.451
673.859
679.044
697.146
697.729
538.751
697.948
697.948
697.948
697.948
697.948
697.948
697.872
697.947
697.946
697.524
697.343
697.824
697.793
697.943
697.944
697.943
697.943
697.788
693.68
694.988
697.078
695.59
689.977
687.093
697.945
697.677
697.829
697.943
697.944
656.451
697.948
697.943
697.948
697.915
697.588
697.416
697.946
697.948
697.948
697.948
697.948
697.945
697.788
697.944
697.943
697.945
697.944
697.795
697.529
691.363
694.909
690.654
690.778
697.431
695.156
695.224
697.674
695.862
696.796
697.462
697.906
697.909
697.876
697.881
697.265
697.944
697.945
697.841
697.685
691.931
689.94
697.46
690.448
690.661
689.491
689.29
697.571
693.941
692.416
697.149
697.89
697.883
697.902
697.912
697.388
697.24
697.872
697.874
697.881
697.876
697.186
697.844
695.519
696.285
693.444
693.198
697.588
697.913
697.945
697.944
697.946
697.946
697.917
697.939
696.484
694.862
697.294
697.024
697.94
690.701
692.05
697.945
697.543
697.368
688.557
690.224
692.945
690.689
697.946
697.947
697.947
686.856
696.916
688.282
689.814
688.925
696.791
697.948
697.94
697.948
697.917
697.947
652.011
656.876
666.313
666.715
695.631
676.726
673.16
682.104
677.775
695.851
672.221
674.76
695.209
694.808
696.938
687.214
683.83
679.916
682.859
697.904
697.945
697.948
697.931
697.943
697.887
697.53
697.812
693.793
694.862
697.001
695.747
692.762
697.006
696.593
697.377
697.121
692.788
695.486
694.841
696.444
695.761
697.573
693.416
694.669
690.851
692.785
697.521
685.529
686.31
693.27
697.675
697.431
697.898
697.747
694.165
696.067
695.768
697.245
696.237
697.794
697.943
697.917
697.695
697.506
697.825
697.63
697.921
697.674
697.876
697.924
697.717
697.855
697.945
697.904
697.839
690.777
690.945
697.5
684.488
681.159
691.71
684.828
676.891
674.011
680.205
678.478
697.433
690.841
690.78
692.536
692.158
695.627
693.349
692.457
692.373
692.246
692.421
697.686
695.215
695.199
695.979
696.738
697.892
697.902
697.354
697.269
697.883
697.89
692.871
692.319
697.7
673.367
675.106
658.802
671.31
676.996
681.337
675.378
676.442
690.103
690.388
697.469
669.664
666.679
673.634
670.476
660.482
657.968
665.371
662.297
697.558
689.539
689.944
693.165
692.321
697.9
697.892
697.151
697.318
697.91
697.902
697.871
697.871
697.236
697.189
697.875
697.872
650.036
655.441
695.489
696.215
694.198
695.183
650.161
675.783
696.98
696.136
696.395
696.854
673.03
687.493
689.046
683.377
686.912
649.635
692.541
693.86
689.647
691.881
649.258
694.594
695.288
697.829
693.011
693.547
694.55
693.126
693.491
697.629
693.048
694.116
692.457
660.016
658.926
671.144
661.485
692.979
665.907
685.787
658.56
686.995
694.56
697.613
697.446
697.762
697.658
694.815
691.524
691.771
692.524
693.608
684.255
687.838
694.442
693.447
697.948
697.948
697.948
697.948
697.948
697.948
697.948
697.948
697.948
697.948
697.948
697.948
697.948
697.948
697.948
697.948
697.947
697.882
697.518
696.802
696.709
693.275
695.226
697.946
697.946
697.891
692.97
692.753
695.358
696.456
696.842
697.908
697.942
697.948
697.948
696.961
697.195
697.873
697.938
697.916
697.946
697.795
696.017
696.865
695.629
696.611
696.508
697.437
697.621
697.622
697.261
697.916
697.921
697.748
697.848
697.945
697.946
694.441
693.632
697.793
694.933
693.258
693.181
692.958
697.165
697.665
697.658
697.248
697.618
697.62
697.652
697.647
697.168
697.773
695.472
694.768
697.59
697.909
697.905
697.936
697.947
697.947
672.451
672.767
697.697
697.589
697.946
671.894
672.17
697.844
697.876
697.947
697.936
697.926
648.193
650.343
651.296
663.892
668.497
648.727
649.424
665.845
663.224
679.541
691.553
691.22
693.993
689.969
687.919
697.032
697.948
697.948
697.948
697.9
697.922
697.938
697.943
697.86
697.878
697.948
697.948
697.947
697.256
697.21
697.578
697.784
697.617
697.53
694.065
694.572
694.533
694.838
696.816
696.216
693.368
693.989
693.099
693.014
695.218
694.952
692.628
693.048
693.09
697.913
696.97
697.287
694.375
691.57
695.606
695.153
697.552
697.349
696.478
686.341
685.535
694.012
690.9
686.368
697.947
697.945
697.862
697.832
697.616
697.723
696.446
697.758
697.828
695.207
695.609
697.783
684.399
683.634
696.233
696.555
697.936
697.939
697.89
697.755
697.926
697.931
697.783
693.456
693.011
692.101
692.186
697.623
697.62
697.224
697.202
697.627
697.625
649.877
662.942
680.629
681.915
667.376
669.014
645.946
696.051
695.629
697.787
645.32
644.39
652.679
653.318
647.823
664.619
666.005
644.377
646.099
697.915
697.912
697.614
697.786
697.921
697.918
686.865
696.71
696.867
696.343
696.533
685.603
696.561
697.732
697.787
697.792
697.764
696.73
693.75
695.813
695.519
692.099
691.578
692.243
677.084
679.17
679.884
669.851
697.472
692.636
690.72
694.15
693.088
697.249
685.407
685.794
694.984
695.849
697.78
697.946
697.946
697.939
667.438
668.727
691.644
691.169
605.693
676.439
671.298
671.193
670.131
670.815
677.987
541.271
692.409
694.447
697.948
697.948
697.948
696.981
696.893
697.52
697.159
697.469
697.675
697.376
697.431
693.505
695.105
692.826
693.023
693.442
692.976
695.467
692.64
692.594
689.309
685.467
685.454
685.794
685.826
688.47
697.536
697.768
697.776
697.739
697.76
697.479
695.744
697.263
696.391
696.089
697.263
697.624
697.626
693.104
693.277
694.6
692.616
697.679
697.672
697.153
697.618
697.618
697.245
697.179
697.642
697.637
693.523
694.56
694.038
695.083
694.869
693.481
673.144
673.781
671.528
671.653
689.165
680.498
679.568
686.569
686.47
692.285
687.814
688.896
685.797
686.644
691.495
697.941
697.938
697.943
697.935
697.946
697.948
697.948
697.943
697.945
697.941
688.118
693.663
693.275
694.561
694.113
688.633
690.237
691.765
690.966
692.918
692.474
689.672
697.944
697.947
697.945
697.853
697.775
697.933
697.918
648.957
661.295
651.974
651.567
666.477
666.587
683.774
684.828
674.552
650.221
648.659
670.133
655.141
654.747
654.503
677.352
658.798
653.848
692.326
693.028
695.548
690.626
690.671
690.488
690.433
694.39
691.165
691.552
680.759
668.855
669.442
669.132
668.637
681.697
697.929
697.934
697.915
697.841
697.889
697.922
696.837
697.545
697.144
697.066
697.236
697.309
697.068
697.158
693.914
694.699
693.218
693.234
693.08
693.152
696.918
695.034
695.192
692.633
692.881
695.958
693.081
693.911
693.37
692.685
694.702
694.393
695.251
692.78
692.862
693.362
692.993
695.051
696.265
694.404
694.729
693.3
693.887
696.035
692.992
691.53
695.251
694.945
685.067
685.471
692.771
696.001
695.802
692.407
694.937
696.807
696.322
687.83
686.924
693.252
693.367
695.864
690.291
689.007
697.047
697.319
697.768
697.479
696.709
695.613
696.64
697.792
697.872
697.889
697.794
697.827
697.658
697.456
697.622
697.889
697.822
697.794
697.895
697.839
697.905
697.75
697.758
697.661
697.778
683.852
682.366
689.794
680.172
681.273
678.048
685.173
675.64
674.682
679.505
679.064
692.181
686.803
687.527
685.948
686.25
692.112
695.348
692.456
693.018
687.728
691.011
694.677
683.178
682.354
692.491
682.997
683.368
682.557
682.787
692.498
692.342
685.658
685.808
683.924
684.686
692.387
696.124
696.655
674.362
659.302
661.372
655.007
656.948
674.821
661.966
662.093
661.817
666.949
677.928
646.582
647.846
651.766
647.725
679.379
675.695
652.167
653.423
649.837
651.226
676.063
669.182
668.4
673.165
671.63
659.065
658.025
664.438
663.843
692.483
692.246
697.229
697.619
697.619
697.633
697.63
697.194
650.509
676.62
678.939
660.197
646.781
671.16
673.851
648.251
646.636
688.008
668.348
667.555
685.04
662.535
657.455
666.607
665.157
686.159
652.488
650.21
660.136
662.887
648.846
649.573
655.149
694.883
696.488
696.315
696.748
696.624
695.09
693.174
693.487
694.069
693.37
693.428
693.526
693.179
695.525
695.287
696.084
695.806
693.577
659.494
673.015
674.494
670.334
671.697
659.218
667.847
680.567
682.401
676.285
678.414
664.231
664.724
653.86
655.228
654.084
653.767
658.948
666.389
668.712
658.278
662.54
658.487
696.254
696.061
694.245
691.6
692.085
675.077
677.079
685.681
673.984
670.912
678.435
676.775
686.908
671.056
671.408
686.026
686.019
697.948
697.948
697.948
697.948
697.948
697.948
697.948
697.948
697.948
697.948
697.948
697.948
697.948
697.948
697.948
697.948
697.948
697.948
697.948
697.948
697.948
697.948
697.948
697.948
697.948
697.948
697.948
697.948
697.948
697.948
697.948
697.948
697.948
697.948
697.948
697.948
697.948
697.948
697.948
697.948
697.948
697.948
697.948
697.948
697.948
697.948
697.948
697.948
697.948
697.948
697.948
697.948
697.948
697.948
697.948
697.948
697.948
697.948
697.948
697.948
697.948
697.948
697.948
697.948
697.948
697.948
697.948
697.948
697.948
697.948
697.948
697.948
697.948
697.948
697.948
697.948
697.948
697.948
697.948
697.948
697.948
697.948
697.948
697.948
697.948
697.948
697.948
697.948
697.948
697.948
697.948
697.948
697.948
697.948
697.948
697.948
697.948
697.948
697.948
697.948
697.948
697.948
697.948
697.948
697.948
697.948
697.948
697.948
697.948
697.948
697.948
697.948
697.948
697.948
697.948
697.948
697.948
697.948
697.948
697.948
697.948
697.948
697.948
697.948
697.948
697.948
697.948
697.948
697.948
697.948
697.948
697.948
697.948
697.948
697.948
697.948
697.948
697.948
603.293
696.01
696.333
697.948
697.948
697.948
697.948
697.948
697.948
697.948
697.948
697.948
697.948
697.948
697.948
697.948
675.651
675.313
674.499
697.948
697.948
697.948
697.948
697.948
697.948
697.948
697.948
697.948
697.948
697.948
697.861
686.163
675.774
686.78
697.945
697.948
697.948
697.948
697.948
697.948
697.948
697.948
697.948
697.948
697.948
697.948
697.948
697.948
697.948
697.948
697.948
697.948
697.946
697.946
697.948
697.948
697.948
697.948
697.948
697.948
697.948
697.945
697.946
697.945
697.945
697.948
697.948
697.948
697.948
697.948
697.947
697.948
697.946
697.946
697.948
697.948
697.948
697.948
697.948
697.948
697.948
697.948
697.948
697.948
604.435
686.631
686.525
669.15
669.17
542.391
697.948
697.948
697.948
697.948
697.948
697.948
697.948
697.948
697.947
697.948
697.948
697.948
697.948
697.948
697.948
697.948
697.948
697.948
697.948
697.948
697.948
697.948
697.948
697.948
697.948
697.948
697.948
697.948
697.948
697.948
697.946
697.941
697.948
697.948
697.948
697.948
697.948
697.948
697.948
697.948
697.948
697.948
697.948
697.948
697.948
697.948
697.948
697.948
697.948
697.948
697.948
697.948
697.948
697.948
697.948
697.948
697.853
697.918
697.915
697.94
697.937
697.902
697.818
697.747
697.864
697.948
697.948
697.948
697.948
697.948
697.948
697.948
697.948
697.948
697.948
697.948
697.948
697.948
697.948
697.948
697.948
697.948
697.948
697.948
697.948
697.948
697.805
697.902
697.904
697.893
697.893
697.78
697.948
697.948
697.948
697.948
697.948
697.948
697.948
697.948
697.948
697.948
697.948
697.948
697.948
697.948
697.948
697.948
697.948
697.948
697.948
697.948
697.948
697.896
697.947
697.947
697.924
697.926
697.88
697.241
695.735
696.001
697.948
697.948
697.948
697.948
697.948
697.948
697.948
697.948
697.948
697.915
697.606
697.722
697.727
697.755
697.895
697.948
697.948
697.948
697.948
697.948
697.948
697.948
697.948
697.948
697.946
697.938
697.939
697.92
697.924
697.943
697.948
697.948
697.948
656.475
697.944
697.943
697.48
697.54
628.082
697.93
697.926
644.573
697.948
697.948
697.948
697.948
697.948
697.948
697.931
697.944
697.942
697.948
697.948
697.945
697.948
697.948
697.948
697.944
697.886
697.936
697.948
697.948
697.948
697.943
697.947
697.948
697.905
697.856
697.845
697.947
697.946
697.947
697.948
697.948
697.948
697.948
697.948
697.948
697.945
697.946
697.938
697.78
697.894
697.893
697.911
697.907
697.817
697.948
697.948
697.948
697.595
697.155
697.233
696.686
696.677
697.432
697.279
697.309
697.65
697.947
697.947
697.948
697.695
697.821
697.834
697.898
697.942
697.943
697.841
697.847
697.737
697.948
697.948
697.948
697.862
697.92
697.922
697.906
697.909
697.827
697.948
697.948
697.948
697.652
697.164
697.115
697.628
697.601
697.812
697.446
696.71
696.697
697.07
697.03
697.601
697.945
697.945
697.948
697.82
697.809
697.484
697.948
697.945
697.945
697.868
697.364
697.149
697.783
697.764
697.902
697.838
697.677
697.653
697.068
696.769
697.838
697.869
697.655
697.694
696.267
696.486
697.485
697.947
697.947
697.948
697.882
697.93
697.928
697.939
697.938
697.924
697.55
697.837
697.829
697.926
697.923
697.8
697.948
697.946
697.947
697.936
697.899
697.892
697.925
697.922
697.942
697.916
697.817
697.801
697.885
697.877
697.931
697.939
697.909
697.915
697.751
697.82
697.928
697.932
697.941
697.94
697.948
697.947
697.937
697.948
697.948
697.948
697.947
697.788
697.725
697.765
697.782
697.947
697.944
697.93
697.928
697.947
697.883
697.894
697.948
697.948
697.948
697.948
697.948
697.948
697.948
697.948
697.948
697.948
697.948
697.948
697.948
697.948
697.948
697.948
697.948
697.948
697.948
697.948
697.948
697.939
697.947
697.948
697.947
697.947
697.938
697.135
696.132
696.343
694.384
694.814
696.472
697.948
697.948
697.948
697.948
697.948
697.948
697.898
697.925
697.941
697.948
697.948
697.948
697.948
697.948
697.948
697.948
697.948
697.948
697.925
697.948
697.947
697.947
697.948
697.922
697.948
697.948
697.948
695.098
691.405
690.766
694.209
693.787
696.245
695.817
693.506
693.933
697.948
697.948
697.948
697.944
697.948
697.948
697.948
697.948
697.945
696.713
694.948
694.599
696.311
696.135
697.191
697.947
697.948
697.948
697.948
697.948
697.947
697.948
697.948
697.948
697.948
697.948
697.948
697.948
697.948
697.948
697.948
697.948
697.948
697.948
697.948
697.948
697.948
697.948
697.948
697.948
697.948
697.948
697.948
697.947
697.948
697.948
697.948
697.948
697.945
697.947
697.943
697.948
697.948
697.948
697.363
697.555
697.909
697.921
697.853
697.866
697.656
697.256
697.332
696.529
696.687
697.389
697.445
697.835
697.815
697.867
697.853
697.503
697.944
697.928
697.931
697.744
697.858
697.94
697.899
697.296
697.673
697.338
697.742
697.656
697.944
697.938
697.913
697.948
697.948
697.948
697.921
697.913
697.933
697.942
697.932
697.927
696.689
696.708
697.463
697.439
696.672
696.678
697.489
697.528
697.754
697.712
697.425
697.455
697.645
697.654
697.283
697.943
697.931
697.929
697.936
697.934
697.944
697.94
697.924
697.923
697.928
697.926
697.941
697.274
697.636
697.639
697.906
697.913
697.872
697.948
697.946
697.945
697.947
697.946
697.948
697.946
697.94
697.938
697.943
697.942
697.946
697.789
697.883
697.895
697.402
697.371
697.726
697.762
697.461
697.432
696.821
696.799
697.491
697.53
696.871
696.845
697.712
697.703
697.162
697.939
697.923
697.924
697.921
697.922
697.939
697.94
697.927
697.928
697.925
697.926
697.94
697.209
697.734
697.722
697.939
697.92
697.92
697.922
697.921
697.939
697.938
697.92
697.921
697.92
697.92
697.938
697.685
697.426
697.876
679.828
689.906
690.682
683.032
684.146
668.13
697.897
697.739
697.713
697.826
696.638
696.193
697.312
697.389
697.792
697.706
697.108
697.218
697.883
697.876
697.674
697.942
697.931
697.933
697.929
697.93
697.942
697.944
697.936
697.937
697.934
697.935
697.943
697.753
697.894
697.889
691.358
683.925
682.89
689.998
689.069
693.954
697.845
697.832
697.919
689.169
694.517
694.881
691.325
691.937
683.312
693.149
697.227
697.32
697.002
697.12
692.593
697.928
697.867
697.857
683.541
669.223
667.649
681.674
680.098
689.188
697.895
697.903
697.938
696.192
697.118
697.008
697.586
697.536
697.004
696.877
696.73
695.402
697.931
697.874
697.885
697.435
695.217
694.443
695.982
695.454
697.486
697.377
696.623
696.474
697.7
696.063
696.517
697.399
697.459
697.74
697.948
697.948
697.948
697.948
697.948
697.948
697.947
697.948
697.948
697.948
697.948
697.947
693.382
693.209
640.276
697.925
697.66
697.669
697.775
697.661
697.927
697.945
697.948
697.948
697.948
697.948
697.945
697.948
697.948
697.948
667.23
658.649
607.741
697.396
695.679
695.058
695.853
695.762
697.422
697.571
691.287
689.99
696.471
696.907
697.741
539.488
623.148
645.089
697.948
697.948
697.948
697.948
697.948
697.948
697.948
697.948
697.948
697.948
697.948
697.948
697.948
697.948
697.948
697.948
697.948
697.948
697.926
697.922
697.862
697.947
697.941
697.942
697.939
697.94
697.946
697.841
697.696
697.669
697.898
697.9
697.799
697.944
697.933
697.932
697.934
697.933
697.944
697.943
697.931
697.931
697.932
697.931
697.943
697.783
697.894
697.896
695.344
695.516
697.156
697.934
697.936
697.946
697.793
697.889
697.879
697.905
697.898
697.813
697.943
697.854
697.779
697.853
697.858
697.943
656.484
696.245
695.732
697.948
697.948
697.948
697.948
697.948
697.948
697.948
697.948
697.948
697.871
697.864
697.91
697.948
697.948
697.947
697.948
697.948
697.948
697.948
697.948
697.948
697.948
697.948
697.947
697.948
697.948
697.948
697.942
697.947
697.947
697.897
697.895
697.783
697.944
697.932
697.933
697.931
697.931
697.943
697.945
697.936
697.937
697.934
697.935
697.945
697.804
697.903
697.9
696.902
697.034
697.563
692.417
695.7
695.248
696.426
696.179
694.129
690.669
694.878
694.901
694.852
694.862
690.714
697.431
696.672
696.669
695.223
696.577
696.531
696.617
696.6
695.232
697.662
697.331
697.352
697.748
697.796
697.626
697.908
697.897
697.881
697.877
697.803
697.801
697.809
697.806
697.879
697.944
697.936
697.935
697.937
697.936
697.945
697.834
697.911
697.913
697.26
697.214
697.669
691.331
695.936
696.082
695.616
695.773
690.604
696.739
696.723
697.452
690.543
694.971
694.992
694.927
694.953
690.649
689.236
695.386
695.487
695.244
695.308
689.128
697.587
696.995
696.962
697.888
697.824
697.829
697.817
697.82
697.886
697.876
697.882
697.914
697.445
697.796
697.781
697.872
697.795
697.794
697.798
697.797
697.873
697.88
697.81
697.813
697.804
697.807
697.878
697.562
697.611
697.857
695.791
696.999
696.873
697.223
697.119
696.059
697.542
696.646
696.769
697.933
697.932
697.909
697.945
697.94
697.94
697.938
697.939
697.945
697.946
697.943
697.943
697.941
697.942
697.946
697.921
697.936
697.935
697.91
697.905
697.938
695.911
697.532
697.586
697.4
697.471
695.681
697.212
697.707
697.738
697.632
697.672
697.123
697.941
697.918
697.914
691.154
683.658
682.924
685.221
684.4
691.598
697.935
697.933
697.945
697.491
697.808
697.826
697.765
697.788
697.433
682.163
681.357
689.714
697.948
697.947
697.946
695.686
695.909
697.03
696.646
695.175
695.451
697.947
697.948
697.948
697.948
697.948
697.947
697.945
697.938
697.943
692.449
691.953
695.38
675.686
685.708
686.506
680.395
688.915
689.798
687.278
688.071
678.953
696.059
693.354
692.909
695.508
695.249
696.834
686.381
692.017
692.529
690.649
691.399
685.292
697.946
697.942
697.94
697.946
697.945
697.947
697.935
697.917
697.909
697.937
697.926
697.94
697.656
697.645
697.802
696.874
695.566
695.864
694.989
695.261
696.735
697.301
696.472
696.626
696.115
696.309
697.218
697.068
697.17
697.618
693.942
696.236
696.023
696.566
696.413
694.338
695.781
695.522
692.135
697.459
696.826
696.954
697.607
697.067
697.19
696.735
696.941
697.534
697.869
697.721
697.802
697.352
697.552
697.817
695.954
693.452
693.579
696.883
695.108
696.252
693.817
694.302
696.509
697.896
697.829
697.548
697.938
697.914
697.932
697.849
697.885
697.929
697.928
697.898
697.882
697.94
697.937
697.944
697.876
697.919
697.929
697.899
697.908
697.854
690.791
694.818
694.803
694.982
694.865
690.834
697.478
696.743
696.803
696.669
696.67
697.435
690.831
694.83
694.844
694.804
694.814
690.8
697.374
697.398
697.699
695.208
696.654
696.634
696.708
696.679
695.203
697.895
697.839
697.832
697.863
697.849
697.899
697.304
697.671
697.701
697.629
697.633
697.273
697.885
697.817
697.813
697.826
697.821
697.887
692.726
696.364
696.434
696.197
696.287
692.557
697.713
697.338
697.302
690.281
695.077
695.098
695.019
695.049
690.357
697.48
696.778
696.758
696.931
696.9
697.543
689.742
695.184
695.211
695.121
695.151
689.832
697.897
697.842
697.847
697.833
697.838
697.895
697.156
697.694
697.686
697.764
697.748
697.253
697.907
697.864
697.87
697.852
697.858
697.905
697.871
697.794
697.795
697.794
697.794
697.871
697.874
697.799
697.801
697.796
697.797
697.873
695.762
690.37
689.435
691.759
691.13
696.005
694.527
686.252
685.342
688.364
687.266
694.857
687.847