/*--------------------------------*- C++ -*----------------------------------*\
| =========                 |                                                 |
| \\      /  F ield         | OpenFOAM: The Open Source CFD Toolbox           |
|  \\    /   O peration     | Version:  5.x                                   |
|   \\  /    A nd           | Web:      www.OpenFOAM.org                      |
|    \\/     M anipulation  |                                                 |
\*---------------------------------------------------------------------------*/
FoamFile
{
    version     2.0;
    format      ascii;
    class       volVectorField;
    location    "100";
    object      U;
}
// * * * * * * * * * * * * * * * * * * * * * * * * * * * * * * * * * * * * * //

dimensions      [0 1 -1 0 0 0 0];

internalField   nonuniform List<vector> 
6584
(
(1.00008 -0.000217034 5.11368e-27)
(1.00006 -0.000474945 2.48076e-25)
(1.00007 -0.000641339 2.1944e-30)
(1.00007 -0.000868737 -4.4042e-25)
(1.00009 -0.00110492 0)
(1.00008 -0.00136397 0)
(1.00008 -0.00161866 0)
(1.00003 -0.00178961 4.49676e-25)
(0.999959 -0.00181174 4.59014e-25)
(0.999839 -0.00152499 0)
(0.999716 -0.000721191 2.18483e-25)
(0.999629 0.000547021 -1.39646e-25)
(0.999648 0.00197526 -1.11446e-26)
(0.999771 0.00310743 2.89824e-26)
(0.999919 0.00365253 1.02974e-26)
(1.00007 0.00361136 9.0369e-25)
(1.00015 0.00322829 8.15635e-25)
(1.00018 0.00271284 6.53879e-26)
(1.00017 0.00217455 5.84082e-25)
(1.00015 0.00168586 4.26697e-25)
(1.00013 0.00127872 0)
(1.00011 0.000915931 0)
(1.00009 0.000660197 6.68019e-25)
(1.00011 0.000296502 4.12742e-25)
(1.00034 -0.000457063 -2.42401e-25)
(1.00028 -0.000958658 -9.48972e-25)
(1.00034 -0.00126818 -1.26439e-24)
(1.00036 -0.001728 0)
(1.00041 -0.002204 -1.6366e-25)
(1.00041 -0.00274081 -1.39063e-24)
(1.00037 -0.0032938 -8.44765e-25)
(1.00015 -0.00369245 1.42503e-24)
(0.999854 -0.00380555 -5.3413e-26)
(0.999061 -0.00328048 -3.4522e-25)
(0.998104 -0.00164468 -1.24191e-28)
(0.997482 0.00102675 0)
(0.997609 0.00407686 4.7055e-25)
(0.998465 0.00646092 3.28569e-25)
(0.999616 0.00758412 -1.98055e-24)
(1.00041 0.00744355 -5.25617e-25)
(1.00075 0.00656537 -1.25775e-24)
(1.00088 0.0054546 -1.64303e-24)
(1.00083 0.00432936 -4.34245e-24)
(1.00073 0.0033325 -3.61302e-24)
(1.00061 0.00252302 -2.41794e-25)
(1.00053 0.001797 -1.04594e-25)
(1.00042 0.00132285 0)
(1.00047 0.000619961 3.57873e-25)
(1.00074 -0.000704942 -6.13405e-25)
(1.00069 -0.00142479 0)
(1.00082 -0.00185305 -2.43184e-25)
(1.0009 -0.00254645 -1.64874e-24)
(1.00103 -0.00327404 -2.46924e-24)
(1.00108 -0.00413739 0)
(1.001 -0.00511306 0)
(1.00052 -0.00586714 -3.65574e-25)
(0.99962 -0.00666679 -1.15457e-25)
(0.998246 -0.00472293 1.03419e-25)
(0.996662 -0.00272162 -1.82778e-25)
(0.995422 0.000773491 -2.61122e-25)
(0.995524 0.00505637 0)
(0.997062 0.00850051 0)
(0.99908 0.0101887 4.0498e-26)
(1.00104 0.0120376 -2.27307e-24)
(1.00198 0.0101419 0)
(1.00225 0.00823469 -6.97603e-25)
(1.0021 0.0064 0)
(1.00181 0.00485509 -5.45798e-25)
(1.00149 0.00365231 -1.58078e-24)
(1.00126 0.00257862 -9.69428e-25)
(1.00102 0.00193192 0)
(1.00102 0.000940531 2.79492e-25)
(1.00124 -0.000940271 -3.7791e-25)
(1.00124 -0.00183917 0)
(1.00147 -0.00236242 -3.27033e-25)
(1.00166 -0.00327723 0)
(1.00194 -0.00425971 0)
(1.00213 -0.00551215 0)
(1.0021 -0.00706622 -4.90384e-25)
(1.00146 -0.00857622 4.47761e-24)
(0.999753 -0.0104538 -2.874e-25)
(0.997106 -0.00848363 3.24291e-25)
(0.993687 -0.00616204 -1.90594e-25)
(0.990229 -0.000586201 5.26869e-26)
(0.989837 0.00754325 4.95578e-26)
(0.993465 0.0140429 0)
(0.99814 0.0162378 -3.30977e-24)
(1.00156 0.0151314 0)
(1.00438 0.0140071 0)
(1.00448 0.011017 5.53673e-24)
(1.00402 0.00828282 3.73311e-24)
(1.00334 0.00614919 -1.28371e-24)
(1.00271 0.00457957 -9.20416e-25)
(1.00224 0.0031998 0)
(1.00181 0.00242754 3.95802e-25)
(1.00169 0.00122273 3.35128e-25)
(1.0018 -0.00114275 -1.48074e-25)
(1.0019 -0.00216694 -1.02015e-26)
(1.00226 -0.00275068 -4.80546e-26)
(1.00264 -0.00385601 -7.18033e-26)
(1.00315 -0.00505905 1.81264e-25)
(1.00369 -0.00672797 3.61755e-24)
(1.00394 -0.00898155 -5.42517e-24)
(1.00371 -0.0114772 5.14871e-24)
(1.0003 -0.0124112 2.6065e-25)
(0.996847 -0.0138414 1.50063e-24)
(0.990187 -0.0124666 -2.03796e-25)
(0.98095 -0.0042989 2.84021e-25)
(0.978841 0.0112959 -5.55801e-27)
(0.988026 0.0232022 4.56455e-24)
(0.998208 0.0251274 0)
(1.00417 0.0216169 3.32411e-24)
(1.00626 0.0166249 -8.0271e-25)
(1.00765 0.0130075 -4.81359e-24)
(1.00661 0.00971652 -2.77974e-24)
(1.00529 0.00702145 9.77565e-25)
(1.00421 0.00519432 -7.44938e-26)
(1.00338 0.00358373 -4.61151e-26)
(1.00272 0.00275181 4.56825e-25)
(1.00241 0.00143335 -1.81e-25)
(1.00239 -0.00129238 7.43408e-26)
(1.00262 -0.00237266 -1.94314e-25)
(1.00314 -0.0029647 -1.28835e-26)
(1.00378 -0.00419206 0)
(1.00463 -0.00550021 -7.41187e-25)
(1.00574 -0.00751982 -2.59525e-25)
(1.00656 -0.00996684 -2.15503e-24)
(1.00542 -0.0125877 -5.47393e-25)
(1.00342 -0.016573 2.20175e-24)
(0.999622 -0.0217565 8.44432e-24)
(0.987099 -0.0221131 1.79611e-24)
(0.969538 -0.0141992 2.76609e-28)
(0.960887 0.014005 -6.618e-26)
(0.980725 0.0362745 7.67794e-25)
(1.00188 0.0386433 -7.4465e-24)
(1.01009 0.0292402 0)
(1.01148 0.0210719 4.16585e-28)
(1.01183 0.0142413 1.12756e-24)
(1.00977 0.0104531 3.31961e-25)
(1.00756 0.00730497 1.0149e-24)
(1.0059 0.00537998 -4.2141e-25)
(1.00462 0.00365767 0)
(1.00368 0.00285211 -2.41844e-25)
(1.00313 0.00154119 -3.58209e-25)
(1.00297 -0.00137271 1.18459e-27)
(1.00336 -0.00242978 -8.80283e-26)
(1.00404 -0.00296414 1.13161e-25)
(1.00499 -0.0042152 -1.27513e-27)
(1.00624 -0.00545982 8.35211e-27)
(1.00805 -0.00766695 -1.20834e-24)
(1.00978 -0.010088 -1.64421e-24)
(1.00932 -0.0138133 -8.00901e-26)
(1.00972 -0.0200225 -3.29821e-25)
(1.00799 -0.0298954 1.25784e-24)
(0.993379 -0.0403324 0)
(0.95498 -0.0434095 1.15515e-24)
(0.908355 0.0187597 4.40515e-26)
(0.976322 0.0745085 3.2561e-24)
(1.01067 0.0541156 -6.32426e-26)
(1.02131 0.0356447 0)
(1.01926 0.0234064 2.25832e-24)
(1.01686 0.0138557 2.56337e-25)
(1.01328 0.0100863 2.23408e-25)
(1.00997 0.00680756 -6.95344e-26)
(1.00762 0.00503143 -9.03396e-25)
(1.00583 0.00336614 0)
(1.0046 0.00268988 -2.28386e-25)
(1.00376 0.00152138 -2.34906e-25)
(1.00348 -0.00137503 -9.62423e-26)
(1.00403 -0.00232981 8.29661e-26)
(1.00488 -0.00273675 4.44502e-26)
(1.00612 -0.00389191 3.84176e-26)
(1.00779 -0.00487052 -3.88136e-26)
(1.0103 -0.00693948 5.5769e-25)
(1.01315 -0.00880715 1.26705e-28)
(1.01422 -0.0130454 -2.06249e-25)
(1.01825 -0.0199467 2.10857e-28)
(1.02303 -0.0322122 -3.05161e-24)
(1.01917 -0.0550227 -1.14086e-25)
(0.996807 -0.109949 4.84525e-26)
(1.01553 0.132451 5.83133e-25)
(1.03936 0.0668446 -5.45389e-25)
(1.03793 0.0361258 1.16767e-24)
(1.02903 0.0218757 -2.01869e-25)
(1.02196 0.011254 6.8341e-25)
(1.01662 0.00833207 6.87261e-25)
(1.01219 0.00541889 5.46224e-25)
(1.00915 0.00409945 -3.1799e-25)
(1.00686 0.00269329 0)
(1.00537 0.00225414 0)
(1.00424 0.00136192 -1.78318e-30)
(1.0039 -0.00130203 -1.92138e-26)
(1.00459 -0.00208925 -4.727e-27)
(1.00555 -0.00231212 -1.73922e-26)
(1.00703 -0.00325649 6.62316e-26)
(1.009 -0.00379044 6.96642e-26)
(1.01202 -0.00536512 4.11359e-25)
(1.01579 -0.00617694 1.13858e-24)
(1.01878 -0.00987414 0)
(1.02633 -0.0148359 0)
(1.03847 -0.0233769 0)
(1.05351 -0.0436033 -1.04097e-25)
(1.08829 -0.0893713 1.46856e-26)
(1.1164 0.114983 0)
(1.07743 0.0524728 0)
(1.05426 0.0261111 0)
(1.0381 0.0152563 2.55405e-25)
(1.02589 0.00651953 0)
(1.01909 0.00524114 -7.9162e-25)
(1.01382 0.00323085 -4.84723e-25)
(1.01024 0.00264417 -4.69534e-26)
(1.00757 0.0016878 0)
(1.00588 0.00157337 1.54404e-26)
(1.00449 0.00106855 3.67373e-26)
(1.00419 -0.00116864 4.4201e-27)
(1.00499 -0.00175077 -6.0236e-27)
(1.00599 -0.00176524 6.70361e-27)
(1.00758 -0.00242757 3.35753e-26)
(1.00969 -0.00243952 -8.27502e-26)
(1.01284 -0.00329827 -6.15614e-27)
(1.01697 -0.00290062 -1.0454e-25)
(1.0214 -0.00507172 -7.17297e-27)
(1.03044 -0.00626757 0)
(1.04536 -0.00733513 -2.67013e-25)
(1.0703 -0.013351 1.10937e-30)
(1.12013 -0.0221484 -3.51342e-26)
(1.15959 0.031967 -8.73653e-26)
(1.09894 0.015851 -3.21374e-25)
(1.0624 0.00799862 -2.49026e-24)
(1.04307 0.00484052 0)
(1.02754 0.000643705 -1.69799e-24)
(1.02009 0.00131678 0)
(1.01453 0.000569272 -2.08843e-26)
(1.01071 0.00085234 0)
(1.00783 0.000468293 -2.95744e-26)
(1.00606 0.000717731 4.82789e-27)
(1.00448 0.000666996 -5.21074e-27)
(1.00435 -0.000999205 0)
(1.0052 -0.00137386 -3.71947e-26)
(1.00618 -0.00119691 -3.96952e-26)
(1.00775 -0.00157208 2.67229e-26)
(1.00978 -0.00111858 -7.63365e-27)
(1.01268 -0.0012644 5.01534e-26)
(1.01653 8.63964e-05 3.15067e-25)
(1.02139 -0.000222272 1.62283e-25)
(1.02935 0.00219611 0)
(1.04151 0.00777177 1.31591e-24)
(1.0648 0.0153045 3.95755e-25)
(1.09857 0.0385301 -1.69e-26)
(1.13725 -0.0481906 -3.84907e-26)
(1.09447 -0.0222896 5.643e-25)
(1.0595 -0.0108635 8.71557e-26)
(1.04238 -0.00609719 1.46324e-24)
(1.02657 -0.00497926 7.33546e-24)
(1.01945 -0.00265524 4.07404e-24)
(1.01422 -0.0021061 -2.74592e-24)
(1.01048 -0.00101586 -1.91686e-24)
(1.00762 -0.000802655 6.36762e-26)
(1.00588 -0.000214685 2.69246e-26)
(1.00421 0.00019844 -7.72486e-26)
(1.00441 -0.000821036 2.89786e-27)
(1.00525 -0.00101852 -4.07297e-27)
(1.00615 -0.000702306 -1.25483e-27)
(1.00758 -0.000845757 2.31049e-26)
(1.00938 -8.64304e-05 -3.26169e-34)
(1.01178 0.000282177 1.36218e-25)
(1.01489 0.00209044 5.07761e-25)
(1.01925 0.00326122 1.89881e-25)
(1.02457 0.00766613 0)
(1.03102 0.0162329 -3.64645e-25)
(1.046 0.0299243 -8.68404e-26)
(1.05035 0.0643102 -2.07162e-26)
(1.07705 -0.0951695 8.90536e-27)
(1.07142 -0.046173 0)
(1.04853 -0.0241255 -2.53681e-24)
(1.03699 -0.0144806 1.96672e-24)
(1.0235 -0.00924192 1.09524e-23)
(1.01749 -0.00595797 7.04181e-24)
(1.01301 -0.00438145 0)
(1.00964 -0.00270591 -1.74022e-24)
(1.00696 -0.00197136 -1.0292e-24)
(1.00536 -0.00112134 5.52368e-26)
(1.00369 -0.000290877 -7.75853e-26)
(1.00438 -0.000657663 0)
(1.00518 -0.000729427 4.72809e-27)
(1.00597 -0.000342652 -5.86809e-27)
(1.00722 -0.000343421 -1.64724e-26)
(1.00872 0.000530822 0)
(1.01056 0.00112756 -5.53517e-26)
(1.01279 0.00292558 8.04469e-26)
(1.01622 0.0047754 -3.16051e-26)
(1.0188 0.00923904 -4.96104e-26)
(1.01997 0.0168582 1.91746e-25)
(1.02575 0.0291558 3.76873e-26)
(0.998864 0.0587918 0)
(1.00615 -0.0985319 1.69652e-26)
(1.04298 -0.0516072 -1.8294e-26)
(1.03504 -0.0292462 1.29897e-24)
(1.02941 -0.0188318 1.23727e-25)
(1.01938 -0.0117028 5.1145e-24)
(1.0148 -0.00818286 5.12252e-24)
(1.01122 -0.00601122 0)
(1.00835 -0.00404271 -2.11587e-26)
(1.00598 -0.00292393 3.75083e-25)
(1.00458 -0.00192252 2.20052e-25)
(1.00299 -0.000759133 7.55789e-27)
(1.00432 -0.000524642 0)
(1.00505 -0.000528861 0)
(1.00572 -0.000136919 0)
(1.00679 -8.68412e-05 0)
(1.008 0.000741788 -1.46954e-26)
(1.0094 0.00130266 -1.30092e-26)
(1.01091 0.00276791 -1.52355e-25)
(1.01306 0.00463899 2.58966e-24)
(1.01438 0.00780265 0)
(1.01289 0.0119704 0)
(1.01311 0.0183194 5.76211e-25)
(0.95925 0.0284665 2.19935e-24)
(0.691573 -0.0268284 -6.5169e-26)
(0.957588 -0.0611445 -4.16902e-24)
(1.02128 -0.04313 -6.67154e-25)
(1.02383 -0.0277475 -5.17699e-27)
(1.02204 -0.019522 -2.84546e-26)
(1.01523 -0.0125515 -1.83795e-24)
(1.01195 -0.00929805 1.79179e-25)
(1.00918 -0.00695418 2.95418e-27)
(1.00684 -0.0049555 -1.92893e-24)
(1.00481 -0.00361211 0)
(1.00362 -0.00257017 8.37529e-26)
(1.00215 -0.00117553 -1.66506e-25)
(1.00425 -0.000428513 0)
(1.00491 -0.000417779 -1.77366e-26)
(1.00549 -6.85278e-05 2.48241e-27)
(1.0064 -3.82619e-05 0)
(1.00741 0.000652159 0)
(1.00851 0.00102726 -8.90475e-25)
(1.00962 0.00209854 1.59554e-25)
(1.01145 0.00306391 3.31901e-24)
(1.01214 0.00501731 3.66278e-24)
(1.01069 0.00606858 2.26786e-24)
(1.00934 0.00730297 0)
(0.949747 0.00525981 -2.33092e-25)
(0.869656 -0.0216699 4.19936e-25)
(0.947141 -0.036072 -3.88151e-25)
(1.01049 -0.0282172 3.9233e-25)
(1.01687 -0.0231526 -3.86341e-25)
(1.01424 -0.0160528 5.60921e-25)
(1.01168 -0.0121964 -7.95664e-26)
(1.00935 -0.00950253 -3.66712e-27)
(1.00718 -0.00731053 -5.97888e-27)
(1.0053 -0.00547301 0)
(1.00357 -0.00404149 -9.02583e-25)
(1.00258 -0.00304683 -9.96718e-25)
(1.00126 -0.00152566 -2.35664e-25)
(1.0042 -0.000368632 9.8409e-28)
(1.0048 -0.000383001 -2.07175e-26)
(1.0053 -0.000103288 3.23683e-26)
(1.00611 -0.000135369 4.82891e-30)
(1.007 0.000377819 -1.49443e-25)
(1.00796 0.000524029 -6.22602e-25)
(1.00893 0.00114333 -1.84609e-24)
(1.01072 0.00155579 -2.58782e-24)
(1.01165 0.0022105 -8.56601e-25)
(1.01142 0.00137415 -1.22885e-25)
(1.01005 -0.000788904 0)
(0.950716 -0.0028245 -6.43815e-26)
(0.89383 -0.0159229 -2.94434e-25)
(0.960274 -0.0228719 -1.66151e-25)
(1.00733 -0.0209638 -1.04207e-25)
(1.01323 -0.0185642 -2.02291e-25)
(1.01123 -0.0140649 -3.08045e-24)
(1.00899 -0.0113708 0)
(1.00719 -0.00917442 -3.08966e-25)
(1.00537 -0.00726716 -2.34377e-26)
(1.00383 -0.00566686 -5.3433e-26)
(1.00235 -0.00424886 1.04272e-25)
(1.00153 -0.00335835 0)
(1.00036 -0.00179963 0)
(1.00419 -0.000339984 -9.51372e-28)
(1.00473 -0.000405118 4.7661e-28)
(1.0052 -0.000203936 1.81543e-26)
(1.00595 -0.000316402 0)
(1.00679 1.77092e-05 -6.85262e-26)
(1.00773 -4.9819e-05 0)
(1.00872 0.000174511 -1.22924e-24)
(1.01084 8.20799e-05 1.55354e-25)
(1.01283 -0.000530316 -2.1037e-26)
(1.01324 -0.00145505 -7.15374e-26)
(1.01107 -0.00311559 2.6312e-25)
(0.947147 -0.00346456 -6.87493e-25)
(0.904625 -0.0127163 -6.52871e-25)
(0.959766 -0.0173918 8.42688e-26)
(1.00643 -0.0157451 2.36258e-25)
(1.01141 -0.0149209 1.11138e-25)
(1.0091 -0.0120962 -1.46543e-24)
(1.00699 -0.0102199 1.60433e-24)
(1.00547 -0.00853691 0)
(1.00384 -0.006964 6.52625e-25)
(1.00253 -0.00562992 -1.07589e-26)
(1.00122 -0.00428987 1.48763e-25)
(1.00052 -0.00353253 0)
(0.999495 -0.00200424 0)
(1.00422 -0.000335666 1.80379e-28)
(1.00472 -0.000464121 1.67757e-27)
(1.00518 -0.000337339 -1.59777e-26)
(1.00591 -0.000530661 -2.07591e-27)
(1.00675 -0.000347539 0)
(1.00776 -0.000591415 0)
(1.00884 -0.000583693 8.64544e-26)
(1.01147 -0.00112023 -2.03304e-25)
(1.01389 -0.00165368 1.2142e-25)
(1.01626 -0.00442069 -7.72531e-25)
(1.01047 -0.0041347 0)
(0.952283 -0.00452205 5.95379e-25)
(0.911825 -0.0109509 -8.8017e-25)
(0.960079 -0.0150487 1.05391e-24)
(1.00838 -0.00992404 1.52387e-24)
(1.00965 -0.0111837 1.74648e-24)
(1.00795 -0.0101479 1.40186e-24)
(1.00559 -0.009008 1.39378e-24)
(1.00415 -0.00776618 -1.91463e-25)
(1.00258 -0.00651716 -1.10271e-25)
(1.00141 -0.00543917 -2.95907e-25)
(1.00021 -0.00421411 -1.06851e-24)
(0.999591 -0.00359595 3.86615e-26)
(0.998684 -0.00214655 -3.34443e-26)
(1.00429 -0.000348718 -9.01354e-27)
(1.00476 -0.000543126 2.34107e-27)
(1.00523 -0.000478734 -1.7082e-26)
(1.00598 -0.000745036 -2.69639e-26)
(1.00684 -0.00067119 0)
(1.00796 -0.00105629 0)
(1.00915 -0.00112508 9.87276e-25)
(1.01223 -0.00197243 1.68107e-25)
(1.0151 -0.0022475 -1.62915e-25)
(1.01734 -0.00521656 -1.04762e-24)
(1.00118 -0.00260069 0)
(0.964535 -0.00664112 -2.29517e-24)
(0.917365 -0.00919051 3.38547e-25)
(0.974823 -0.0126467 2.33732e-25)
(1.00794 -0.00805605 2.45741e-25)
(1.00937 -0.00983292 -4.21308e-25)
(1.00738 -0.00856162 -4.42477e-25)
(1.00462 -0.00800744 2.54601e-25)
(1.00317 -0.00699563 -6.6272e-26)
(1.00157 -0.00602593 -1.06679e-24)
(1.00046 -0.00516136 -3.162e-25)
(0.999332 -0.00406648 -1.40505e-24)
(0.998759 -0.00357662 0)
(0.997947 -0.00223739 -1.98144e-25)
(1.0044 -0.000373241 -1.00869e-26)
(1.00486 -0.000629992 -9.55214e-27)
(1.00534 -0.000613069 0)
(1.00611 -0.000942878 -1.97948e-26)
(1.00702 -0.000938758 0)
(1.00825 -0.0014387 -8.1656e-25)
(1.00955 -0.00150599 -8.62013e-26)
(1.01299 -0.00258028 9.85441e-26)
(1.01622 -0.00262773 -1.81458e-25)
(1.01792 -0.00562541 -2.10579e-25)
(1.00127 -0.0027547 -3.61868e-25)
(0.967203 -0.00606991 -1.32036e-24)
(0.919656 -0.00826995 5.66145e-25)
(0.973778 -0.0109982 -2.37557e-25)
(1.00721 -0.00663076 -2.20632e-25)
(1.00918 -0.00862719 -4.91741e-26)
(1.00694 -0.00724367 -2.72298e-25)
(1.0039 -0.00716272 -2.10662e-25)
(1.00242 -0.0062605 -5.77441e-25)
(1.00076 -0.0055404 -1.19253e-25)
(0.999674 -0.00483986 -7.63154e-26)
(0.998578 -0.0038795 -4.49868e-25)
(0.998026 -0.00349925 -1.97326e-25)
(0.99729 -0.0022871 -8.93883e-26)
(1.00454 -0.000404824 0)
(1.005 -0.000716895 -2.41405e-26)
(1.00551 -0.000732617 -1.43003e-26)
(1.00631 -0.00111671 -1.20254e-26)
(1.00727 -0.00114971 9.79403e-26)
(1.00859 -0.00174309 -9.34072e-25)
(1.01 -0.00176819 0)
(1.01374 -0.00300372 -2.34271e-25)
(1.01725 -0.00286613 0)
(1.01827 -0.00574893 0)
(1.00104 -0.00267623 1.25597e-27)
(0.969805 -0.00554239 -8.83846e-27)
(0.921861 -0.00764787 2.54925e-25)
(0.97261 -0.00986128 -1.7091e-25)
(1.00655 -0.00556726 -1.33515e-25)
(1.00906 -0.0076035 -4.09778e-26)
(1.00662 -0.00614823 4.61451e-26)
(1.00337 -0.00642927 -9.04073e-26)
(1.00184 -0.00557529 -1.5422e-25)
(1.0001 -0.00508089 2.95739e-25)
(0.999024 -0.00449973 -7.97717e-26)
(0.997939 -0.00367435 0)
(0.997392 -0.00338247 2.66723e-30)
(0.996713 -0.00230449 0)
(1.00471 -0.000440561 0)
(1.00517 -0.0007993 -3.22406e-26)
(1.00571 -0.000834519 -1.80926e-26)
(1.00654 -0.00126421 4.24143e-26)
(1.00755 -0.00130989 0)
(1.00896 -0.00197793 5.81792e-26)
(1.01048 -0.00194276 -6.27382e-25)
(1.01447 -0.00328641 -4.64773e-25)
(1.01817 -0.00299871 -1.01466e-26)
(1.01842 -0.00571809 -3.01585e-28)
(1.00055 -0.00248054 4.02175e-25)
(0.972199 -0.00502329 -2.083e-25)
(0.92385 -0.00719445 3.68884e-25)
(0.971297 -0.00904445 -1.23284e-25)
(1.00585 -0.00476237 1.08454e-25)
(1.00897 -0.00675569 -3.16039e-27)
(1.00641 -0.00523818 -1.10782e-25)
(1.00299 -0.0057933 5.10178e-26)
(1.00139 -0.00495081 2.10321e-25)
(0.999583 -0.00465662 -4.13428e-30)
(0.998488 -0.00415729 -3.93134e-26)
(0.997402 -0.00346421 -2.97805e-25)
(0.996848 -0.00323975 1.50464e-25)
(0.996213 -0.00229651 1.41291e-25)
(1.0049 -0.000478961 -1.88802e-26)
(1.00536 -0.000875206 -3.83117e-26)
(1.00593 -0.000919395 -4.2485e-34)
(1.00679 -0.00138638 9.63445e-26)
(1.00786 -0.00142829 2.19233e-25)
(1.00933 -0.00215436 4.38249e-26)
(1.01096 -0.00205583 -6.38666e-25)
(1.01516 -0.00346863 -3.88145e-25)
(1.01899 -0.00306028 2.528e-25)
(1.01837 -0.00558714 0)
(0.999897 -0.00223992 7.91819e-26)
(0.974476 -0.00452931 -5.89462e-26)
(0.925724 -0.00682606 1.234e-25)
(0.969872 -0.0084326 -9.6908e-26)
(1.00505 -0.00414173 -1.73263e-31)
(1.00886 -0.00604536 -1.30711e-25)
(1.00627 -0.00447108 -9.0038e-26)
(1.00271 -0.00523868 -1.91696e-26)
(1.00104 -0.0043873 1.1367e-25)
(0.999173 -0.00426934 -1.87451e-25)
(0.998048 -0.00382228 -2.44575e-25)
(0.996957 -0.00325653 -1.26939e-25)
(0.996387 -0.00308075 -1.3025e-25)
(0.995786 -0.00226827 1.24481e-25)
(1.00511 -0.000519654 -1.16573e-34)
(1.00558 -0.000944439 -2.13095e-26)
(1.00618 -0.000989933 2.306e-26)
(1.00706 -0.00148615 5.13946e-26)
(1.00819 -0.00151492 1.04594e-29)
(1.00971 -0.00228382 0)
(1.01145 -0.0021283 -3.83238e-27)
(1.0158 -0.00357999 -3.59206e-25)
(1.01968 -0.00307555 2.18847e-25)
(1.01815 -0.00538375 0)
(0.999139 -0.0019796 -6.62726e-31)
(0.976702 -0.00405923 4.41511e-26)
(0.927578 -0.00650265 -1.14352e-25)
(0.968383 -0.00796753 0)
(1.00415 -0.00365823 2.211e-26)
(1.0087 -0.00544354 2.90533e-26)
(1.00617 -0.00381287 0)
(1.00252 -0.00474815 2.72039e-26)
(1.00077 -0.00387913 3.80723e-26)
(0.998851 -0.00391591 -4.16195e-25)
(0.997688 -0.00349947 -1.02477e-25)
(0.99659 -0.00305444 1.08183e-25)
(0.996 -0.00291154 -1.28337e-25)
(0.995425 -0.00222313 0)
(1.00533 -0.000563256 2.19861e-26)
(1.0058 -0.00100797 -2.27369e-26)
(1.00643 -0.00104993 0)
(1.00734 -0.00156726 1.91496e-26)
(1.00852 -0.00157921 1.87851e-26)
(1.01007 -0.0023767 2.31302e-26)
(1.01193 -0.00217648 0)
(1.0164 -0.0036412 6.7113e-27)
(1.02025 -0.00306106 1.84882e-25)
(1.01778 -0.00512819 0)
(0.998305 -0.00171334 5.22973e-26)
(0.978899 -0.00360625 2.22498e-26)
(0.929461 -0.00619526 -8.48078e-26)
(0.966863 -0.00761053 1.57307e-26)
(1.00315 -0.00327883 -1.47712e-26)
(1.00849 -0.00492981 -3.82636e-27)
(1.00609 -0.00323807 2.99366e-26)
(1.0024 -0.00430705 -1.11655e-26)
(1.00055 -0.00341899 -6.93429e-28)
(0.998605 -0.00359105 -1.55101e-25)
(0.997395 -0.00319064 5.52638e-26)
(0.996293 -0.0028583 7.44708e-26)
(0.995677 -0.00273595 -1.52761e-26)
(0.995125 -0.00216295 -2.24773e-27)
(1.00555 -0.00061102 -7.93822e-28)
(1.00603 -0.00106752 -2.77527e-26)
(1.00669 -0.00110352 -1.85721e-27)
(1.00761 -0.00163372 0)
(1.00885 -0.00162972 4.61765e-25)
(1.01043 -0.00244161 0)
(1.0124 -0.00221248 -2.8189e-25)
(1.01696 -0.00366619 0)
(1.0207 -0.00302473 1.60711e-25)
(1.01726 -0.00482967 5.8758e-26)
(0.997414 -0.00145026 0)
(0.981052 -0.00316939 1.80507e-26)
(0.931408 -0.00588998 0)
(0.96535 -0.00733549 1.2423e-26)
(1.00205 -0.002979 -4.13877e-27)
(1.0082 -0.00448713 0)
(1.00602 -0.00272753 0)
(1.00232 -0.00390285 -8.65718e-27)
(1.00039 -0.00299998 1.29916e-26)
(0.998421 -0.00328901 0)
(0.997158 -0.00289558 0)
(0.996055 -0.00266668 4.71207e-26)
(0.99541 -0.0025558 7.11457e-27)
(0.994879 -0.00208845 -4.20341e-26)
(1.00578 -0.000664576 7.06017e-28)
(1.00626 -0.00112512 1.15343e-27)
(1.00695 -0.00115483 0)
(1.00788 -0.00168932 -5.77315e-27)
(1.00919 -0.00167359 2.27088e-25)
(1.01077 -0.0024856 1.08272e-26)
(1.01286 -0.00224524 -2.67919e-25)
(1.01745 -0.00366458 -3.07721e-29)
(1.02102 -0.00297183 0)
(1.0166 -0.00450001 7.04771e-26)
(0.996486 -0.00119558 0)
(0.983146 -0.00275114 0)
(0.933442 -0.00558071 0)
(0.963891 -0.00711754 8.36311e-26)
(1.00085 -0.00273828 6.88258e-26)
(1.00783 -0.00410156 0)
(1.00595 -0.00226758 -4.3867e-27)
(1.0023 -0.00352539 0)
(1.00026 -0.00261581 0)
(0.998289 -0.00300365 0)
(0.996968 -0.00261307 0)
(0.995869 -0.0024774 -2.57704e-26)
(0.995192 -0.0023718 -2.57452e-26)
(0.994681 -0.00199974 1.15905e-31)
(1.00601 -0.0007256 0)
(1.00648 -0.0011828 1.20471e-26)
(1.00721 -0.00120758 -1.41189e-26)
(1.00814 -0.00173737 2.56681e-26)
(1.00951 -0.00171657 2.20065e-25)
(1.01111 -0.00251412 4.40161e-25)
(1.01331 -0.00228126 0)
(1.01789 -0.00364291 0)
(1.0212 -0.00290578 1.65569e-26)
(1.01584 -0.00414772 -1.86049e-26)
(0.995547 -0.000953093 -3.11877e-33)
(0.985194 -0.0023507 1.02279e-25)
(0.935567 -0.00525143 5.54559e-26)
(0.9625 -0.00693572 6.97858e-26)
(0.999579 -0.00254643 1.78964e-27)
(1.00738 -0.00377046 0)
(1.00586 -0.00184995 -6.84685e-26)
(1.00231 -0.00316744 -6.28251e-26)
(1.00017 -0.00226031 0)
(0.998203 -0.00272965 -5.96083e-26)
(0.996818 -0.00234135 -6.92139e-41)
(0.995726 -0.00228773 7.14939e-26)
(0.995015 -0.00218398 4.55346e-26)
(0.994525 -0.00189621 3.60369e-26)
(1.00623 -0.000795471 -2.4161e-26)
(1.0067 -0.00124226 1.11848e-26)
(1.00746 -0.00126468 -1.23988e-26)
(1.0084 -0.00178062 4.99789e-26)
(1.00984 -0.00176296 2.14027e-25)
(1.01143 -0.00253123 8.31366e-25)
(1.01374 -0.00232475 0)
(1.01826 -0.00360456 0)
(1.02125 -0.00282801 1.50019e-26)
(1.01498 -0.00377757 0)
(0.994612 -0.00072345 0)
(0.987186 -0.0019675 0)
(0.937797 -0.00489899 0)
(0.961196 -0.00678104 -5.7831e-26)
(0.998225 -0.00239586 -4.24867e-26)
(1.00684 -0.00348688 -5.53952e-26)
(1.00573 -0.00146901 -1.04872e-25)
(1.00236 -0.00282369 -5.09935e-26)
(1.00011 -0.00192952 0)
(0.998156 -0.00246283 -1.89432e-26)
(0.996703 -0.00207883 0)
(0.995621 -0.00209522 0)
(0.994875 -0.00199197 1.96894e-26)
(0.994405 -0.00177723 2.69733e-27)
(1.00645 -0.000875048 -2.31406e-26)
(1.00692 -0.00130474 -1.28064e-26)
(1.0077 -0.00132816 -2.73862e-28)
(1.00865 -0.0018209 2.46944e-27)
(1.01015 -0.00181523 -6.1147e-34)
(1.01174 -0.0025396 3.92878e-25)
(1.01417 -0.0023767 0)
(1.01855 -0.00355003 -1.85236e-26)
(1.02116 -0.00273865 1.18831e-26)
(1.01403 -0.00339382 1.59559e-26)
(0.993697 -0.000508203 2.39243e-26)
(0.989103 -0.00160341 6.8058e-26)
(0.940135 -0.00452345 1.59476e-26)
(0.960006 -0.0066457 0)
(0.996803 -0.00228078 0)
(1.0062 -0.00324578 -7.79338e-28)
(1.00556 -0.00112256 4.19748e-26)
(1.00244 -0.00249105 1.70781e-31)
(1.00009 -0.00162097 -3.993e-26)
(0.998141 -0.00220016 0)
(0.996617 -0.00182429 0)
(0.995548 -0.00189807 1.11058e-26)
(0.994766 -0.00179549 0)
(0.994316 -0.00164242 0)
(1.00665 -0.000964476 0)
(1.00712 -0.00137067 -2.32228e-26)
(1.00794 -0.00139891 -1.20934e-26)
(1.00889 -0.00185917 -2.44431e-26)
(1.01046 -0.00187462 0)
(1.01205 -0.00254024 0)
(1.01457 -0.00243518 0)
(1.01875 -0.00347843 -2.26695e-26)
(1.02094 -0.00263708 0)
(1.01301 -0.00300049 -2.52116e-27)
(0.992814 -0.000309635 7.64535e-27)
(0.990928 -0.00126207 2.61493e-26)
(0.94258 -0.00412615 1.08671e-26)
(0.958955 -0.00652099 7.7148e-26)
(0.99533 -0.00219675 2.55396e-26)
(1.00547 -0.00304385 0)
(1.00533 -0.000811426 -3.29317e-26)
(1.00254 -0.00216881 -2.58071e-26)
(1.00008 -0.00133374 0)
(0.998153 -0.00193997 0)
(0.996557 -0.00157719 0)
(0.995502 -0.00169513 9.83158e-27)
(0.994682 -0.00159458 0)
(0.994251 -0.00149193 0)
(1.00685 -0.00106283 2.52907e-28)
(1.00731 -0.00143966 -2.16149e-26)
(1.00816 -0.00147646 9.68814e-29)
(1.00912 -0.00189553 0)
(1.01075 -0.00194038 -6.93484e-27)
(1.01235 -0.00253183 -1.10311e-28)
(1.01495 -0.00249638 0)
(1.01886 -0.00338757 -1.09445e-26)
(1.02059 -0.00252233 6.96251e-27)
(1.01193 -0.00260259 9.85475e-27)
(0.991979 -0.000132017 -2.53158e-27)
(0.992644 -0.000949784 1.78727e-26)
(0.945124 -0.00371001 1.26059e-26)
(0.958065 -0.0063966 1.12521e-27)
(0.993819 -0.00213876 -5.41825e-28)
(1.00464 -0.00287806 2.7751e-26)
(1.00502 -0.000538826 4.54312e-28)
(1.00266 -0.00185895 -1.29087e-27)
(1.00009 -0.00106862 0)
(0.998186 -0.00168234 -9.17754e-27)
(0.996518 -0.00133801 -1.96795e-26)
(0.995477 -0.00148635 0)
(0.994621 -0.00138994 1.58097e-26)
(0.994207 -0.0013266 -1.04232e-26)
(1.00702 -0.00116802 0)
(1.0075 -0.00151028 -1.1485e-26)
(1.00837 -0.00155924 -1.24743e-28)
(1.00934 -0.00192934 -4.66342e-28)
(1.01102 -0.00200909 0)
(1.01263 -0.00251263 1.75316e-25)
(1.0153 -0.0025549 -4.19303e-26)
(1.01887 -0.00327396 -1.14282e-26)
(1.02011 -0.00239255 -4.5525e-27)
(1.01083 -0.00220453 -4.84327e-27)
(0.991206 1.98984e-05 -6.58658e-27)
(0.994229 -0.000673929 1.76549e-26)
(0.947738 -0.00327929 2.26962e-27)
(0.957353 -0.0062628 9.20026e-28)
(0.992294 -0.00210268 -1.54414e-26)
(1.00373 -0.00274603 -2.06999e-26)
(1.00463 -0.00030955 6.02722e-28)
(1.00279 -0.00156522 -1.04873e-27)
(1.00012 -0.000827594 0)
(0.998234 -0.00142837 -3.37572e-27)
(0.996496 -0.00110798 -1.51405e-26)
(0.995468 -0.00127256 0)
(0.994576 -0.00118303 6.73129e-27)
(0.994177 -0.00114808 -9.31958e-27)
(1.00719 -0.00127678 -1.08494e-26)
(1.00767 -0.0015802 1.10867e-26)
(1.00857 -0.00164435 -2.24099e-26)
(1.00955 -0.00195802 -2.99709e-28)
(1.01128 -0.00207562 -6.66331e-27)
(1.0129 -0.00247772 1.67258e-25)
(1.01562 -0.00259675 -2.30842e-26)
(1.01877 -0.00312629 -5.32432e-27)
(1.0195 -0.00224436 -3.05946e-27)
(1.00969 -0.00182017 2.32913e-27)
(0.990512 0.000124972 1.61281e-26)
(0.995683 -0.000461165 6.11207e-27)
(0.950439 -0.00283788 3.3185e-28)
(0.956847 -0.00608474 0)
(0.990756 -0.00206868 -1.58284e-26)
(1.00273 -0.00264365 -1.41999e-26)
(1.00414 -0.00013607 5.21547e-28)
(1.00291 -0.00130003 0)
(1.00015 -0.000616197 1.37243e-27)
(0.99829 -0.00118166 1.30678e-27)
(0.996484 -0.00088976 -1.08925e-26)
(0.99547 -0.00105563 -1.44258e-27)
(0.994545 -0.000976013 4.21131e-27)
(0.994157 -0.000958682 0)
(1.00732 -0.00138294 -9.59904e-27)
(1.00782 -0.0016452 1.00848e-26)
(1.00873 -0.00172745 -9.88641e-27)
(1.00973 -0.00197979 0)
(1.0115 -0.00213838 0)
(1.01314 -0.00243029 -3.76609e-26)
(1.01588 -0.00262607 1.52801e-26)
(1.01861 -0.00295248 -1.34825e-26)
(1.01889 -0.00207449 -4.25977e-27)
(1.00866 -0.00143513 -4.44933e-27)
(0.98993 0.000201602 -2.34922e-26)
(0.996894 -0.000296113 0)
(0.95293 -0.00239607 0)
(0.956514 -0.00589694 0)
(0.989354 -0.00205808 0)
(1.00178 -0.00257298 2.59052e-27)
(1.00363 -1.3884e-05 0)
(1.00304 -0.00105602 0)
(1.00019 -0.000433189 1.40136e-27)
(0.998349 -0.000941644 0)
(0.996479 -0.000686309 0)
(0.99548 -0.000837613 0)
(0.994524 -0.000772953 3.99384e-27)
(0.994146 -0.000761915 0)
(1.00748 -0.00148496 0)
(1.00802 -0.00170479 -5.36637e-28)
(1.00893 -0.00180639 -6.76367e-28)
(1.00998 -0.00199093 -2.52094e-28)
(1.01174 -0.00218544 -2.56842e-27)
(1.01342 -0.00234456 -5.91496e-26)
(1.01609 -0.00254632 -2.56352e-26)
(1.01817 -0.00263492 8.56038e-31)
(1.01786 -0.00183723 1.24763e-34)
(1.00734 -0.00115726 8.59308e-33)
(0.989419 1.74142e-05 -9.32006e-26)
(0.998256 -0.000475717 0)
(0.956199 -0.00190401 1.68324e-26)
(0.956492 -0.00528133 1.2264e-25)
(0.987568 -0.00187355 -4.87002e-26)
(1.00042 -0.00254772 6.10543e-27)
(1.00269 -6.71317e-05 0)
(1.00312 -0.00094069 0)
(1.00016 -0.000303282 0)
(0.998424 -0.000721187 0)
(0.99646 -0.000501786 0)
(0.995499 -0.000621321 0)
(0.994499 -0.000575254 2.12704e-27)
(0.994128 -0.000559789 0)
(1.08002 -0.0965384 2.01404e-26)
(1.11059 0.133822 7.32853e-26)
(1.00593 0.147312 3.34036e-25)
(1.11924 -0.0310455 -3.45288e-26)
(1.16274 0.045251 -1.3552e-26)
(1.1215 0.124698 -6.08701e-26)
(1.1034 0.0327602 -1.54112e-26)
(1.14227 -0.0531715 -1.60682e-25)
(1.16403 0.0323117 -4.42736e-26)
(1.05688 0.0629119 -7.42837e-26)
(1.08231 -0.101031 2.46014e-25)
(1.13624 -0.061952 0)
(1.005 0.0609061 6.90695e-30)
(1.00555 -0.110728 -1.43714e-25)
(1.07284 -0.104739 1.2903e-25)
(0.963068 0.0329001 0)
(0.796436 0.00676582 -8.28126e-26)
(0.670517 -0.0303274 1.32062e-25)
(0.942894 -0.0747198 9.49175e-25)
(0.995989 -0.108579 -2.1396e-25)
(0.98513 -0.103884 1.79288e-25)
(0.908671 -0.00173976 4.36667e-26)
(0.991589 0.139099 4.70515e-25)
(0.957215 0.0655557 1.03398e-24)
(1.04589 -0.0490699 -1.25702e-25)
(1.07482 -0.0863569 5.78866e-27)
(1.005 -0.0987158 -2.38585e-25)
(1.05762 0.239274 0)
(0.936486 0.222519 -2.65599e-25)
(1.10629 0.122814 0)
(1.07382 0.0710472 1.10144e-26)
(1.03749 0.0784619 -1.38208e-24)
(1.06832 -0.0215385 1.27278e-25)
(1.11265 -0.0289204 -3.24323e-26)
(1.08242 -0.080091 6.67101e-27)
(1.10695 -0.0655146 -6.11888e-27)
(1.1257 -0.0744357 5.53445e-27)
(1.11603 -0.118976 -7.01202e-27)
(1.13455 0.0962552 7.74459e-26)
(1.12572 0.167041 2.89658e-26)
(1.15774 0.043408 6.07552e-27)
(1.10613 0.0318712 -3.86185e-25)
(1.0845 0.0635733 1.53532e-25)
(1.0679 0.00917768 2.61579e-25)
(1.10132 0.0270037 1.35703e-26)
(1.11385 -0.0208698 -2.04787e-28)
(1.11742 0.00380345 2.20386e-30)
(1.10378 0.0188581 -3.35203e-26)
(1.12002 -0.0228677 -6.1052e-28)
(1.09565 -0.0174708 2.03754e-27)
(1.12683 0.0458627 -3.83463e-26)