/*--------------------------------*- C++ -*----------------------------------*\
| =========                 |                                                 |
| \\      /  F ield         | OpenFOAM: The Open Source CFD Toolbox           |
|  \\    /   O peration     | Version:  5.x                                   |
|   \\  /    A nd           | Web:      www.OpenFOAM.org                      |
|    \\/     M anipulation  |                                                 |
\*---------------------------------------------------------------------------*/
FoamFile
{
    version     2.0;
    format      ascii;
    class       volScalarField;
    location    "100";
    object      xf;
}
// * * * * * * * * * * * * * * * * * * * * * * * * * * * * * * * * * * * * * //

dimensions      [0 0 0 0 0 0 0];

internalField   nonuniform List<scalar> 
6584
(
0.0538327
0.0538326
0.0538327
0.0538327
0.0538327
0.0538327
0.0538327
0.0538328
0.0538328
0.0538328
0.0538329
0.0538329
0.0538329
0.0538328
0.0538328
0.0538328
0.0538328
0.0538327
0.0538327
0.0538327
0.0538326
0.0538326
0.0538326
0.0538326
0.0537739
0.053774
0.0537739
0.053774
0.053774
0.0537741
0.0537742
0.0537743
0.0537744
0.0537745
0.0537745
0.0537745
0.0537745
0.0537745
0.0537745
0.0537744
0.0537743
0.0537743
0.0537742
0.0537741
0.053774
0.0537739
0.0537739
0.0537738
0.0537151
0.0537152
0.0537153
0.0537152
0.0537153
0.0537154
0.0537156
0.0537159
0.0537161
0.0537452
0.0537452
0.0537452
0.0537452
0.0537452
0.0537452
0.053716
0.0537158
0.0537157
0.0537155
0.0537154
0.0537153
0.0537153
0.0537152
0.0537151
0.0536565
0.0536565
0.0536566
0.0536566
0.0536567
0.0536568
0.053657
0.0536573
0.0536576
0.0536867
0.0536865
0.0536864
0.0536864
0.0536865
0.0536866
0.0536867
0.0536572
0.0536571
0.0536569
0.0536568
0.0536567
0.0536566
0.0536565
0.0536565
0.0535978
0.0535979
0.053598
0.0535981
0.0535982
0.0535982
0.0535983
0.0535984
0.053628
0.053628
0.0536276
0.0536272
0.0536271
0.0536272
0.0536277
0.0536279
0.0536279
0.0535988
0.0535985
0.0535983
0.0535982
0.0535981
0.0535979
0.0535979
0.0535392
0.0535393
0.0535394
0.0535395
0.0535397
0.0535398
0.05354
0.0535691
0.053569
0.0535686
0.053583
0.0535821
0.0535818
0.0535825
0.0535686
0.0535693
0.0535695
0.0535407
0.0535402
0.05354
0.0535397
0.0535395
0.0535394
0.0535393
0.0534807
0.0534807
0.0534809
0.053481
0.0534812
0.0534815
0.0534819
0.0535108
0.0535105
0.05351
0.0535228
0.0535285
0.0535272
0.0535215
0.0535244
0.0535111
0.0535115
0.053483
0.0534821
0.0534817
0.0534814
0.0534811
0.0534809
0.0534808
0.0534222
0.0534223
0.0534224
0.0534226
0.0534229
0.0534233
0.0534241
0.0534526
0.0534525
0.0534524
0.0534638
0.0534661
0.0534672
0.0534659
0.0534536
0.0534538
0.0534255
0.0534242
0.0534236
0.0534231
0.0534228
0.0534225
0.0534224
0.0533637
0.0533638
0.0533641
0.0533644
0.0533648
0.0533653
0.0533664
0.0533949
0.053395
0.0533958
0.0534069
0.0534091
0.0534096
0.0534093
0.0533972
0.0533968
0.0533682
0.0533664
0.0533656
0.053365
0.0533645
0.0533641
0.0533639
0.0533053
0.0533055
0.0533057
0.0533061
0.0533067
0.0533074
0.0533088
0.0533373
0.053338
0.0533396
0.0533515
0.0533552
0.0533565
0.0533546
0.0533414
0.0533401
0.0533111
0.0533087
0.0533076
0.0533068
0.0533062
0.0533058
0.0533055
0.0532469
0.0532471
0.0532474
0.0532479
0.0532486
0.0532494
0.0532512
0.0532798
0.053281
0.0532835
0.0532963
0.0533012
0.053304
0.0533003
0.0532858
0.0532835
0.0532539
0.0532512
0.0532497
0.0532487
0.053248
0.0532475
0.0532471
0.0531885
0.0531887
0.0531891
0.0531897
0.0531905
0.0531916
0.0531935
0.0532222
0.0532239
0.0532269
0.0532403
0.0532451
0.0532492
0.0532451
0.0532298
0.0532268
0.0531966
0.0531936
0.0531919
0.0531906
0.0531897
0.0531891
0.0531887
0.0531301
0.0531304
0.0531309
0.0531315
0.0531324
0.0531337
0.0531358
0.0531645
0.0531665
0.0531697
0.0531829
0.0531862
0.0531903
0.053188
0.0531731
0.0531697
0.0531392
0.0531358
0.0531339
0.0531324
0.0531313
0.0531307
0.0531303
0.0530717
0.053072
0.0530726
0.0530733
0.0530743
0.0530757
0.0530779
0.0530783
0.0531084
0.0531113
0.053123
0.0531225
0.0202256
0.0531202
0.0531293
0.0531155
0.0531121
0.0530815
0.053078
0.0530759
0.0530741
0.053073
0.0530722
0.0530718
0.0530133
0.0530137
0.0530143
0.0530151
0.0530162
0.0530175
0.0530196
0.0530195
0.0530494
0.0530522
0.0530631
0.0530525
0.0416493
0.0530575
0.0530543
0.0530571
0.0530236
0.0530231
0.0530195
0.0530175
0.053016
0.0530147
0.0530138
0.0530132
0.0529549
0.0529553
0.0529559
0.0529568
0.0529579
0.0529593
0.0529611
0.052961
0.0529908
0.0529939
0.0529891
0.0529913
0.0418286
0.0529827
0.0529945
0.0529984
0.0529652
0.0529648
0.0529611
0.052959
0.0529573
0.052956
0.0529552
0.0529546
0.0528964
0.0528969
0.0528975
0.0528985
0.0528996
0.0529009
0.0529028
0.0529027
0.0529043
0.0529353
0.0529297
0.0528389
0.0466419
0.0529209
0.0529347
0.0529394
0.0529064
0.0529064
0.0529026
0.0529004
0.0528986
0.0528973
0.0528965
0.0528957
0.052838
0.0528385
0.0528392
0.0528401
0.0528413
0.0528424
0.0528444
0.0528445
0.0528459
0.0528448
0.0528703
0.0527206
0.0466033
0.0528593
0.0528484
0.0528493
0.0528476
0.0528479
0.0528441
0.0528418
0.05284
0.0528386
0.0528377
0.0528369
0.0527795
0.0527801
0.0527808
0.0527818
0.052783
0.0527841
0.0527863
0.0527862
0.0527876
0.0527861
0.0527706
0.0481572
0.049573
0.0527733
0.0527888
0.0527902
0.0527887
0.0527892
0.0527855
0.0527831
0.0527812
0.0527798
0.0527789
0.052778
0.0527211
0.0527216
0.0527224
0.0527234
0.0527246
0.0527258
0.0527281
0.052728
0.0527292
0.0527273
0.0527053
0.0481065
0.0495174
0.0527114
0.0527292
0.0527311
0.0527298
0.0527306
0.0527268
0.0527244
0.0527225
0.052721
0.0527201
0.0527191
0.0526626
0.0526632
0.0526639
0.052665
0.0526663
0.0526675
0.0526699
0.0526697
0.0526708
0.0526685
0.052641
0.0480547
0.0494605
0.0526493
0.0526696
0.0526721
0.0526709
0.052672
0.0526681
0.0526656
0.0526637
0.0526622
0.0526612
0.0526602
0.0526041
0.0526047
0.0526055
0.0526066
0.052608
0.0526093
0.0526117
0.0526114
0.0526125
0.0526097
0.0525776
0.0480021
0.0494027
0.052587
0.0526101
0.052613
0.052612
0.0526133
0.0526094
0.0526069
0.0526049
0.0526034
0.0526024
0.0526013
0.0525456
0.0525463
0.0525471
0.0525482
0.0525496
0.052551
0.0525536
0.0525531
0.0525541
0.0525509
0.0525149
0.047949
0.0493439
0.0525245
0.0525506
0.0525539
0.052553
0.0525546
0.0525507
0.0525481
0.0525461
0.0525446
0.0525435
0.0525424
0.0524871
0.0524878
0.0524886
0.0524898
0.0524913
0.0524927
0.0524954
0.0524949
0.0524957
0.0524921
0.0524529
0.0478955
0.0492845
0.0524619
0.0524911
0.0524949
0.0524941
0.0524959
0.0524919
0.0524893
0.0524873
0.0524857
0.0524846
0.0524835
0.0524286
0.0524293
0.0524302
0.0524314
0.0524329
0.0524344
0.0524372
0.0524366
0.0524374
0.0524334
0.0523914
0.0478418
0.0492244
0.0523992
0.0524316
0.0524358
0.0524352
0.0524372
0.0524332
0.0524305
0.0524285
0.0524268
0.0524257
0.0524246
0.0523702
0.0523709
0.0523717
0.052373
0.0523746
0.0523762
0.0523789
0.0523782
0.052379
0.0523746
0.0523296
0.0477869
0.0491644
0.052337
0.0523721
0.0523768
0.0523762
0.0523785
0.0523745
0.0523718
0.0523696
0.052368
0.0523669
0.0523657
0.0523117
0.0523124
0.0523133
0.0523146
0.0523162
0.0523179
0.0523207
0.0523199
0.0523206
0.0523158
0.0522676
0.0477312
0.0491054
0.0522758
0.0523128
0.0523178
0.0523174
0.0523199
0.0523159
0.0523131
0.0523109
0.0523092
0.0523081
0.0523069
0.0522532
0.0522539
0.0522548
0.0522562
0.0522578
0.0522596
0.0522625
0.0522616
0.0522622
0.0522571
0.0522059
0.0476753
0.0490461
0.0522145
0.0522534
0.0522588
0.0522586
0.0522613
0.0522572
0.0522544
0.0522522
0.0522504
0.0522493
0.0522482
0.0521947
0.0521954
0.0521964
0.0521977
0.0521994
0.0522013
0.0522043
0.0522032
0.0522038
0.0521984
0.0521447
0.0476193
0.0489864
0.0521533
0.0521941
0.0521999
0.0521997
0.0522027
0.0521986
0.0521957
0.0521934
0.0521917
0.0521905
0.0521894
0.0521361
0.0521369
0.0521379
0.0521393
0.052141
0.0521429
0.052146
0.0521449
0.0521454
0.0521396
0.0520836
0.0475632
0.0489264
0.052092
0.0521347
0.0521409
0.0521409
0.0521441
0.0521399
0.052137
0.0521347
0.0521329
0.0521317
0.0521306
0.0520776
0.0520784
0.0520794
0.0520809
0.0520826
0.0520846
0.0520878
0.0520866
0.052087
0.0520809
0.0520228
0.047507
0.0488663
0.0520308
0.0520754
0.0520819
0.052082
0.0520855
0.0520812
0.0520783
0.052076
0.0520741
0.0520729
0.0520718
0.0520191
0.0520199
0.052021
0.0520224
0.0520242
0.0520263
0.0520296
0.0520282
0.0520286
0.0520221
0.0519621
0.0474507
0.0488059
0.0519697
0.0520161
0.0520229
0.0520231
0.0520268
0.0520226
0.0520195
0.0520172
0.0520154
0.0520141
0.052013
0.0519606
0.0519614
0.0519625
0.0519639
0.0519658
0.0519681
0.0519714
0.0519699
0.0519701
0.0519634
0.0519015
0.0473943
0.0487455
0.0519086
0.0519567
0.0519639
0.0519643
0.0519682
0.0519639
0.0519608
0.0519584
0.0519566
0.0519553
0.0519542
0.0519021
0.0519029
0.051904
0.0519054
0.0519074
0.0519098
0.0519132
0.0519115
0.0519116
0.0519046
0.051841
0.0473379
0.048685
0.0518476
0.0518974
0.0519049
0.0519054
0.0519095
0.0519052
0.0519021
0.0518997
0.0518978
0.0518965
0.0518954
0.0518435
0.0518444
0.0518455
0.051847
0.0518489
0.0518514
0.0518549
0.0518531
0.0518531
0.0518459
0.0517804
0.0472813
0.0486245
0.0517867
0.0518381
0.0518459
0.0518465
0.0518509
0.0518465
0.0518434
0.0518409
0.051839
0.0518377
0.0518366
0.051785
0.0517859
0.051787
0.0517885
0.0517905
0.0517931
0.0517967
0.0517947
0.0517946
0.0517871
0.0517198
0.0472247
0.0485642
0.051726
0.0517789
0.0517869
0.0517876
0.0517922
0.0517878
0.0517846
0.0517822
0.0517802
0.0517789
0.0517779
0.0534159
0.0534157
0.0534657
0.0533619
0.0533625
0.0534089
0.053308
0.0533101
0.0533559
0.0532523
0.0532558
0.0533034
0.0531937
0.0531976
0.0532487
0.0531305
0.0161772
0.0196538
0.053135
0.05319
0.0534737
0.0535274
0.0534733
0.0535284
0.0534209
0.0534169
0.0534676
0.0534359
0.0534639
0.0534164
0.0534221
0.0534645
0.0533653
0.0533624
0.0534099
0.0533887
0.0533688
0.0534041
0.0533112
0.0533955
0.0533631
0.0533676
0.0534083
0.0533101
0.0533083
0.0533556
0.0533351
0.0532813
0.0533093
0.0524595
0.0529155
0.0533106
0.0533139
0.0533542
0.0532544
0.0532525
0.0533014
0.0532805
0.053244
0.0532591
0.0527421
0.0525032
0.0532562
0.0532594
0.0533004
0.052704
0.0528885
0.0531979
0.053203
0.0532455
0.05262
0.0526684
0.0530679
0.0267966
0.0163232
0.0338125
0.0530642
0.0531264
0.0534086
0.0534355
0.0534369
0.0534344
0.0534013
0.0534652
0.053438
0.053399
0.0534341
0.0534363
0.0534334
0.0534051
0.0533149
0.0533622
0.053382
0.0533239
0.0532004
0.053394
0.0533312
0.0529428
0.0533062
0.0533823
0.0533403
0.0532251
0.0534023
0.0533442
0.0533889
0.0532612
0.0532784
0.0533283
0.0531577
0.0531873
0.0531948
0.0531567
0.0525077
0.0524253
0.0533298
0.0531495
0.0531357
0.0532211
0.0531544
0.0533363
0.0531521
0.0531664
0.0531894
0.0531487
0.0528866
0.0527695
0.0532765
0.0531244
0.0531639
0.0531294
0.053121
0.0532833
0.0531639
0.0531502
0.0531671
0.0531652
0.0526738
0.0527028
0.0531608
0.0531322
0.0532272
0.0531235
0.053024
0.0531477
0.053127
0.0524601
0.0526129
0.053444
0.0534392
0.0534666
0.053443
0.0534612
0.0531973
0.0531942
0.0532453
0.0532233
0.0532025
0.0532224
0.0507993
0.050374
0.0531357
0.0531446
0.0531886
0.0534631
0.0534457
0.0534653
0.053437
0.0534435
0.053225
0.0532418
0.0532735
0.0366632
0.0391847
0.047439
0.0487195
0.0393127
0.0424567
0.0502942
0.0496006
0.0532199
0.0531271
0.0530851
0.0488748
0.0496426
0.0530787
0.0530277
0.0531668
0.0534977
0.0534948
0.0534694
0.0534682
0.0534944
0.0534976
0.0534407
0.0534476
0.053442
0.0534625
0.0534443
0.0534514
0.0533468
0.0533625
0.0527014
0.0527283
0.0526865
0.0526364
0.0527032
0.049556
0.0528883
0.0511233
0.0508476
0.0508823
0.0511536
0.0526484
0.0532611
0.0534228
0.052978
0.0533657
0.0528979
0.0534182
0.0533805
0.0534446
0.0534493
0.05344
0.0533045
0.0534171
0.0534194
0.053255
0.0532472
0.0533725
0.053368
0.053103
0.0531238
0.0532529
0.0533693
0.0533798
0.0533556
0.0533659
0.0532496
0.0533787
0.0533973
0.0534078
0.0533833
0.0533938
0.053372
0.0531725
0.0531741
0.0531664
0.0531635
0.0520563
0.0521059
0.0531052
0.0533156
0.0533255
0.0533024
0.0533123
0.0530983
0.053192
0.0533421
0.0533521
0.0533288
0.0533387
0.0531877
0.0370131
0.0531605
0.0405909
0.0379343
0.0438754
0.0407517
0.0531623
0.0531323
0.0382534
0.0531365
0.0528615
0.0528505
0.0531204
0.0532891
0.0532991
0.0532757
0.0532858
0.0531268
0.0454831
0.0471655
0.0531678
0.0464741
0.0440874
0.0483735
0.0467288
0.0531675
0.0427551
0.0452207
0.0526883
0.0503582
0.0508294
0.0496324
0.0502678
0.0526921
0.049443
0.0493847
0.0496133
0.0251437
0.0497267
0.0492887
0.0309017
0.0511137
0.0511479
0.0534575
0.0531387
0.0531334
0.0531867
0.0531634
0.0531512
0.0531733
0.0329055
0.0520192
0.0521758
0.0534585
0.0531768
0.0531994
0.053216
0.0329583
0.0336532
0.00937991
0.0490259
0.0488719
0.0344678
0.0358504
0.0508077
0.0511025
0.0109101
0.0534787
0.05348
0.0534656
0.053464
0.0534794
0.0534785
0.0533853
0.0533961
0.0533856
0.0533201
0.0533302
0.0533815
0.0532915
0.0533405
0.0533303
0.0533543
0.053344
0.0532954
0.0525698
0.0528391
0.0527016
0.0524723
0.0481531
0.0475569
0.0526413
0.0511815
0.0513732
0.0528859
0.0528506
0.0262714
0.0534532
0.0534477
0.0534645
0.0534067
0.0533681
0.0533412
0.0534222
0.0534258
0.0534369
0.0534114
0.0534221
0.0534183
0.0533337
0.0533682
0.0533577
0.0533821
0.0533717
0.0533404
0.053293
0.0522562
0.0528955
0.0517697
0.0518826
0.0532189
0.0529544
0.0530197
0.0533483
0.0530131
0.0531919
0.0532932
0.0533677
0.0533718
0.0533405
0.053347
0.053236
0.0533269
0.0533168
0.0532705
0.0531656
0.0514741
0.0511109
0.0531802
0.0516087
0.0517395
0.0510523
0.0511166
0.0531564
0.0523183
0.05228
0.0531321
0.0533045
0.0533091
0.0532816
0.0532928
0.0531227
0.0532091
0.0533322
0.0533384
0.0533106
0.0533156
0.0531692
0.0528735
0.0510449
0.0512766
0.0509299
0.0507111
0.0528116
0.0531733
0.0532622
0.0532724
0.0532485
0.0532588
0.0531719
0.0531591
0.0495596
0.0485496
0.0507212
0.0504482
0.0531571
0.0396849
0.0402363
0.0531395
0.0510161
0.0508062
0.0389987
0.0395279
0.0488866
0.0483076
0.0534505
0.0534574
0.0534532
0.0476987
0.050641
0.0480707
0.0483508
0.048238
0.0505861
0.0534557
0.0534526
0.0534601
0.0534491
0.0534532
0.036865
0.03774
0.0337513
0.0331383
0.0480509
0.0365963
0.0360873
0.0379909
0.0367509
0.0482144
0.0400924
0.0407139
0.050025
0.0499068
0.0492652
0.0399346
0.0386639
0.035981
0.0366759
0.0534332
0.0534395
0.0534463
0.0534299
0.0534373
0.05343
0.0533235
0.053378
0.0525994
0.0528123
0.0527089
0.0524774
0.0496833
0.0512165
0.0510659
0.0513721
0.0512658
0.0496601
0.0507321
0.0506284
0.0510253
0.0508106
0.0510285
0.0491781
0.0495197
0.0485782
0.0490119
0.0509878
0.0472326
0.0475458
0.053157
0.053407
0.0533843
0.0534299
0.0534137
0.0532045
0.0532795
0.053241
0.0533698
0.0532955
0.053427
0.0534411
0.0534332
0.0534215
0.0534075
0.0534021
0.0533751
0.0534094
0.0533859
0.0534165
0.0534272
0.0533924
0.0534125
0.053426
0.0534181
0.0534054
0.0520362
0.0521573
0.0532818
0.0511514
0.0505401
0.0524145
0.0512471
0.0496208
0.0489725
0.0503498
0.0499208
0.0532258
0.0519232
0.0520059
0.0529005
0.052782
0.0532233
0.0529968
0.0526615
0.0525485
0.0527622
0.0526895
0.0533535
0.0530356
0.0530814
0.0530365
0.0531795
0.0533581
0.0533653
0.0532738
0.0532395
0.0533492
0.0533559
0.0515722
0.0515371
0.0531678
0.0475328
0.047618
0.0450141
0.0472098
0.0475597
0.0483016
0.047587
0.0475382
0.0514212
0.0515665
0.0531761
0.0478758
0.0471226
0.0488355
0.0480924
0.0456046
0.0449122
0.0468151
0.0460145
0.0531582
0.0511934
0.0513615
0.0521711
0.0522364
0.0532989
0.0533031
0.0531257
0.05311
0.053294
0.0532975
0.0533245
0.0533302
0.0532049
0.0531737
0.0533173
0.0533226
0.0378464
0.0390682
0.0513672
0.0516575
0.0509592
0.0512565
0.0381242
0.0426353
0.0520135
0.051305
0.05173
0.0519465
0.0419645
0.0495117
0.049695
0.0487395
0.0494403
0.0393953
0.0505492
0.0508802
0.0498009
0.0503648
0.0395204
0.05092
0.0510014
0.0528711
0.050279
0.050519
0.0505778
0.0502667
0.0505573
0.0528143
0.0506331
0.0508042
0.0461502
0.0332483
0.0338021
0.0356528
0.0334012
0.0463941
0.0338656
0.0436362
0.0339976
0.0440535
0.0499538
0.0514985
0.0514066
0.0516049
0.0515279
0.0500074
0.0491806
0.049259
0.0405115
0.0411166
0.0372129
0.0387434
0.0492758
0.0490203
0.0534748
0.053479
0.0535233
0.053159
0.0530715
0.0529906
0.0534701
0.053471
0.053462
0.0534597
0.0534701
0.0534697
0.0534968
0.0534954
0.0534696
0.0534102
0.0533996
0.0533903
0.0533143
0.0532129
0.0531958
0.0524943
0.0528897
0.0532998
0.0532898
0.0532526
0.0518559
0.0517634
0.0524922
0.0513172
0.0514011
0.0528865
0.0534207
0.0534243
0.0534137
0.0533284
0.0533565
0.0534074
0.0534297
0.0534213
0.0534281
0.0533886
0.0532247
0.0533165
0.0529664
0.0531778
0.0531586
0.0532946
0.0532912
0.0532937
0.0532288
0.0533765
0.0533808
0.053353
0.053268
0.0533134
0.0533033
0.0517508
0.051595
0.0531808
0.0524958
0.0520186
0.0519451
0.0523906
0.0531445
0.0532509
0.0532527
0.0532172
0.053286
0.0532885
0.0532546
0.0532564
0.0531593
0.0531244
0.0519991
0.0518322
0.0531053
0.0532763
0.053279
0.0531511
0.0532346
0.0532449
0.0307301
0.0305908
0.0512208
0.0510767
0.0531364
0.0310341
0.0308798
0.0513882
0.0514169
0.0525814
0.0534451
0.0534446
0.0364446
0.0356648
0.0360703
0.0389875
0.0394524
0.034898
0.0352605
0.0377116
0.0372608
0.0420317
0.0491019
0.0490038
0.0497008
0.0409275
0.0401521
0.0493685
0.0534813
0.0534802
0.0534652
0.0534368
0.0534384
0.0534406
0.0534433
0.0534218
0.0534253
0.0534486
0.0534556
0.0534519
0.0532946
0.0532858
0.0533351
0.0533702
0.0533478
0.0533338
0.052661
0.0527552
0.0518785
0.0519168
0.0527132
0.0525725
0.0516039
0.0517511
0.0497861
0.0497918
0.0502682
0.0502048
0.0495549
0.0498405
0.0498932
0.0528873
0.0514476
0.0515769
0.0532229
0.0530705
0.053275
0.0532467
0.0534043
0.0533895
0.053337
0.0526683
0.0525864
0.0531789
0.053001
0.0527723
0.0534472
0.0534432
0.0534336
0.0534343
0.0534189
0.0534276
0.0533395
0.0534086
0.0534173
0.053097
0.0531765
0.053385
0.0524613
0.0523543
0.053082
0.0531441
0.0533936
0.0533976
0.0533897
0.0533562
0.0533849
0.0533893
0.0531791
0.0515818
0.0515723
0.0520315
0.052151
0.0532714
0.0532737
0.0531963
0.053183
0.0532668
0.0532691
0.0373993
0.0403819
0.0452614
0.045507
0.0425284
0.0427229
0.0376467
0.0521053
0.0520279
0.0531284
0.0396649
0.0393022
0.0421048
0.0420654
0.0386375
0.0423124
0.0424167
0.0391194
0.0392761
0.0532714
0.0532738
0.053102
0.0531248
0.0532664
0.053269
0.0453123
0.0515964
0.0516906
0.0513991
0.0514954
0.0448994
0.0505711
0.0515084
0.0516252
0.0515582
0.0515349
0.0506447
0.0497636
0.0504483
0.0503546
0.0492762
0.0491317
0.0494066
0.0306314
0.0321843
0.0322323
0.0316875
0.0499466
0.0424242
0.0413165
0.0432731
0.0426766
0.049183
0.0462634
0.0464305
0.0496125
0.0499072
0.0512067
0.0534566
0.0534588
0.0534544
0.0328801
0.033081
0.0395442
0.0388137
0.00946214
0.0352563
0.0335124
0.0336113
0.0328911
0.033236
0.0356506
0.0105103
0.0484252
0.0492268
0.053472
0.0534709
0.053461
0.053245
0.0532293
0.0533171
0.0533058
0.0533415
0.0533689
0.0533252
0.0533346
0.0525351
0.0528643
0.0509873
0.0510788
0.0510405
0.0509656
0.0524802
0.0516789
0.0516008
0.0480219
0.0468873
0.0468404
0.0471424
0.0470686
0.0478538
0.05336
0.0533861
0.0533891
0.0533787
0.0533832
0.053351
0.0529897
0.0532657
0.0531374
0.0530891
0.0532324
0.0532963
0.053299
0.0521024
0.0520822
0.0524453
0.052328
0.0532473
0.0532491
0.0531383
0.053281
0.0532835
0.0532132
0.0531644
0.0532584
0.0532604
0.0508885
0.0513204
0.0511905
0.0513764
0.0513636
0.0508147
0.030486
0.0304977
0.0314382
0.0311945
0.0391939
0.0348235
0.0346852
0.0469431
0.0469665
0.0487092
0.0473483
0.047612
0.046889
0.0470736
0.0485035
0.0534492
0.0534473
0.0534481
0.0534491
0.0534555
0.0534562
0.0534589
0.0534514
0.0534533
0.0534533
0.0480107
0.0493494
0.0492611
0.049598
0.0494684
0.0481055
0.0485775
0.0489429
0.0487759
0.0491903
0.0491002
0.048427
0.0534545
0.0534558
0.0534533
0.0534404
0.0534331
0.05345
0.053447
0.0364022
0.0385826
0.0364106
0.0365316
0.0335582
0.0333466
0.0403296
0.0406236
0.0363171
0.0347989
0.0346702
0.0396804
0.0352225
0.0349232
0.0352948
0.0414208
0.0363543
0.0354032
0.0492049
0.0493638
0.0501307
0.0487751
0.0488141
0.0486868
0.0487023
0.0497946
0.0489699
0.0490419
0.0361146
0.0322009
0.0325337
0.0319645
0.0319693
0.0363191
0.053436
0.0534382
0.053436
0.0534238
0.053428
0.0534335
0.0532415
0.053328
0.0532739
0.05326
0.053302
0.053314
0.0532745
0.0532891
0.0526296
0.0527831
0.0513339
0.0514151
0.0511611
0.0512469
0.0527155
0.0519204
0.0519126
0.0515405
0.0515283
0.0525142
0.0514549
0.0499712
0.049845
0.0496043
0.0501543
0.0500892
0.0506827
0.049955
0.0499481
0.0501341
0.0500281
0.0506546
0.0509746
0.0502875
0.0503527
0.0500261
0.0501627
0.0508993
0.0499148
0.0487209
0.049807
0.049714
0.0471847
0.0473224
0.0531393
0.0533034
0.0532891
0.0531139
0.0532499
0.0533557
0.0533247
0.0527936
0.0527252
0.0530703
0.0530895
0.0532544
0.0529629
0.0528754
0.05338
0.0533983
0.0534281
0.0534111
0.053356
0.0532916
0.0533542
0.0533965
0.0534058
0.0534096
0.0533931
0.0533987
0.0533803
0.0533604
0.0533783
0.0534197
0.0534127
0.0534081
0.0534237
0.053416
0.0534232
0.0533979
0.0534026
0.0533909
0.0534022
0.0510159
0.0507599
0.0520869
0.0506642
0.0508766
0.0503172
0.051344
0.0493678
0.0491515
0.0501906
0.0500662
0.0528405
0.0523372
0.0524647
0.0521108
0.0522159
0.0528059
0.0531935
0.0529828
0.0530407
0.0525305
0.052847
0.0531283
0.0522618
0.0521094
0.0526331
0.0513176
0.0514439
0.0511162
0.0512162
0.0526008
0.0527432
0.0519544
0.0520269
0.0515912
0.0517604
0.0527172
0.0530607
0.0531632
0.0476374
0.0447571
0.0452267
0.0437383
0.0442146
0.0476457
0.0455613
0.0454444
0.0454858
0.0464299
0.0476607
0.0413461
0.041708
0.0421029
0.0414386
0.0479086
0.0475635
0.0429438
0.0433153
0.0422223
0.0426266
0.0475484
0.0477119
0.0474979
0.0486848
0.0483589
0.0452591
0.044989
0.0465661
0.0463749
0.052065
0.0521935
0.0532006
0.0532761
0.0532786
0.0532625
0.0532646
0.0531783
0.0377326
0.0443357
0.0448908
0.0399617
0.0376101
0.0430976
0.0436794
0.0406071
0.0401088
0.0495667
0.0446341
0.0446178
0.0490978
0.0440308
0.0431052
0.044572
0.0444287
0.0493209
0.0417533
0.0411566
0.0417192
0.0421317
0.0390429
0.0398057
0.0407965
0.0509635
0.0517034
0.0516672
0.051738
0.0517209
0.0509815
0.0503499
0.0504509
0.0504624
0.050227
0.0501952
0.0503338
0.0506119
0.0514311
0.0513904
0.0515961
0.0515077
0.0506735
0.0333739
0.0373452
0.0375873
0.0370263
0.0371822
0.0335829
0.0348091
0.0392978
0.0399025
0.0379993
0.0386079
0.0339468
0.0337496
0.0340507
0.0341511
0.0345527
0.0342549
0.0343302
0.0363815
0.0368022
0.0346763
0.035543
0.0344439
0.0505892
0.0505293
0.0498855
0.049177
0.0493506
0.0308165
0.0314591
0.0378258
0.0332241
0.0323676
0.0344715
0.0340539
0.0383655
0.0317781
0.0316903
0.0466002
0.0467094
0.053598
0.0535977
0.0536275
0.0535972
0.053597
0.0536271
0.053597
0.053597
0.0536271
0.0535974
0.0535979
0.0536275
0.0535391
0.0535385
0.0535683
0.0535378
0.053537
0.0535827
0.0535363
0.0535354
0.0535818
0.0535353
0.0535362
0.0535819
0.053537
0.0535381
0.0535829
0.0535392
0.0535397
0.0535688
0.0534811
0.0534796
0.0535236
0.0534784
0.0534752
0.0535216
0.0535048
0.0535041
0.0535283
0.053502
0.0535028
0.0535271
0.053506
0.053507
0.0535218
0.0534803
0.0534822
0.0535108
0.053424
0.053422
0.053465
0.0534494
0.053449
0.0534634
0.0534586
0.053458
0.0534655
0.0534448
0.0534482
0.0534701
0.0534233
0.0534258
0.0534538
0.0533677
0.0533659
0.0534079
0.0533929
0.0533929
0.0534067
0.0534023
0.0534021
0.0534089
0.0533894
0.0533924
0.0534129
0.0533682
0.0533705
0.0533981
0.0533116
0.0533103
0.053352
0.0533377
0.0533381
0.0533518
0.0533485
0.053348
0.0533548
0.0533369
0.0533387
0.0533587
0.0533139
0.0533155
0.053343
0.0532552
0.0532543
0.0532964
0.0532824
0.0532832
0.053297
0.0532944
0.0532939
0.0533008
0.0532838
0.0532847
0.053305
0.053259
0.0532602
0.0532879
0.0531984
0.0531972
0.0532401
0.0532379
0.0532374
0.0532447
0.0532277
0.0532288
0.0532498
0.0532025
0.053204
0.0532323
0.0531408
0.0531387
0.0531827
0.0531672
0.0531708
0.0531855
0.0531441
0.0531469
0.0531756
0.0530815
0.0530781
0.0531079
0.0530781
0.0530721
0.0531176
0.0530993
0.0530741
0.0530998
0.0220323
0.0502418
0.0504529
0.0530733
0.0530845
0.0531297
0.0530844
0.0530889
0.053118
0.053023
0.0530191
0.0530486
0.0530189
0.0530116
0.053057
0.0530066
0.0363304
0.0361639
0.0418075
0.0529992
0.0530481
0.0530102
0.0530231
0.0530686
0.0530243
0.0530297
0.0530592
0.0529594
0.052955
0.0529851
0.0528955
0.043847
0.0363688
0.0466521
0.0528331
0.0529828
0.0529517
0.0529625
0.0529928
0.0534158
0.0534227
0.0534228
0.0534224
0.0534247
0.0534135
0.0534651
0.0534577
0.0534582
0.0533615
0.0533682
0.0533686
0.053369
0.053368
0.0533579
0.0534099
0.0533992
0.0534022
0.0533076
0.0533144
0.0533148
0.0533167
0.0533146
0.0533046
0.0533545
0.0533445
0.0533494
0.0532518
0.053259
0.0532594
0.0532627
0.053261
0.0532519
0.0533012
0.0532913
0.0532968
0.0532051
0.0532025
0.0531951
0.053245
0.0532381
0.0532416
0.0531084
0.0531436
0.0531555
0.00942267
0.0358122
0.0356582
0.0417049
0.0418044
0.0104111
0.0531876
0.05318
0.0531823
0.0534707
0.0534959
0.053497
0.0534628
0.0534629
0.0534607
0.0535275
0.0535031
0.0535021
0.053462
0.0534625
0.0534811
0.0534806
0.0534727
0.0535281
0.0535038
0.0535046
0.0534206
0.0534347
0.0534351
0.0534381
0.0534343
0.0534204
0.0534627
0.0534484
0.0534453
0.0534399
0.0534389
0.0534321
0.0534632
0.0534588
0.0534597
0.0534199
0.0534411
0.0534375
0.0534361
0.0534359
0.0534222
0.053464
0.0534499
0.0534502
0.0533654
0.0533791
0.0533791
0.0533826
0.0533792
0.0533657
0.0534065
0.0533928
0.0533894
0.0533885
0.0533952
0.0533955
0.0533746
0.0533839
0.0533798
0.0534073
0.0534036
0.0533996
0.0533863
0.0533754
0.0533907
0.0533654
0.0533856
0.0533828
0.0533811
0.0533815
0.0533682
0.0534085
0.053395
0.0533946
0.0533108
0.0533245
0.0533239
0.0533287
0.0533251
0.0533115
0.0533522
0.0533386
0.0533354
0.0533346
0.0533414
0.0533418
0.0532844
0.0533197
0.0533164
0.0533413
0.0533374
0.0533042
0.0533118
0.0533319
0.0533304
0.0533273
0.0533283
0.0533149
0.0533549
0.0533416
0.0533407
0.0532553
0.0532693
0.0532684
0.0532737
0.0532702
0.0532562
0.0532978
0.053284
0.0532807
0.0532801
0.053287
0.0532875
0.0532504
0.0532863
0.0532762
0.0532876
0.0532844
0.0532569
0.0527168
0.0519404
0.0520122
0.0532571
0.0532777
0.053277
0.0532731
0.0532743
0.0532606
0.0533015
0.053288
0.0532868
0.0527051
0.0517235
0.0517861
0.0524688
0.052475
0.052888
0.0532
0.0532144
0.0532203
0.0532173
0.0532184
0.0532041
0.0532467
0.0532326
0.0532315
0.0526272
0.0520551
0.0520529
0.0520598
0.0520606
0.0526618
0.0530509
0.0530655
0.0530833
0.02642
0.0528377
0.0527915
0.0488832
0.0488308
0.0167654
0.0520009
0.0520126
0.0331973
0.0530801
0.0527662
0.052871
0.0529559
0.0527791
0.0531018
0.0534128
0.0534148
0.0534111
0.0534388
0.0534279
0.0534245
0.0534298
0.0534296
0.0534366
0.0534307
0.0534246
0.0534343
0.0534612
0.0534604
0.0534646
0.0534369
0.0534409
0.0534418
0.0534017
0.0533951
0.0533917
0.0534337
0.0534314
0.0534321
0.0534357
0.0534286
0.0534292
0.0534297
0.0534307
0.0534344
0.0534087
0.0534123
0.0534102
0.0533209
0.0533495
0.0533453
0.0533755
0.0533711
0.0533548
0.0533753
0.0533749
0.0533817
0.0533151
0.0532381
0.0532589
0.0530101
0.0530193
0.0532062
0.0532735
0.0532844
0.0533374
0.0533817
0.0533714
0.0533756
0.0533343
0.0533547
0.0533588
0.0533927
0.0534014
0.0534051
0.053362
0.0533648
0.0533472
0.0533955
0.0533956
0.0533852
0.0532633
0.0532938
0.0532907
0.0533131
0.0533098
0.0532757
0.0533216
0.0533212
0.0533279
0.0531605
0.0529521
0.0529446
0.0530324
0.0530247
0.0531849
0.0531897
0.0529933
0.0530015
0.0529398
0.0529374
0.0531554
0.0533278
0.0533179
0.0533232
0.0532438
0.0532438
0.0531377
0.0533429
0.0533411
0.0533312
0.0531553
0.0525618
0.0524686
0.0529082
0.0528949
0.0531654
0.0531915
0.0530478
0.0530403
0.0524402
0.0523336
0.053145
0.0528827
0.0524396
0.0524569
0.0520953
0.0521613
0.0527926
0.0532745
0.0532644
0.0532696
0.0531279
0.0532558
0.0532585
0.0532371
0.0532403
0.0531658
0.0531212
0.0532412
0.0532428
0.0532611
0.0532637
0.0531195
0.0532901
0.0532879
0.0532779
0.0531625
0.0529964
0.0529917
0.0530118
0.0530105
0.0531527
0.0531675
0.0529303
0.0529189
0.052986
0.0529788
0.0531662
0.0526791
0.0520545
0.0520577
0.051805
0.0518517
0.0527002
0.0531572
0.0532304
0.0532338
0.0532206
0.0532309
0.0531459
0.0532345
0.0532311
0.0532241
0.0531113
0.0513383
0.051258
0.0508064
0.0511894
0.0530987
0.0531452
0.0530128
0.0530127
0.052561
0.0514146
0.0513996
0.0534437
0.0534508
0.0534513
0.0534506
0.0534536
0.0534425
0.0534648
0.0534573
0.0534545
0.0534603
0.0534575
0.0534585
0.0532163
0.0532134
0.0531989
0.053242
0.0532278
0.0532236
0.0532228
0.0532302
0.0532306
0.0532113
0.0532257
0.0532185
0.0532399
0.0532328
0.0532142
0.0507474
0.0502152
0.0502973
0.0496835
0.0498055
0.0504529
0.0531408
0.0531559
0.0531594
0.0534607
0.0534598
0.0534625
0.0534423
0.0534463
0.0534485
0.0534527
0.0534561
0.0534679
0.0534407
0.0534522
0.0534487
0.0534508
0.0534503
0.053443
0.0532325
0.0532588
0.0532469
0.0532726
0.0532624
0.0532349
0.0532665
0.0532661
0.0532731
0.0476706
0.0444858
0.0442108
0.0459256
0.0456455
0.0485475
0.0502159
0.0494678
0.0495663
0.053217
0.0532098
0.0532125
0.0531099
0.0532063
0.0532168
0.0531902
0.0532024
0.0531038
0.0490232
0.0464678
0.0462048
0.0475728
0.0474068
0.0495545
0.0530572
0.0531752
0.0531828
0.0531597
0.0531675
0.0530501
0.0531746
0.0531724
0.0531646
0.0534982
0.0534847
0.0534838
0.0534863
0.0534856
0.0534988
0.053467
0.053481
0.0534821
0.0534726
0.0534721
0.0534676
0.0534984
0.0534849
0.0534857
0.0534835
0.0534842
0.0534978
0.0534481
0.0534412
0.0534437
0.0534545
0.0534578
0.0534623
0.0534457
0.053448
0.0534466
0.0534555
0.0534547
0.0534505
0.0516049
0.0516954
0.0527042
0.0528888
0.0525133
0.0525195
0.0510961
0.0507314
0.0507766
0.0503736
0.0504404
0.0508911
0.0510194
0.0515959
0.0515785
0.0516234
0.0516106
0.0510561
0.0526554
0.0520607
0.0520601
0.0534067
0.0534207
0.0534269
0.053413
0.0533666
0.0533996
0.0533937
0.0534207
0.053413
0.0534467
0.0534441
0.0534411
0.0534455
0.0534447
0.0534484
0.0534143
0.0534113
0.0534147
0.0534216
0.0534194
0.0534168
0.0530972
0.0531112
0.053263
0.0532399
0.0530728
0.0530845
0.0533431
0.0533514
0.0533768
0.0533633
0.053327
0.053335
0.0533133
0.053317
0.0532569
0.0533728
0.0533699
0.0533662
0.0533774
0.0533736
0.0533763
0.053359
0.0533552
0.0533515
0.0533625
0.0533588
0.0533624
0.0532464
0.0533073
0.0533102
0.0533871
0.0533901
0.0533832