/*--------------------------------*- C++ -*----------------------------------*\
| =========                 |                                                 |
| \\      /  F ield         | OpenFOAM: The Open Source CFD Toolbox           |
|  \\    /   O peration     | Version:  5.x                                   |
|   \\  /    A nd           | Web:      www.OpenFOAM.org                      |
|    \\/     M anipulation  |                                                 |
\*---------------------------------------------------------------------------*/
FoamFile
{
    version     2.0;
    format      ascii;
    class       volScalarField;
    location    "100";
    object      Y;
}
// * * * * * * * * * * * * * * * * * * * * * * * * * * * * * * * * * * * * * //

dimensions      [0 0 0 0 0 0 0];

internalField   nonuniform List<scalar> 
6584
(
0.00632781
0.00632781
0.00632781
0.00632781
0.00632781
0.00632781
0.00632781
0.00632782
0.00632782
0.00632782
0.00632782
0.00632782
0.00632782
0.00632782
0.00632782
0.00632782
0.00632782
0.00632781
0.00632781
0.00632781
0.00632781
0.00632781
0.00632781
0.00632781
0.00632561
0.00632561
0.00632561
0.00632562
0.00632562
0.00632562
0.00632562
0.00632563
0.00632563
0.00632563
0.00632563
0.00632563
0.00632563
0.00632563
0.00632563
0.00632563
0.00632563
0.00632563
0.00632562
0.00632562
0.00632562
0.00632561
0.00632561
0.00632561
0.00632341
0.00632342
0.00632342
0.00632342
0.00632342
0.00632342
0.00632343
0.00632344
0.00632345
0.00632454
0.00632454
0.00632454
0.00632454
0.00632454
0.00632454
0.00632345
0.00632344
0.00632344
0.00632343
0.00632343
0.00632342
0.00632342
0.00632342
0.00632341
0.00632122
0.00632122
0.00632122
0.00632123
0.00632123
0.00632123
0.00632124
0.00632125
0.00632126
0.00632235
0.00632235
0.00632234
0.00632234
0.00632235
0.00632235
0.00632235
0.00632125
0.00632124
0.00632124
0.00632123
0.00632123
0.00632123
0.00632122
0.00632122
0.00631902
0.00631903
0.00631903
0.00631903
0.00631904
0.00631904
0.00631904
0.00631904
0.00632015
0.00632016
0.00632014
0.00632013
0.00632013
0.00632013
0.00632015
0.00632016
0.00632015
0.00631906
0.00631905
0.00631904
0.00631904
0.00631903
0.00631903
0.00631903
0.00631683
0.00631683
0.00631684
0.00631684
0.00631685
0.00631685
0.00631686
0.00631795
0.00631794
0.00631793
0.00631848
0.00631845
0.00631844
0.00631846
0.00631795
0.00631797
0.00631797
0.00631689
0.00631687
0.00631686
0.00631685
0.00631684
0.00631684
0.00631683
0.00631464
0.00631464
0.00631464
0.00631465
0.00631466
0.00631466
0.00631468
0.00631576
0.00631575
0.00631574
0.00631622
0.00631645
0.00631641
0.0063162
0.0063163
0.00631579
0.0063158
0.00631473
0.00631469
0.00631468
0.00631467
0.00631466
0.00631465
0.00631464
0.00631245
0.00631245
0.00631246
0.00631246
0.00631247
0.00631248
0.00631251
0.00631358
0.00631358
0.00631358
0.00631402
0.00631411
0.00631418
0.00631412
0.00631365
0.00631365
0.00631257
0.00631253
0.0063125
0.00631249
0.00631247
0.00631246
0.00631246
0.00631026
0.00631026
0.00631027
0.00631028
0.00631029
0.00631031
0.00631034
0.00631142
0.00631142
0.00631145
0.00631189
0.00631199
0.00631207
0.00631203
0.00631155
0.00631152
0.00631043
0.00631036
0.00631033
0.00631031
0.00631029
0.00631028
0.00631027
0.00630807
0.00630807
0.00630808
0.0063081
0.00630811
0.00630813
0.00630818
0.00630926
0.00630928
0.00630934
0.00630981
0.00631
0.00631013
0.00631
0.00630947
0.0063094
0.00630829
0.0063082
0.00630816
0.00630813
0.00630811
0.00630809
0.00630808
0.00630588
0.00630589
0.0063059
0.00630591
0.00630593
0.00630596
0.00630601
0.0063071
0.00630714
0.00630723
0.00630775
0.00630801
0.00630822
0.00630799
0.00630739
0.00630729
0.00630615
0.00630605
0.00630599
0.00630595
0.00630592
0.0063059
0.00630589
0.00630369
0.0063037
0.00630371
0.00630373
0.00630376
0.00630379
0.00630385
0.00630494
0.006305
0.00630511
0.00630567
0.00630597
0.00630623
0.00630596
0.0063053
0.00630517
0.006304
0.00630389
0.00630382
0.00630377
0.00630374
0.00630372
0.0063037
0.0063015
0.00630151
0.00630153
0.00630155
0.00630158
0.00630162
0.00630168
0.00630278
0.00630285
0.00630297
0.00630355
0.00630382
0.00630411
0.00630387
0.00630319
0.00630305
0.00630185
0.00630173
0.00630165
0.00630159
0.00630155
0.00630153
0.00630151
0.00629932
0.00629933
0.00629934
0.00629937
0.0062994
0.00629944
0.00629951
0.00629956
0.00630068
0.00630078
0.00630135
0.00630149
0.00479599
0.00630156
0.00630173
0.00630106
0.0063009
0.00629969
0.00629956
0.00629948
0.00629941
0.00629937
0.00629934
0.00629932
0.00629713
0.00629714
0.00629716
0.00629718
0.00629722
0.00629726
0.00629732
0.00629736
0.00629848
0.00629858
0.00629916
0.00629888
0.00590597
0.00629927
0.00629896
0.00629889
0.0062976
0.00629751
0.00629737
0.00629729
0.00629723
0.00629718
0.00629715
0.00629712
0.00629494
0.00629495
0.00629497
0.006295
0.00629503
0.00629508
0.00629513
0.00629517
0.00629629
0.00629641
0.00629645
0.00629656
0.00593474
0.0062965
0.00629678
0.00629672
0.00629543
0.00629533
0.00629518
0.0062951
0.00629503
0.00629498
0.00629495
0.00629493
0.00629275
0.00629277
0.00629279
0.00629282
0.00629285
0.00629289
0.00629294
0.006293
0.00629308
0.00629424
0.00629428
0.00628771
0.00611732
0.00629422
0.00629459
0.00629454
0.00629325
0.00629314
0.00629299
0.0062929
0.00629284
0.00629278
0.00629275
0.00629272
0.00629056
0.00629058
0.0062906
0.00629063
0.00629067
0.0062907
0.00629076
0.00629083
0.00629091
0.00629101
0.00629211
0.00628015
0.00611982
0.00629194
0.00629133
0.00629119
0.00629106
0.00629095
0.0062908
0.00629071
0.00629064
0.00629058
0.00629055
0.00629051
0.00628837
0.00628839
0.00628841
0.00628845
0.00628848
0.00628852
0.00628858
0.00628866
0.00628875
0.00628884
0.0062877
0.00609134
0.00620374
0.00628877
0.00628915
0.00628901
0.00628888
0.00628876
0.00628861
0.00628851
0.00628844
0.00628838
0.00628834
0.0062883
0.00628619
0.0062862
0.00628623
0.00628626
0.0062863
0.00628634
0.00628641
0.00628649
0.00628658
0.00628667
0.00628469
0.00609013
0.00620226
0.0062865
0.00628696
0.00628683
0.00628669
0.00628657
0.00628641
0.00628631
0.00628624
0.00628617
0.00628614
0.0062861
0.006284
0.00628402
0.00628404
0.00628408
0.00628412
0.00628416
0.00628423
0.00628432
0.00628442
0.0062845
0.00628176
0.00608885
0.0062007
0.00628423
0.00628477
0.00628465
0.00628451
0.00628437
0.00628422
0.00628411
0.00628403
0.00628397
0.00628393
0.00628389
0.00628181
0.00628183
0.00628186
0.00628189
0.00628194
0.00628198
0.00628206
0.00628216
0.00628227
0.00628233
0.00627891
0.00608752
0.00619908
0.00628196
0.00628259
0.00628247
0.00628232
0.00628218
0.00628202
0.00628191
0.00628183
0.00628176
0.00628172
0.00628168
0.00627962
0.00627964
0.00627967
0.00627971
0.00627976
0.0062798
0.00627989
0.00628
0.00628011
0.00628016
0.00627612
0.00608614
0.00619742
0.00627969
0.0062804
0.00628029
0.00628013
0.00627999
0.00627983
0.00627971
0.00627963
0.00627956
0.00627952
0.00627947
0.00627744
0.00627746
0.00627749
0.00627753
0.00627758
0.00627763
0.00627772
0.00627784
0.00627796
0.00627799
0.0062734
0.00608473
0.00619573
0.00627741
0.00627821
0.00627811
0.00627795
0.00627779
0.00627763
0.00627751
0.00627742
0.00627735
0.00627731
0.00627726
0.00627525
0.00627527
0.0062753
0.00627535
0.0062754
0.00627545
0.00627554
0.00627568
0.0062758
0.00627581
0.00627075
0.00608326
0.00619402
0.00627513
0.00627602
0.00627593
0.00627576
0.0062756
0.00627543
0.00627531
0.00627522
0.00627514
0.0062751
0.00627505
0.00627306
0.00627309
0.00627312
0.00627316
0.00627322
0.00627328
0.00627338
0.00627352
0.00627365
0.00627363
0.00626807
0.00608181
0.0061923
0.00627285
0.00627382
0.00627375
0.00627358
0.00627341
0.00627323
0.00627311
0.00627302
0.00627294
0.00627289
0.00627284
0.00627088
0.0062709
0.00627094
0.00627098
0.00627104
0.00627111
0.00627121
0.00627136
0.0062715
0.00627145
0.00626538
0.00608037
0.00619061
0.00627057
0.00627163
0.00627157
0.0062714
0.00627122
0.00627104
0.00627091
0.00627081
0.00627073
0.00627069
0.00627063
0.00626869
0.00626872
0.00626875
0.0062688
0.00626886
0.00626893
0.00626904
0.0062692
0.00626935
0.00626927
0.00626275
0.0060789
0.0061889
0.00626829
0.00626944
0.00626939
0.00626922
0.00626903
0.00626885
0.00626871
0.00626861
0.00626853
0.00626848
0.00626843
0.00626651
0.00626654
0.00626657
0.00626662
0.00626669
0.00626676
0.00626687
0.00626705
0.0062672
0.00626709
0.00626017
0.00607738
0.00618717
0.006266
0.00626724
0.00626722
0.00626703
0.00626684
0.00626665
0.00626651
0.00626641
0.00626633
0.00626628
0.00626622
0.00626432
0.00626435
0.00626439
0.00626445
0.00626451
0.00626459
0.00626471
0.00626489
0.00626506
0.00626491
0.00625764
0.00607583
0.00618542
0.00626371
0.00626504
0.00626504
0.00626485
0.00626465
0.00626446
0.00626432
0.00626421
0.00626412
0.00626407
0.00626402
0.00626214
0.00626217
0.00626221
0.00626227
0.00626234
0.00626242
0.00626255
0.00626274
0.00626291
0.00626273
0.00625515
0.00607424
0.00618365
0.00626142
0.00626284
0.00626285
0.00626267
0.00626246
0.00626227
0.00626212
0.00626201
0.00626192
0.00626186
0.00626181
0.00625996
0.00625999
0.00626003
0.00626009
0.00626016
0.00626025
0.00626039
0.00626059
0.00626076
0.00626054
0.0062527
0.00607261
0.00618185
0.00625913
0.00626063
0.00626067
0.00626049
0.00626028
0.00626007
0.00625992
0.00625981
0.00625972
0.00625966
0.00625961
0.00625778
0.00625781
0.00625785
0.00625791
0.00625799
0.00625809
0.00625823
0.00625844
0.00625861
0.00625836
0.00625029
0.00607095
0.00618004
0.00625684
0.00625842
0.00625848
0.0062583
0.00625809
0.00625788
0.00625772
0.00625761
0.00625751
0.00625745
0.0062574
0.00625559
0.00625563
0.00625567
0.00625573
0.00625582
0.00625592
0.00625607
0.00625628
0.00625645
0.00625617
0.0062479
0.00606925
0.0061782
0.00625454
0.00625621
0.0062563
0.00625612
0.0062559
0.00625569
0.00625553
0.00625541
0.00625531
0.00625525
0.00625519
0.00625341
0.00625345
0.00625349
0.00625356
0.00625364
0.00625375
0.00625391
0.00625413
0.0062543
0.00625399
0.00624554
0.00606753
0.00617634
0.00625225
0.00625399
0.00625411
0.00625393
0.00625371
0.00625349
0.00625333
0.0062532
0.00625311
0.00625304
0.00625299
0.00625123
0.00625127
0.00625132
0.00625138
0.00625147
0.00625159
0.00625175
0.00625198
0.00625215
0.0062518
0.00624314
0.0060658
0.00617444
0.00624995
0.00625177
0.00625192
0.00625175
0.00625153
0.0062513
0.00625113
0.006251
0.0062509
0.00625084
0.00625078
0.00631224
0.0063123
0.00631413
0.00631024
0.00631036
0.00631205
0.00630826
0.00630845
0.00631012
0.00630623
0.00630647
0.00630821
0.0063041
0.00630437
0.00630622
0.00630179
0.00469353
0.00474623
0.00630211
0.0063041
0.0063144
0.00631641
0.00631441
0.00631645
0.00631241
0.00631228
0.00631417
0.00631303
0.00631406
0.00631232
0.00631251
0.00631408
0.00631033
0.00631026
0.00631202
0.00631123
0.00630968
0.0063116
0.00630673
0.00631128
0.00631037
0.00631049
0.006312
0.00630827
0.00630827
0.00631001
0.00630926
0.00630496
0.00630614
0.00625899
0.00628423
0.00630846
0.0063085
0.00630999
0.00630619
0.00630623
0.00630802
0.00630726
0.0063045
0.0063046
0.00629317
0.00627204
0.00630648
0.00630649
0.006308
0.00630249
0.00630264
0.00630439
0.00630442
0.00630598
0.00630211
0.00630267
0.00629946
0.00516211
0.00469801
0.00557748
0.00629967
0.0063018
0.00631183
0.00631297
0.00631302
0.00631292
0.00631107
0.00631408
0.00631306
0.00631146
0.00631296
0.00631305
0.00631294
0.00631183
0.00630645
0.00630928
0.00631099
0.00630571
0.00629701
0.00631054
0.00630625
0.00628593
0.0063065
0.00631108
0.00630866
0.00630298
0.0063117
0.00630884
0.00631132
0.00630461
0.00630488
0.00630901
0.00629516
0.00629862
0.00629667
0.00629501
0.00627123
0.00625748
0.00630917
0.00629994
0.00630091
0.00630283
0.00630012
0.0063094
0.00629721
0.00629947
0.00629886
0.0062968
0.00630244
0.00629438
0.00630723
0.00630367
0.00630485
0.00630096
0.0063035
0.00630747
0.00630087
0.0063011
0.0062997
0.00630079
0.00630271
0.00630259
0.00630482
0.0063044
0.00630544
0.00630076
0.00629873
0.0063011
0.00630084
0.00630103
0.006302
0.00631329
0.00631311
0.00631413
0.00631319
0.00631395
0.00630408
0.0063041
0.00630597
0.00630518
0.00630375
0.00630421
0.00625847
0.00623312
0.00630214
0.00630229
0.0063039
0.00631401
0.00631326
0.00631411
0.00631307
0.00631331
0.00630426
0.00630448
0.006307
0.00530742
0.00549166
0.00602058
0.0061002
0.00550257
0.00570766
0.00622824
0.00618315
0.00630518
0.00630431
0.00630359
0.00610971
0.00615781
0.00630348
0.00630259
0.00630327
0.0063153
0.00631519
0.00631424
0.00631422
0.00631518
0.0063153
0.00631307
0.00631346
0.00631318
0.006314
0.00631329
0.0063136
0.00630847
0.00630947
0.00627299
0.00627434
0.00628589
0.00628343
0.00630204
0.00617981
0.00630351
0.0062771
0.00626128
0.00626171
0.00627715
0.00630248
0.00628713
0.00631242
0.00624054
0.0063039
0.00622781
0.00631218
0.00630586
0.00631321
0.00631349
0.00631275
0.00629409
0.00631229
0.00631239
0.00630054
0.00630002
0.00630914
0.00630883
0.00629469
0.00629583
0.00630383
0.0063106
0.00631098
0.00631009
0.00631047
0.00630373
0.00631055
0.00631163
0.00631201
0.00631111
0.0063115
0.00631017
0.00629687
0.00629707
0.00629506
0.00629493
0.00624124
0.00624335
0.0062985
0.00630865
0.006309
0.00630818
0.00630853
0.00629841
0.00630178
0.0063096
0.00630996
0.00630912
0.00630948
0.00630162
0.0053285
0.00629833
0.00555752
0.00536028
0.00577697
0.00557098
0.00629864
0.00629496
0.0053795
0.00629543
0.00630012
0.00629957
0.00630213
0.00630771
0.00630806
0.00630723
0.00630759
0.00630243
0.00589849
0.00600366
0.00630028
0.00594222
0.00579166
0.00606162
0.00595848
0.00630043
0.00572725
0.00588188
0.00630276
0.00623116
0.00625869
0.00618539
0.00622578
0.00630275
0.00617237
0.00615023
0.00616617
0.00507692
0.0061632
0.00614376
0.00523842
0.00627741
0.00627852
0.00631379
0.00630192
0.00630184
0.00630383
0.00630299
0.00630227
0.00630305
0.00548824
0.0062983
0.00630027
0.00631382
0.00630301
0.00630367
0.00630491
0.00522561
0.00527212
0.00443424
0.0061378
0.00613237
0.00531757
0.00539682
0.00626654
0.00627712
0.00410443
0.00631459
0.00631464
0.0063141
0.00631405
0.00631463
0.00631459
0.0063106
0.00631152
0.00631113
0.00630704
0.00630624
0.0063105
0.0063053
0.00630946
0.00630909
0.00630996
0.00630959
0.00630547
0.00626537
0.00628028
0.00629009
0.00627402
0.00609803
0.00605656
0.0063024
0.00627874
0.00628839
0.00629547
0.00629466
0.00512465
0.00631363
0.0063134
0.00631406
0.00631182
0.00630876
0.00630698
0.00631252
0.00631267
0.00631307
0.00631214
0.00631253
0.00631237
0.00630753
0.00631048
0.00631009
0.006311
0.00631061
0.00630792
0.0063033
0.00621542
0.0062641
0.00618873
0.00619478
0.00629817
0.00626878
0.00627333
0.00630747
0.00628965
0.00629952
0.00630594
0.0063104
0.00631055
0.00630933
0.00630957
0.00630331
0.00630897
0.0063086
0.00630472
0.00629602
0.00617648
0.00614946
0.00629582
0.00617976
0.00618725
0.00614462
0.00614807
0.00629473
0.00625965
0.0062493
0.00629918
0.00630804
0.0063082
0.00630719
0.00630766
0.00629996
0.00630243
0.00630901
0.00630924
0.00630825
0.00630842
0.0063008
0.00630162
0.00624887
0.00626087
0.00623078
0.00622363
0.00629695
0.00630491
0.00630674
0.00630711
0.00630623
0.00630661
0.00630491
0.00630104
0.0061373
0.00607284
0.00620297
0.00618471
0.00630108
0.00562794
0.00566357
0.00630105
0.00622274
0.00620854
0.00558194
0.00561729
0.0061465
0.00610865
0.00631354
0.0063138
0.00631365
0.00605854
0.00624916
0.00608242
0.00610312
0.00609392
0.00624587
0.00631373
0.00631356
0.00631389
0.0063133
0.00631363
0.00533038
0.00539034
0.00525579
0.00523219
0.00605886
0.00541406
0.00537814
0.00549922
0.00542485
0.00606913
0.00555824
0.00559791
0.00621134
0.0062038
0.0061338
0.00561253
0.00553805
0.00540549
0.00544768
0.00631269
0.00631314
0.0063134
0.00631271
0.00631305
0.00631248
0.00630717
0.00631032
0.00626681
0.0062789
0.00628934
0.00627532
0.00618529
0.00626833
0.00625991
0.0062772
0.00627097
0.0061843
0.00624087
0.00623287
0.00625726
0.00624528
0.00627167
0.00616043
0.00618321
0.00611905
0.00614929
0.00626934
0.00603426
0.00604902
0.00627065
0.00631025
0.00630788
0.00631248
0.00631095
0.00627882
0.00629449
0.00629067
0.00630613
0.00629633
0.00631172
0.00631315
0.00631271
0.00631089
0.00630914
0.00631119
0.00630921
0.00631194
0.00630981
0.00631195
0.00631258
0.00631026
0.0063117
0.00631265
0.00631216
0.00631137
0.00620215
0.00620871
0.00630245
0.0061302
0.00608833
0.00622093
0.00613574
0.00602953
0.00598859
0.00607577
0.00604969
0.00629861
0.00619702
0.00620072
0.00625152
0.00624218
0.00628883
0.00626199
0.00623662
0.00623041
0.00624138
0.00623799
0.00630782
0.00627433
0.00627731
0.00629089
0.00629888
0.00631001
0.0063103
0.00630482
0.00630343
0.00630966
0.00630992
0.00618504
0.00618127
0.00629627
0.00591693
0.00592554
0.00574009
0.00589384
0.00592539
0.005978
0.00592408
0.00592286
0.0061684
0.00617732
0.00629558
0.00592151
0.00587462
0.00598108
0.00593468
0.00577815
0.00573254
0.00585498
0.00580451
0.00629479
0.00615338
0.00616453
0.0062516
0.00624764
0.00630786
0.00630799
0.00629899
0.00629931
0.0063077
0.00630781
0.00630873
0.00630894
0.00630228
0.00630098
0.00630848
0.00630867
0.00537331
0.00544972
0.0061892
0.00620871
0.0061619
0.00618196
0.00538496
0.00569637
0.00623336
0.00619698
0.00621389
0.0062288
0.00565377
0.0060611
0.00607692
0.0060073
0.00605514
0.00544582
0.0061333
0.00615605
0.00608463
0.00612138
0.00544954
0.00623822
0.00624589
0.00630131
0.00621001
0.00622173
0.0062292
0.00621036
0.00622219
0.00629758
0.00622019
0.00623196
0.00594104
0.00519799
0.00521646
0.00535086
0.00521141
0.00595624
0.00525896
0.00578419
0.00522309
0.00581
0.00620614
0.00628418
0.00627911
0.00629008
0.00628587
0.00620977
0.00615388
0.00615933
0.0056801
0.00571739
0.00547812
0.00556598
0.00617232
0.00615523
0.00631447
0.00631461
0.00631626
0.00630298
0.00630241
0.00630148
0.00631427
0.0063143
0.00631396
0.00631389
0.00631428
0.00631426
0.00631528
0.00631523
0.00631427
0.00631204
0.00631165
0.00631087
0.00630684
0.00630003
0.00629905
0.00626058
0.00628288
0.00630798
0.00630761
0.00630455
0.00624455
0.00624098
0.00627262
0.00626357
0.00626986
0.00630311
0.00631239
0.00631256
0.00631217
0.00630238
0.00630515
0.00631149
0.00631274
0.00631233
0.00631273
0.00631024
0.00629093
0.0063012
0.00628717
0.00629803
0.00629695
0.00630584
0.00630663
0.00630672
0.00630309
0.00631075
0.00631092
0.0063092
0.00630468
0.00630848
0.00630811
0.00620023
0.006189
0.00629788
0.00626974
0.00624979
0.00624796
0.00625598
0.00629975
0.00630533
0.00630538
0.0063027
0.00630645
0.00630654
0.00630543
0.00630549
0.00630031
0.00629408
0.0062175
0.00620585
0.0063011
0.00630702
0.0063071
0.00630468
0.00630572
0.0063061
0.00519351
0.0051912
0.00623723
0.00622688
0.00630101
0.00519957
0.00519638
0.00628928
0.00629121
0.00630165
0.00631329
0.00631322
0.0052943
0.00526567
0.00528998
0.00547616
0.00551401
0.00521952
0.0052413
0.0054179
0.00538657
0.00568049
0.00614939
0.00614274
0.0061901
0.00567275
0.00562588
0.00614034
0.0063147
0.00631466
0.0063141
0.00631279
0.00631297
0.00631314
0.00631326
0.00631205
0.00631227
0.00631349
0.00631375
0.0063136
0.0063048
0.00630431
0.00630776
0.00630993
0.00630834
0.00630746
0.00627006
0.00627571
0.00625581
0.00625886
0.00628749
0.00628038
0.00624282
0.00624966
0.00619258
0.00619252
0.00622316
0.00621908
0.00617869
0.00619451
0.00619661
0.00630323
0.00627232
0.00627906
0.0062808
0.00625493
0.00629158
0.00628737
0.00630936
0.0063075
0.00629973
0.00619978
0.00619006
0.00627674
0.00624756
0.00620592
0.0063134
0.00631325
0.00631239
0.00631222
0.00631027
0.00631129
0.00629955
0.00631101
0.0063117
0.00627839
0.00628566
0.00631001
0.00617678
0.00616654
0.00629355
0.00629694
0.00631144
0.0063116
0.0063111
0.00630934
0.00631109
0.00631127
0.00629768
0.00618763
0.00618553
0.00624135
0.00624474
0.00630596
0.00630604
0.00630195
0.00630137
0.00630582
0.00630589
0.00535133
0.00554075
0.00583898
0.00585608
0.00565851
0.00567398
0.00534376
0.00622609
0.00621976
0.00629452
0.00544042
0.00541824
0.00558247
0.00558362
0.0054023
0.00563791
0.00564805
0.00540781
0.00542154
0.00630687
0.00630694
0.00630124
0.00630293
0.00630671
0.00630679
0.00587057
0.00621747
0.00622377
0.00620396
0.00621074
0.00584498
0.00624384
0.00628779
0.0062912
0.00629058
0.00628927
0.00624807
0.0061938
0.00623385
0.00622836
0.00616077
0.00615125
0.00616955
0.00524985
0.00528667
0.00529411
0.00520521
0.00617745
0.0057616
0.00569565
0.00581571
0.00577732
0.00613671
0.00601395
0.00602148
0.0061893
0.00620807
0.00628193
0.00631375
0.00631383
0.00631362
0.00522439
0.00523806
0.00565062
0.0056285
0.00439494
0.00536153
0.00526891
0.0052725
0.00523715
0.00525491
0.00538442
0.00411605
0.00614363
0.00617102
0.00631435
0.00631431
0.00631394
0.0063019
0.00630098
0.00630693
0.00630448
0.00630731
0.00630929
0.00630632
0.0063069
0.00626327
0.00628157
0.00622667
0.00623049
0.00623252
0.00622736
0.00627321
0.00623848
0.00623671
0.00608868
0.00602821
0.00602618
0.00603614
0.00603506
0.00607683
0.00630822
0.00631034
0.00631048
0.00630995
0.00631021
0.00630763
0.0062884
0.00630409
0.00629574
0.00629277
0.0063032
0.00630681
0.00630691
0.00624982
0.0062509
0.00626656
0.00625195
0.00630523
0.00630527
0.00629943
0.00630628
0.00630636
0.00630257
0.00630058
0.00630555
0.00630561
0.00623059
0.00624612
0.00623965
0.00625161
0.00624953
0.00622873
0.0051905
0.00519524
0.00520924
0.00520337
0.00559473
0.0053684
0.00535756
0.0060372
0.00603737
0.00613502
0.00605832
0.00607449
0.00602974
0.00604148
0.00612163
0.00631347
0.00631338
0.00631344
0.00631343
0.00631372
0.00631376
0.00631386
0.00631356
0.00631364
0.00631362
0.00607852
0.00617013
0.00616404
0.00618648
0.00617804
0.0060857
0.0061169
0.00614159
0.00612977
0.00615897
0.00615255
0.0061069
0.00631365
0.00631372
0.00631362
0.00631258
0.00631183
0.00631343
0.00631323
0.00529527
0.00544719
0.00530972
0.0053141
0.00524849
0.00524024
0.00561384
0.00563255
0.00539367
0.00521799
0.00520654
0.0055307
0.0052606
0.00524467
0.00526147
0.00564223
0.00532631
0.00526215
0.00615733
0.00616838
0.00621799
0.0061285
0.00613077
0.00612322
0.00612384
0.00619648
0.00614053
0.00614578
0.00541432
0.00520208
0.00521884
0.00519441
0.0051913
0.00542693
0.00631293
0.00631303
0.00631285
0.00631201
0.00631243
0.0063128
0.00630092
0.00630738
0.00630361
0.00630279
0.00630487
0.00630562
0.00630315
0.00630406
0.0062683
0.00627713
0.00623702
0.00623847
0.00623262
0.00623487
0.00628854
0.00626049
0.00626163
0.00623594
0.00623781
0.00627746
0.0062378
0.00620389
0.00619605
0.00618116
0.00621561
0.00621123
0.0062376
0.00619705
0.00619698
0.00620844
0.00620164
0.00623523
0.00625413
0.00621867
0.00622315
0.00620272
0.00621102
0.00625002
0.00619651
0.00612917
0.0062
0.00619398
0.00602796
0.00603514
0.00626626
0.00629528
0.00629344
0.00626271
0.00628584
0.00630261
0.00629822
0.00621681
0.00620698
0.0062659
0.00626776
0.00629197
0.00624141
0.00622878
0.00630505
0.00630755
0.00631159
0.00630911
0.00630194
0.00629206
0.00630135
0.00631082
0.00631156
0.00631178
0.00631071
0.00631108
0.00630953
0.00630771
0.00630928
0.00631213
0.00631152
0.00631121
0.0063123
0.00631173
0.00631234
0.00631063
0.00631082
0.00630989
0.00631093
0.00612146
0.00610347
0.00619677
0.00608573
0.0060998
0.00606078
0.00614133
0.00601285
0.00599921
0.00606585
0.00605863
0.00624592
0.00618765
0.00619746
0.00617331
0.0061793
0.00624342
0.00628543
0.00625586
0.00626269
0.00620192
0.00623921
0.00627756
0.00615885
0.00614745
0.00623527
0.00612569
0.00613222
0.00611582
0.00612085
0.00623362
0.00624067
0.0061644
0.00616891
0.00614076
0.00615147
0.00623938
0.00629239
0.00629799
0.00592553
0.00573057
0.00576079
0.00566716
0.00569665
0.00592676
0.00577893
0.0057744
0.00577494
0.00583984
0.00593392
0.0055215
0.00554426
0.00557792
0.00553014
0.00595134
0.00592317
0.00561932
0.00564148
0.00557601
0.00560037
0.00592291
0.00591192
0.00589874
0.0059724
0.00595151
0.00575613
0.00573821
0.00583942
0.00582754
0.00624473
0.00624613
0.0063021
0.00630611
0.0063062
0.00630568
0.00630574
0.00630116
0.00537009
0.00577931
0.00581461
0.00551021
0.00534585
0.0056999
0.00573763
0.00549635
0.00546684
0.00606605
0.00575898
0.00575602
0.00603122
0.00570964
0.00564683
0.00575083
0.00573844
0.00604628
0.00556565
0.00552944
0.00559244
0.0056227
0.00542609
0.00546205
0.00552997
0.0062416
0.00627035
0.00626786
0.00627404
0.00627226
0.00624375
0.00621376
0.00621952
0.00622251
0.00621125
0.0062108
0.00621526
0.00622067
0.00625649
0.00625365
0.0062644
0.00626032
0.00622522
0.00520113
0.00542646
0.00544348
0.00540181
0.005414
0.00520876
0.00530033
0.0055503
0.00558732
0.00547019
0.00550806
0.00524857
0.00524996
0.00519768
0.00520761
0.00522424
0.00520788
0.0052382
0.00535677
0.00538537
0.0052458
0.0053025
0.00524044
0.00624229
0.00623862
0.00620157
0.0061537
0.00616575
0.00521415
0.00524954
0.00551273
0.00527023
0.00522181
0.00534283
0.00531742
0.0055436
0.00521698
0.00521511
0.00602605
0.00602765
0.00631903
0.00631903
0.00632014
0.00631901
0.006319
0.00632013
0.00631901
0.00631901
0.00632013
0.00631902
0.00631904
0.00632014
0.00631683
0.00631681
0.00631792
0.00631678
0.00631676
0.00631847
0.00631674
0.0063167
0.00631844
0.00631671
0.00631674
0.00631844
0.00631677
0.00631681
0.00631848
0.00631685
0.00631687
0.00631795
0.00631465
0.0063146
0.00631625
0.00631456
0.00631445
0.00631618
0.00631556
0.00631553
0.00631644
0.00631546
0.0063155
0.0063164
0.00631562
0.00631566
0.00631621
0.00631466
0.00631472
0.00631579
0.00631251
0.00631245
0.00631406
0.00631348
0.00631346
0.006314
0.00631383
0.00631381
0.00631409
0.00631336
0.00631348
0.00631429
0.00631255
0.00631262
0.00631366
0.0063104
0.00631035
0.00631192
0.00631136
0.00631137
0.00631188
0.00631174
0.00631174
0.00631199
0.00631133
0.00631143
0.00631218
0.00631051
0.00631056
0.00631159
0.00630829
0.00630828
0.00630983
0.0063093
0.00630932
0.00630983
0.00630975
0.00630975
0.00630999
0.00630941
0.00630947
0.0063102
0.0063085
0.0063085
0.00630953
0.00630617
0.00630619
0.00630776
0.00630723
0.00630727
0.00630778
0.00630776
0.00630777
0.00630802
0.00630748
0.0063075
0.00630824
0.00630647
0.00630644
0.00630748
0.00630404
0.00630408
0.00630567
0.00630571
0.0063057
0.00630596
0.00630546
0.00630545
0.00630622
0.0063044
0.00630435
0.0063054
0.00630189
0.00630192
0.00630354
0.00630328
0.00630335
0.00630388
0.00630227
0.00630223
0.0063033
0.00629967
0.00629967
0.00630077
0.00629971
0.00629958
0.00630126
0.00630063
0.00629967
0.00630056
0.00495408
0.00624503
0.00625167
0.00629985
0.00630012
0.00630176
0.00630006
0.00630008
0.00630116
0.0062975
0.00629751
0.00629859
0.00629754
0.00629734
0.00629902
0.00629715
0.00558025
0.00556426
0.00592893
0.00629729
0.00629908
0.00629753
0.0062979
0.00629954
0.00629787
0.0062979
0.00629899
0.00629537
0.00629522
0.00629634
0.0062913
0.00590578
0.00558491
0.00611559
0.00629456
0.00629668
0.00629536
0.0062957
0.0062968
0.00631224
0.0063125
0.0063125
0.00631254
0.00631263
0.00631222
0.00631411
0.00631384
0.00631385
0.00631024
0.00631049
0.00631049
0.0063106
0.00631057
0.0063102
0.00631209
0.0063117
0.0063118
0.00630827
0.00630852
0.00630851
0.00630869
0.00630864
0.00630828
0.00631007
0.00630971
0.00630988
0.00630623
0.00630649
0.00630649
0.00630673
0.00630669
0.00630635
0.00630816
0.0063078
0.00630796
0.00630465
0.00630454
0.00630427
0.0063061
0.00630584
0.00630596
0.00630085
0.00630199
0.0063027
0.00438979
0.00550633
0.00550438
0.00583849
0.00584029
0.00412312
0.006304
0.00630373
0.00630382
0.00631429
0.00631523
0.00631527
0.006314
0.006314
0.0063139
0.00631641
0.0063155
0.00631546
0.00631397
0.00631399
0.0063147
0.00631468
0.00631439
0.00631644
0.00631554
0.00631557
0.0063124
0.00631293
0.00631294
0.00631307
0.00631291
0.00631239
0.00631398
0.00631344
0.00631334
0.00631317
0.00631312
0.00631285
0.00631403
0.00631387
0.0063139
0.00631244
0.00631322
0.0063131
0.00631302
0.00631302
0.00631251
0.00631406
0.00631354
0.00631355
0.00631034
0.00631085
0.00631085
0.006311
0.00631086
0.00631035
0.00631188
0.00631137
0.00631126
0.00631123
0.00631148
0.00631148
0.00631001
0.00631087
0.00631069
0.00631189
0.00631173
0.00631137
0.00631062
0.00630989
0.00631101
0.00631044
0.00631118
0.00631109
0.00631099
0.00631102
0.00631052
0.00631201
0.00631151
0.00631149
0.0063083
0.00630881
0.00630878
0.00630902
0.00630884
0.00630833
0.00630985
0.00630934
0.00630926
0.00630926
0.0063095
0.0063095
0.00630505
0.00630807
0.00630795
0.0063089
0.00630873
0.00630588
0.00630849
0.00630922
0.00630918
0.006309
0.00630905
0.00630856
0.00631003
0.00630954
0.0063095
0.00630623
0.00630675
0.00630671
0.00630701
0.00630679
0.00630627
0.00630782
0.00630731
0.00630726
0.00630726
0.00630751
0.00630751
0.00630454
0.00630749
0.00630711
0.00630702
0.00630692
0.00630458
0.00629197
0.0062667
0.00627008
0.00630648
0.00630724
0.00630724
0.006307
0.00630706
0.00630655
0.00630806
0.00630756
0.0063075
0.00630237
0.00628722
0.00629083
0.00629653
0.00629719
0.00630282
0.00630441
0.00630494
0.00630519
0.00630495
0.00630501
0.00630448
0.00630604
0.00630553
0.00630546
0.00630221
0.0063007
0.00630072
0.00630004
0.00630023
0.00630262
0.00629882
0.00629938
0.00630003
0.00513421
0.00629435
0.00629284
0.00613345
0.00613281
0.00471886
0.00629731
0.00629804
0.00551379
0.00630026
0.00629987
0.00629917
0.00630117
0.00630017
0.00630091
0.00631204
0.00631219
0.00631204
0.0063131
0.0063127
0.00631255
0.00631276
0.00631275
0.00631301
0.00631278
0.00631221
0.00631286
0.00631393
0.0063139
0.00631406
0.006313
0.00631317
0.00631321
0.00631159
0.00631111
0.00631094
0.00631294
0.00631285
0.00631288
0.00631303
0.00631277
0.00631279
0.0063128
0.00631284
0.00631298
0.00631202
0.00631216
0.00631205
0.00630678
0.00630926
0.00630908
0.00631049
0.00631028
0.00630882
0.00631074
0.00631074
0.00631099
0.00630503
0.00629769
0.00629943
0.00628158
0.00628211
0.00629737
0.00630063
0.00630149
0.0063067
0.00631106
0.00631069
0.00631084
0.00630835
0.0063096
0.0063098
0.00631124
0.00631175
0.00631189
0.00630994
0.00631006
0.00630896
0.00631156
0.00631157
0.00631119
0.00630463
0.00630722
0.00630712
0.00630784
0.00630773
0.00630483
0.00630876
0.00630876
0.00630901
0.00629546
0.00627958
0.00627889
0.00628674
0.00628609
0.00629836
0.00629637
0.00628063
0.00628109
0.00627841
0.0062781
0.00629482
0.00630912
0.00630876
0.00630893
0.00630549
0.00630546
0.00630078
0.00630964
0.00630959
0.00630924
0.00629761
0.00625864
0.00625186
0.00628285
0.0062816
0.00629922
0.0062991
0.00628805
0.0062874
0.00624967