/*--------------------------------*- C++ -*----------------------------------*\
| =========                 |                                                 |
| \\      /  F ield         | OpenFOAM: The Open Source CFD Toolbox           |
|  \\    /   O peration     | Version:  5.x                                   |
|   \\  /    A nd           | Web:      www.OpenFOAM.org                      |
|    \\/     M anipulation  |                                                 |
\*---------------------------------------------------------------------------*/
FoamFile
{
    version     2.0;
    format      ascii;
    class       volScalarField;
    location    "100";
    object      YSat;
}
// * * * * * * * * * * * * * * * * * * * * * * * * * * * * * * * * * * * * * //

dimensions      [0 0 0 0 0 0 0];

internalField   nonuniform List<scalar> 
6584
(
0.00431405
0.00431405
0.00431405
0.00431405
0.00431405
0.00431405
0.00431405
0.00431405
0.00431405
0.00431405
0.00431405
0.00431405
0.00431405
0.00431405
0.00431405
0.00431405
0.00431405
0.00431405
0.00431405
0.00431405
0.00431405
0.00431405
0.00431405
0.00431405
0.00431405
0.00431405
0.00431405
0.00431405
0.00431405
0.00431405
0.00431405
0.00431405
0.00431405
0.00431405
0.00431405
0.00431405
0.00431405
0.00431405
0.00431405
0.00431405
0.00431405
0.00431405
0.00431405
0.00431405
0.00431405
0.00431405
0.00431405
0.00431405
0.00431405
0.00431405
0.00431405
0.00431405
0.00431405
0.00431405
0.00431405
0.00431405
0.00431405
0.00431405
0.00431405
0.00431405
0.00431405
0.00431405
0.00431405
0.00431405
0.00431405
0.00431405
0.00431405
0.00431405
0.00431405
0.00431405
0.00431405
0.00431405
0.00431405
0.00431405
0.00431405
0.00431405
0.00431405
0.00431405
0.00431405
0.00431405
0.00431405
0.00431405
0.00431405
0.00431405
0.00431405
0.00431405
0.00431405
0.00431405
0.00431405
0.00431405
0.00431405
0.00431405
0.00431405
0.00431405
0.00431405
0.00431405
0.00431405
0.00431405
0.00431405
0.00431405
0.00431405
0.00431405
0.00431405
0.00431405
0.00431405
0.00431405
0.00431405
0.00431405
0.00431405
0.00431405
0.00431405
0.00431405
0.00431405
0.00431405
0.00431405
0.00431405
0.00431405
0.00431405
0.00431405
0.00431405
0.00431405
0.00431405
0.00431405
0.00431405
0.00431405
0.00431405
0.00431405
0.00431405
0.00431405
0.00431405
0.00431405
0.00431405
0.00431405
0.00431405
0.00431405
0.00431405
0.00431405
0.00431405
0.00431405
0.00431405
0.00431405
0.00431405
0.00431405
0.00431405
0.00431405
0.00431405
0.00431405
0.00431405
0.00431405
0.00431405
0.00431405
0.00431405
0.00431405
0.00431405
0.00431405
0.00431405
0.00431405
0.00431405
0.00431405
0.00431405
0.00431405
0.00431405
0.00431405
0.00431405
0.00431405
0.00431405
0.00431405
0.00431405
0.00431405
0.00431405
0.00431405
0.00431405
0.00431405
0.00431405
0.00431405
0.00431405
0.00431405
0.00431405
0.00431405
0.00431405
0.00431405
0.00431405
0.00431405
0.00431405
0.00431405
0.00431405
0.00431405
0.00431405
0.00431405
0.00431405
0.00431405
0.00431405
0.00431405
0.00431405
0.00431405
0.00431405
0.00431405
0.00431405
0.00431405
0.00431405
0.00431405
0.00431405
0.00431405
0.00431405
0.00431405
0.00431405
0.00431405
0.00431405
0.00431405
0.00431405
0.00431405
0.00431405
0.00431405
0.00431405
0.00431405
0.00431405
0.00431405
0.00431405
0.00431405
0.00431405
0.00431405
0.00431405
0.00431405
0.00431405
0.00431405
0.00431405
0.00431405
0.00431405
0.00431405
0.00431405
0.00431405
0.00431405
0.00431405
0.00431405
0.00431405
0.00431405
0.00431405
0.00431405
0.00431405
0.00431405
0.00431405
0.00431405
0.00431405
0.00431405
0.00431405
0.00431405
0.00431405
0.00431405
0.00431405
0.00431405
0.00431405
0.00431405
0.00431405
0.00431405
0.00431405
0.00431405
0.00431405
0.00431405
0.00431405
0.00431405
0.00431405
0.00431405
0.00431405
0.00431405
0.00431405
0.00431405
0.00431405
0.00431405
0.00431405
0.00431405
0.00431405
0.00431405
0.00431405
0.00431405
0.00431405
0.00431405
0.00431405
0.00431405
0.00431405
0.00431405
0.00431405
0.00431405
0.00431405
0.00431405
0.00431405
0.00431405
0.00431405
0.00431405
0.00431405
0.00431405
0.00431405
0.00431405
0.00431405
0.00431405
0.00431405
0.00431405
0.00431405
0.00431405
0.00431405
0.00431405
0.00431405
0.00431405
0.00431405
0.00431405
0.00431405
0.00431405
0.00431405
0.00431405
0.00431405
0.00431405
0.00431405
0.00431405
0.00431405
0.00431405
0.00431405
0.00431405
0.00431405
0.00431405
0.00364828
0.00431405
0.00431405
0.00431405
0.00431405
0.00431405
0.00431405
0.00431405
0.00431405
0.00431405
0.00431405
0.00431405
0.00431405
0.00431405
0.00431405
0.00431405
0.00431405
0.00431405
0.00431405
0.00431405
0.00431405
0.00431405
0.00431405
0.00431405
0.00415609
0.00431405
0.00431405
0.00431405
0.00431405
0.00431405
0.00431405
0.00431405
0.00431405
0.00431405
0.00431405
0.00431405
0.00431405
0.00431405
0.00431405
0.00431405
0.00431405
0.00431405
0.00431405
0.00431405
0.00431405
0.00431405
0.00431405
0.00431405
0.0041714
0.00431405
0.00431405
0.00431405
0.00431405
0.00431405
0.00431405
0.00431405
0.00431405
0.00431405
0.00431405
0.00431405
0.00431405
0.00431405
0.00431405
0.00431405
0.00431405
0.00431405
0.00431405
0.00431405
0.00431405
0.00431405
0.00431405
0.00431303
0.00424602
0.00431405
0.00431405
0.00431405
0.00431405
0.00431405
0.00431405
0.00431405
0.00431405
0.00431405
0.00431405
0.00431405
0.00431405
0.00431405
0.00431405
0.00431405
0.00431405
0.00431405
0.00431405
0.00431405
0.00431405
0.00431405
0.00431405
0.00431201
0.00424858
0.00431405
0.00431405
0.00431405
0.00431405
0.00431405
0.00431405
0.00431405
0.00431405
0.00431405
0.00431405
0.00431405
0.00431405
0.00431405
0.00431405
0.00431405
0.00431405
0.00431405
0.00431405
0.00431405
0.00431405
0.00431405
0.00431386
0.00427682
0.00428224
0.00431404
0.00431405
0.00431405
0.00431405
0.00431405
0.00431405
0.00431405
0.00431405
0.00431405
0.00431405
0.00431405
0.00431405
0.00431405
0.00431405
0.00431405
0.00431405
0.00431405
0.00431405
0.00431405
0.00431405
0.00431405
0.00431371
0.00427702
0.00428273
0.00431404
0.00431405
0.00431405
0.00431405
0.00431405
0.00431405
0.00431405
0.00431405
0.00431405
0.00431405
0.00431405
0.00431405
0.00431405
0.00431405
0.00431405
0.00431405
0.00431405
0.00431405
0.00431405
0.00431405
0.00431404
0.00431358
0.00427723
0.00428319
0.00431404
0.00431405
0.00431405
0.00431405
0.00431405
0.00431405
0.00431405
0.00431405
0.00431405
0.00431405
0.00431405
0.00431405
0.00431405
0.00431405
0.00431405
0.00431405
0.00431405
0.00431405
0.00431405
0.00431405
0.00431404
0.00431346
0.00427743
0.00428362
0.00431403
0.00431405
0.00431405
0.00431405
0.00431405
0.00431405
0.00431405
0.00431405
0.00431405
0.00431405
0.00431405
0.00431405
0.00431405
0.00431405
0.00431405
0.00431405
0.00431405
0.00431405
0.00431405
0.00431405
0.00431404
0.00431336
0.00427763
0.00428403
0.00431403
0.00431405
0.00431405
0.00431405
0.00431405
0.00431405
0.00431405
0.00431405
0.00431405
0.00431405
0.00431405
0.00431405
0.00431405
0.00431405
0.00431405
0.00431405
0.00431405
0.00431405
0.00431405
0.00431405
0.00431404
0.00431327
0.00427783
0.00428443
0.00431403
0.00431405
0.00431405
0.00431405
0.00431405
0.00431405
0.00431405
0.00431405
0.00431405
0.00431405
0.00431405
0.00431405
0.00431405
0.00431405
0.00431405
0.00431405
0.00431405
0.00431405
0.00431405
0.00431405
0.00431404
0.0043132
0.00427803
0.00428482
0.00431402
0.00431405
0.00431405
0.00431405
0.00431405
0.00431405
0.00431405
0.00431405
0.00431405
0.00431405
0.00431405
0.00431405
0.00431405
0.00431405
0.00431405
0.00431405
0.00431405
0.00431405
0.00431405
0.00431405
0.00431403
0.00431313
0.00427824
0.0042852
0.00431402
0.00431405
0.00431405
0.00431405
0.00431405
0.00431405
0.00431405
0.00431405
0.00431405
0.00431405
0.00431405
0.00431405
0.00431405
0.00431405
0.00431405
0.00431405
0.00431405
0.00431405
0.00431405
0.00431405
0.00431403
0.00431306
0.00427844
0.00428558
0.00431401
0.00431405
0.00431405
0.00431405
0.00431405
0.00431405
0.00431405
0.00431405
0.00431405
0.00431405
0.00431405
0.00431405
0.00431405
0.00431405
0.00431405
0.00431405
0.00431405
0.00431405
0.00431405
0.00431405
0.00431403
0.00431301
0.00427865
0.00428596
0.00431401
0.00431405
0.00431405
0.00431405
0.00431405
0.00431405
0.00431405
0.00431405
0.00431405
0.00431405
0.00431405
0.00431405
0.00431405
0.00431405
0.00431405
0.00431405
0.00431405
0.00431405
0.00431405
0.00431405
0.00431403
0.00431297
0.00427886
0.00428631
0.00431401
0.00431405
0.00431405
0.00431405
0.00431405
0.00431405
0.00431405
0.00431405
0.00431405
0.00431405
0.00431405
0.00431405
0.00431405
0.00431405
0.00431405
0.00431405
0.00431405
0.00431405
0.00431405
0.00431405
0.00431402
0.00431294
0.00427907
0.00428665
0.004314
0.00431405
0.00431405
0.00431405
0.00431405
0.00431405
0.00431405
0.00431405
0.00431405
0.00431405
0.00431405
0.00431405
0.00431405
0.00431405
0.00431405
0.00431405
0.00431405
0.00431405
0.00431405
0.00431405
0.00431402
0.00431292
0.00427928
0.00428698
0.004314
0.00431405
0.00431405
0.00431405
0.00431405
0.00431405
0.00431405
0.00431405
0.00431405
0.00431405
0.00431405
0.00431405
0.00431405
0.00431405
0.00431405
0.00431405
0.00431405
0.00431405
0.00431405
0.00431405
0.00431402
0.00431292
0.00427949
0.00428729
0.004314
0.00431405
0.00431405
0.00431405
0.00431405
0.00431405
0.00431405
0.00431405
0.00431405
0.00431405
0.00431405
0.00431405
0.00431405
0.00431405
0.00431405
0.00431405
0.00431405
0.00431405
0.00431405
0.00431405
0.00431402
0.00431292
0.00427971
0.00428758
0.004314
0.00431405
0.00431405
0.00431405
0.00431405
0.00431405
0.00431405
0.00431405
0.00431405
0.00431405
0.00431405
0.00431405
0.00431405
0.00431405
0.00431405
0.00431405
0.00431405
0.00431405
0.00431405
0.00431405
0.00431402
0.00431294
0.00427993
0.00428786
0.00431399
0.00431405
0.00431405
0.00431405
0.00431405
0.00431405
0.00431405
0.00431405
0.00431405
0.00431405
0.00431405
0.00431405
0.00431405
0.00431405
0.00431405
0.00431405
0.00431405
0.00431405
0.00431405
0.00431405
0.00431402
0.00431296
0.00428015
0.00428811
0.00431399
0.00431405
0.00431405
0.00431405
0.00431405
0.00431405
0.00431405
0.00431405
0.00431405
0.00431405
0.00431405
0.00431405
0.00431405
0.00431405
0.00431405
0.00431405
0.00431405
0.00431405
0.00431405
0.00431405
0.00431402
0.00431297
0.00428038
0.00428835
0.00431399
0.00431405
0.00431405
0.00431405
0.00431405
0.00431405
0.00431405
0.00431405
0.00431405
0.00431405
0.00431405
0.00431405
0.00431405
0.00431405
0.00431405
0.00431405
0.00431405
0.00431405
0.00431405
0.00431405
0.00431405
0.00431405
0.00431405
0.00431405
0.00431405
0.00431405
0.00431405
0.00388704
0.00362384
0.00431405
0.00431405
0.00431405
0.00431405
0.00431405
0.00431405
0.00431405
0.00431405
0.00431405
0.00431404
0.00431405
0.00431405
0.00431405
0.00431405
0.00431405
0.00431405
0.00431405
0.00431405
0.00431339
0.00431382
0.00431135
0.00431366
0.00431405
0.00431405
0.00431405
0.00431405
0.00431405
0.00431405
0.00431405
0.0043132
0.00431299
0.00428424
0.00429788
0.00431405
0.00431405
0.00431405
0.00431405
0.00431405
0.00431405
0.00431405
0.0043138
0.00431359
0.00431019
0.00429725
0.00431405
0.00431405
0.00431405
0.00431387
0.00431367
0.00431405
0.00431405
0.00431405
0.00431404
0.00431401
0.00431405
0.00405803
0.00388412
0.0040138
0.00431405
0.00431405
0.00431389
0.00431405
0.00431405
0.00431404
0.0043134
0.00431405
0.00431404
0.00431373
0.00431404
0.00431405
0.00431405
0.00431393
0.00431299
0.00431332
0.00431405
0.004312
0.00431086
0.00431316
0.00431211
0.00429889
0.00431124
0.00431405
0.00431263
0.00430975
0.0043139
0.00431269
0.00431405
0.00431355
0.00431324
0.00431405
0.00431209
0.00431326
0.00431088
0.00431199
0.00429644
0.0042836
0.00431405
0.00430917
0.00431132
0.00430971
0.00430918
0.00431405
0.00431349
0.00431379
0.00431331
0.00431343
0.00431362
0.00431071
0.00431405
0.00431346
0.00431391
0.00431145
0.00431338
0.00431405
0.00431396
0.00431401
0.00431382
0.00431395
0.004314
0.0043139
0.00431393
0.004314
0.00431405
0.00431404
0.00431404
0.00431402
0.00431404
0.00431404
0.00431404
0.00431405
0.00431405
0.00431405
0.00431394
0.00431405
0.00431405
0.00431405
0.00431405
0.00431405
0.00431401
0.00431396
0.00430958
0.00430361
0.00431405
0.00431405
0.00431405
0.00431405
0.00431395
0.00431405
0.00431405
0.00431405
0.00431394
0.00431383
0.00431405
0.00400519
0.00411301
0.00429425
0.00430454
0.00412195
0.00420965
0.00430224
0.00428663
0.00431405
0.00431401
0.00431403
0.0043055
0.00430975
0.00431404
0.00431404
0.00431405
0.00431405
0.00431405
0.00431405
0.00431405
0.00431405
0.00431405
0.0043139
0.00431405
0.00431398
0.00431405
0.004314
0.00431405
0.00431216
0.00431277
0.00429158
0.0042923
0.00430612
0.00430485
0.00431376
0.00428191
0.0043139
0.00431243
0.00431011
0.00430947
0.00431214
0.00431402
0.00429616
0.00431395
0.00426473
0.00430777
0.00425633
0.00431387
0.00430911
0.00431394
0.00431405
0.00431365
0.00430094
0.00431398
0.00431399
0.00431096
0.00431091
0.00431275
0.00431266
0.00430405
0.00430472
0.00430986
0.00431401
0.00431402
0.00431399
0.00431401
0.00430985
0.00431346
0.00431404
0.00431405
0.00431403
0.00431404
0.00431326
0.00431274
0.00431282
0.00431127
0.00431135
0.0042771
0.00427784
0.00430921
0.00431399
0.00431399
0.004314
0.00431399
0.00430929
0.00430951
0.00431399
0.00431399
0.00431399
0.00431399
0.00430948
0.00400955
0.00431365
0.0041077
0.00399315
0.00420945
0.00411763
0.00431369
0.00431313
0.0039967
0.00431321
0.00431293
0.00431275
0.00431253
0.00431401
0.004314
0.00431402
0.00431401
0.0043127
0.0042692
0.0042918
0.00431389
0.0042649
0.00421636
0.00429272
0.00426942
0.00431391
0.0042175
0.00426481
0.00431397
0.00430179
0.00430886
0.00428441
0.00430013
0.00431395
0.00428241
0.00431051
0.00431143
0.00411151
0.00431015
0.00431012
0.00387696
0.00431266
0.0043126
0.00431403
0.00431405
0.00431405
0.00431405
0.00431405
0.00431404
0.00431404
0.00396951
0.0043139
0.00431404
0.00431404
0.00431403
0.00431401
0.00431405
0.00412104
0.00414631
0.00379988
0.00431067
0.00431096
0.00416415
0.00419641
0.00430905
0.00431268
0.00332478
0.00431405
0.00431405
0.00431405
0.00431405
0.00431405
0.00431405
0.00431357
0.00431404
0.00431403
0.0043114
0.00431028
0.00431327
0.00431308
0.00431402
0.00431402
0.00431402
0.00431402
0.00431305
0.00428748
0.00429562
0.00430863
0.00429937
0.00426444
0.00424649
0.00431403
0.00431236
0.00431331
0.00431401
0.00431402
0.00405588
0.00431405
0.00431402
0.00431405
0.00431384
0.0043118
0.00431073
0.00431404
0.00431405
0.00431405
0.00431405
0.00431405
0.00431402
0.00431305
0.00431402
0.00431402
0.00431403
0.00431402
0.00431309
0.00431144
0.00427306
0.00429513
0.00426865
0.00426942
0.00431083
0.00429667
0.00429709
0.00431234
0.00430106
0.00430688
0.00431102
0.00431378
0.0043138
0.0043136
0.00431363
0.0043098
0.00431402
0.00431403
0.00431338
0.00431241
0.0042766
0.00426421
0.00431101
0.00426737
0.0042687
0.00426141
0.00426017
0.0043117
0.00428911
0.00427962
0.00430907
0.00431369
0.00431364
0.00431376
0.00431382
0.00431056
0.00430964
0.00431357
0.00431359
0.00431363
0.0043136
0.0043093
0.0043134
0.00429893
0.0043037
0.00428602
0.00428449
0.00431181
0.00431383
0.00431403
0.00431402
0.00431404
0.00431403
0.00431385
0.00431399
0.00430494
0.00429484
0.00430997
0.00430829
0.004314
0.00426894
0.00427734
0.00431403
0.00431152
0.00431043
0.00425561
0.00426598
0.00428291
0.00426887
0.00431403
0.00431404
0.00431404
0.00424502
0.00430763
0.00425389
0.00426342
0.0042579
0.00430685
0.00431405
0.004314
0.00431405
0.00431386
0.00431404
0.00402827
0.00405852
0.00411721
0.00411971
0.00429963
0.00418199
0.0041598
0.00421545
0.00418852
0.004301
0.00415396
0.00416976
0.004297
0.00429451
0.00430776
0.00424724
0.00422619
0.00420184
0.00422014
0.00431377
0.00431403
0.00431404
0.00431394
0.00431402
0.00431367
0.00431145
0.0043132
0.00428819
0.00429484
0.00430815
0.00430035
0.00428177
0.00430818
0.00430561
0.00431049
0.0043089
0.00428193
0.00429872
0.00429471
0.00430468
0.00430044
0.00431171
0.00428584
0.00429364
0.00426988
0.00428191
0.00431139
0.00423676
0.00424162
0.00428493
0.00431235
0.00431083
0.00431374
0.00431279
0.0042905
0.00430234
0.00430048
0.00430967
0.00430339
0.00431309
0.00431401
0.00431385
0.00431247
0.00431129
0.00431328
0.00431206
0.00431388
0.00431234
0.0043136
0.0043139
0.00431261
0.00431347
0.00431403
0.00431377
0.00431337
0.00426942
0.00427046
0.00431125
0.00423028
0.00420957
0.00427522
0.0042324
0.00418302
0.0041651
0.00420363
0.00419289
0.00431084
0.00426982
0.00426944
0.00428036
0.00427801
0.0042996
0.00428543
0.00427987
0.00427935
0.00427856
0.00427965
0.00431242
0.00429703
0.00429693
0.00430179
0.00430652
0.0043137
0.00431376
0.00431035
0.00430982
0.00431364
0.00431368
0.00428245
0.00427901
0.0043125
0.00416109
0.00417191
0.0040705
0.0041483
0.00418367
0.00421067
0.00417361
0.00418022
0.00426522
0.004267
0.00431107
0.00413806
0.00411949
0.00416275
0.00414311
0.00408095
0.00406531
0.00411135
0.00409224
0.00431162
0.00426171
0.00426423
0.00428428
0.00427903
0.00431374
0.0043137
0.00430909
0.00431013
0.00431381
0.00431376
0.00431357
0.00431357
0.00430961
0.00430932
0.00431359
0.00431357
0.00401599
0.0040496
0.00429874
0.00430326
0.00429071
0.00429684
0.00401677
0.00417612
0.00430802
0.00430277
0.00430438
0.00430724
0.004159
0.00424898
0.00425864
0.00422337
0.00424536
0.00401349
0.00428039
0.0042886
0.00426239
0.00427628
0.00401115
0.00429317
0.00429749
0.0043133
0.00428332
0.00428666
0.0042929
0.00428403
0.00428631
0.00431206
0.00428355
0.0042902
0.00427987
0.00407805
0.00407127
0.00414727
0.00408719
0.00428312
0.00411469
0.00423836
0.00406899
0.00424588
0.00429296
0.00431196
0.00431092
0.00431289
0.00431224
0.00429455
0.00427406
0.0042756
0.00428029
0.00428703
0.00422884
0.00425113
0.00429223
0.00428604
0.00431405
0.00431405
0.00431405
0.00431405
0.00431405
0.00431405
0.00431405
0.00431405
0.00431405
0.00431404
0.00431405
0.00431405
0.00431405
0.00431405
0.00431405
0.00431405
0.00431404
0.00431364
0.00431137
0.00430692
0.00430633
0.00428496
0.0042971
0.00431403
0.00431404
0.00431369
0.00428306
0.00428172
0.00429793
0.00430476
0.00430716
0.00431379
0.00431401
0.00431405
0.00431405
0.0043079
0.00430936
0.00431358
0.00431398
0.00431384
0.00431403
0.0043131
0.00430203
0.00430731
0.00429961
0.00430573
0.00430508
0.00431087
0.00431201
0.00431202
0.00430977
0.00431385
0.00431388
0.0043128
0.00431342
0.00431403
0.00431403
0.00429222
0.00428718
0.00431308
0.00429528
0.00428486
0.00428438
0.00428299
0.00430917
0.00431228
0.00431224
0.00430969
0.00431199
0.004312
0.00431221
0.00431217
0.00430919
0.00431296
0.00429863
0.00429426
0.00431182
0.0043138
0.00431378
0.00431397
0.00431404
0.00431404
0.00415539
0.00415736
0.00431248
0.00431181
0.00431403
0.00415193
0.00415365
0.0043134
0.0043136
0.00431404
0.00431397
0.00431391
0.00400453
0.00401789
0.00402382
0.00410216
0.0041308
0.00400785
0.00401218
0.0041143
0.004098
0.0041995
0.00427424
0.00427218
0.00428943
0.00426439
0.00425163
0.00430834
0.00431405
0.00431405
0.00431405
0.00431374
0.00431388
0.00431398
0.00431402
0.0043135
0.00431361
0.00431405
0.00431405
0.00431404
0.00430974
0.00430945
0.00431174
0.00431303
0.00431199
0.00431144
0.00428988
0.00429304
0.00429279
0.00429469
0.004307
0.00430326
0.00428554
0.00428941
0.00428386
0.00428334
0.00429706
0.0042954
0.00428094
0.00428355
0.00428381
0.00431382
0.00430796
0.00430993
0.00429181
0.00427435
0.00429947
0.00429665
0.00431158
0.00431031
0.00430489
0.00424182
0.0042368
0.00428955
0.00427018
0.00424198
0.00431404
0.00431403
0.00431351
0.00431332
0.00431198
0.00431265
0.0043047
0.00431286
0.0043133
0.00429698
0.00429949
0.00431302
0.00422973
0.00422497
0.00430337
0.00430538
0.00431397
0.00431399
0.00431368
0.00431285
0.00431391
0.00431394
0.00431302
0.00428609
0.00428332
0.00427766
0.00427818
0.00431202
0.00431201
0.00430954
0.0043094
0.00431205
0.00431203
0.004015
0.00409625
0.00420627
0.00421427
0.00412382
0.00413402
0.00399056
0.00430224
0.00429961
0.00431305
0.00398667
0.00398089
0.00403242
0.0040364
0.00400223
0.00410668
0.0041153
0.0039808
0.00399151
0.00431384
0.00431382
0.00431197
0.00431304
0.00431388
0.00431386
0.00424507
0.00430634
0.00430732
0.00430406
0.00430524
0.00423722
0.00430542
0.0043127
0.00431304
0.00431307
0.0043129
0.00430646
0.00428792
0.00430076
0.00429893
0.00427764
0.0042744
0.00427854
0.00418422
0.00419719
0.00420164
0.00413922
0.00431109
0.00428099
0.00426906
0.00429041
0.0042838
0.0043097
0.004236
0.00423841
0.0042956
0.00430098
0.004313
0.00431403
0.00431403
0.00431399
0.00412421
0.00413223
0.00427481
0.00427186
0.00374039
0.0041802
0.00414822
0.00414757
0.00414096
0.00414522
0.00418983
0.00334042
0.00427957
0.00429225
0.00431405
0.00431405
0.00431405
0.00430803
0.00430748
0.00431138
0.00430913
0.00431107
0.00431235
0.00431049
0.00431083
0.00428639
0.00429635
0.00428217
0.00428339
0.004286
0.0042831
0.0042986
0.00428101
0.00428072
0.00426028
0.00423638
0.00423629
0.00423841
0.00423861
0.00425506
0.00431148
0.00431292
0.00431298
0.00431274
0.00431288
0.00431113
0.00430033
0.00430978
0.00430436
0.00430248
0.00430978
0.00431203
0.00431204
0.0042839
0.00428498
0.00429321
0.00428086
0.00431237
0.00431232
0.0043091
0.00431199
0.00431199
0.00430967
0.00430926
0.00431214
0.00431211
0.00428651
0.00429296
0.00428971
0.00429622
0.00429488
0.00428625
0.00415971
0.00416367
0.00414966
0.00415043
0.00425938
0.00420546
0.00419967
0.00424323
0.00424262
0.0042788
0.00425098
0.00425771
0.00423843
0.0042437
0.00427389
0.004314
0.00431398
0.00431402
0.00431396
0.00431403
0.00431404
0.00431405
0.00431401
0.00431403
0.004314
0.00425287
0.00428738
0.00428496
0.00429296
0.00429018
0.00425607
0.00426606
0.00427557
0.00427059
0.00428274
0.00427998
0.00426254
0.00431402
0.00431404
0.00431403
0.00431345
0.00431297
0.00431395
0.00431386
0.00400928
0.004086
0.00402804
0.00402551
0.00411823
0.00411892
0.00422584
0.0042324
0.00416846
0.00401714
0.00400743
0.00414097
0.00404773
0.00404528
0.00404377
0.00418589
0.00407047
0.00403969
0.00427906
0.00428343
0.00429911
0.00426848
0.00426876
0.00426762
0.00426727
0.0042919
0.00427183
0.00427424
0.00420708
0.00413302
0.00413667
0.00413475
0.00413167
0.00421292
0.00431393
0.00431396
0.00431384
0.00431338
0.00431368
0.00431389
0.00430713
0.00431153
0.00430904
0.00430855
0.00430962
0.00431007
0.00430857
0.00430913
0.00428894
0.00429382
0.00428461
0.00428471
0.00428375
0.00428419
0.00430764
0.00429591
0.00429689
0.00428096
0.00428251
0.00430166
0.00428376
0.00428892
0.00428555
0.00428129
0.00429384
0.00429192
0.00429726
0.00428188
0.00428239
0.0042855
0.00428321
0.00429602
0.00430357
0.00429199
0.00429401
0.00428512
0.00428877
0.00430214
0.0042832
0.0042741
0.00429726
0.00429536
0.00423389
0.0042364
0.00428182
0.00430193
0.00430069
0.00427956
0.00429531
0.00430695
0.00430393
0.00425108
0.00424544
0.00428482
0.00428554
0.00430108
0.00426639
0.0042584
0.00430844
0.00431013
0.00431292
0.00431113
0.00430634
0.00429951
0.00430591
0.00431308
0.00431357
0.00431368
0.00431309
0.00431329
0.00431224
0.00431098
0.00431201
0.00431368
0.00431326
0.00431309
0.00431371
0.00431337
0.00431378
0.00431281
0.00431286
0.00431226
0.00431298
0.00422632
0.00421708
0.0042633
0.00420343
0.00421028
0.00419022
0.00423454
0.00417523
0.00416927
0.00419928
0.00419653
0.00427815
0.00424469
0.00424919
0.00423936
0.00424124
0.00427772
0.00429787
0.00427987
0.00428337
0.00425044
0.00427087
0.00429369
0.00422213
0.004217
0.00428008
0.004221
0.00422331
0.00421827
0.0042197
0.00428013
0.00427916
0.00423756
0.00423849
0.00422677
0.00423151
0.00427944
0.00430269
0.004306
0.00416728
0.00407361
0.00408649
0.0040469
0.00405897
0.00417014
0.00409018
0.00409096
0.00408925
0.00412117
0.00418947
0.00399451
0.00400237
0.00402674
0.00400162
0.0041985
0.00417557
0.00402924
0.00403705
0.00401475
0.00402338
0.00417786
0.00413506
0.0041302
0.00415984
0.00415029
0.00407213
0.00406567
0.00410555
0.00410185
0.00428003
0.00427856
0.00430957
0.004312
0.004312
0.00431209
0.00431207
0.00430935
0.00401893
0.00418133
0.00419576
0.00407917
0.00399575
0.00414736
0.00416411
0.00400489
0.00399485
0.00425218
0.00412987
0.00412494
0.00423372
0.00409372
0.00406212
0.00411904
0.00411002
0.00424068
0.00403124
0.00401707
0.0040788
0.00409591
0.00400859
0.00401311
0.00404778
0.00429497
0.00430496
0.00430388
0.00430658
0.00430581
0.00429626
0.00428433
0.00428628
0.00428991
0.00428556
0.00428591
0.00428652
0.00428436
0.00429896
0.00429748
0.00430244
0.00430072
0.00428684
0.0040748
0.00415891
0.0041681
0.00414222
0.0041507
0.00407308
0.00412675
0.00420589
0.00421729
0.00417925
0.00419249
0.00410427
0.00410733
0.00403976
0.00404828
0.00404116
0.00403919
0.00407141
0.00411769
0.00413214
0.00406724
0.00409375
0.00406854
0.0043035
0.0043023
0.004291
0.00427454
0.00427756
0.00417173
0.00418418
0.00423771
0.00416493
0.00414582
0.00419262
0.00418229
0.00424534
0.00414672
0.00414891
0.00423985
0.00423981
0.00431405
0.00431405
0.00431405
0.00431405
0.00431405
0.00431405
0.00431405
0.00431405
0.00431405
0.00431405
0.00431405
0.00431405
0.00431405
0.00431405
0.00431405
0.00431405
0.00431405
0.00431405
0.00431405
0.00431405
0.00431405
0.00431405
0.00431405
0.00431405
0.00431405
0.00431405
0.00431405
0.00431405
0.00431405
0.00431405
0.00431405
0.00431405
0.00431405
0.00431405
0.00431405
0.00431405
0.00431405
0.00431405
0.00431405
0.00431405
0.00431405
0.00431405
0.00431405
0.00431405
0.00431405
0.00431405
0.00431405
0.00431405
0.00431405
0.00431405
0.00431405
0.00431405
0.00431405
0.00431405
0.00431405
0.00431405
0.00431405
0.00431405
0.00431405
0.00431405
0.00431405
0.00431405
0.00431405
0.00431405
0.00431405
0.00431405
0.00431405
0.00431405
0.00431405
0.00431405
0.00431405
0.00431405
0.00431405
0.00431405
0.00431405
0.00431405
0.00431405
0.00431405
0.00431405
0.00431405
0.00431405
0.00431405
0.00431405
0.00431405
0.00431405
0.00431404
0.00431404
0.00431405
0.00431405
0.00431405
0.00431405
0.00431405
0.00431405
0.00431405
0.00431405
0.00431405
0.00431405
0.00431405
0.00431405
0.00431405
0.00431404
0.00431404
0.00431405
0.00431405
0.00431405
0.00431405
0.00431405
0.00431405
0.00431405
0.00431405
0.00431405
0.00431405
0.00431405
0.00431405
0.00431405
0.00431405
0.00431405
0.00431405
0.00431405
0.00431405
0.00431405
0.00431405
0.00431405
0.00431405
0.00431405
0.00431405
0.00431405
0.00431405
0.00431405
0.00431405
0.00431405
0.00431405
0.00431405
0.00431405
0.00431405
0.00431405
0.00431405
0.00431404
0.00372547
0.00430199
0.004304
0.00431405
0.00431405
0.00431405
0.00431405
0.00431405
0.00431405
0.00431405
0.00431405
0.00431405
0.00431405
0.00431405
0.00431405
0.00431405
0.0041753
0.0041732
0.00416814
0.00431405
0.00431405
0.00431405
0.00431405
0.00431405
0.00431405
0.00431405
0.00431405
0.00431405
0.00431405
0.00431405
0.0043135
0.00424071
0.00417607
0.00424455
0.00431403
0.00431405
0.00431405
0.00431405
0.00431405
0.00431405
0.00431405
0.00431405
0.00431405
0.00431405
0.00431405
0.00431405
0.00431405
0.00431405
0.00431404
0.00431404
0.00431405
0.00431405
0.00431404
0.00431403
0.00431405
0.00431405
0.00431405
0.00431404
0.00431404
0.00431405
0.00431405
0.00431403
0.00431403
0.00431403
0.00431403
0.00431405
0.00431405
0.00431405
0.00431405
0.00431405
0.00431404
0.00431404
0.00431403
0.00431404
0.00431405
0.00431405
0.00431405
0.00431405
0.00431405
0.00431405
0.00431405
0.00431404
0.00431404
0.00431405
0.00373257
0.00424362
0.00424296
0.00413486
0.00413498
0.00334737
0.00431405
0.00431405
0.00431405
0.00431405
0.00431405
0.00431405
0.00431405
0.00431405
0.00431404
0.00431405
0.00431405
0.00431405
0.00431405
0.00431405
0.00431405
0.00431405
0.00431405
0.00431405
0.00431405
0.00431405
0.00431405
0.00431405
0.00431405
0.00431405
0.00431405
0.00431405
0.00431405
0.00431405
0.00431405
0.00431405
0.00431404
0.004314
0.00431405
0.00431405
0.00431405
0.00431405
0.00431405
0.00431405
0.00431405
0.00431405
0.00431405
0.00431405
0.00431405
0.00431405
0.00431405
0.00431405
0.00431405
0.00431405
0.00431405
0.00431405
0.00431405
0.00431405
0.00431405
0.00431405
0.00431405
0.00431405
0.00431345
0.00431386
0.00431384
0.00431399
0.00431397
0.00431376
0.00431323
0.00431279
0.00431352
0.00431405
0.00431405
0.00431405
0.00431405
0.00431405
0.00431405
0.00431405
0.00431405
0.00431405
0.00431405
0.00431405
0.00431405
0.00431405
0.00431405
0.00431405
0.00431405
0.00431405
0.00431405
0.00431404
0.00431404
0.00431405
0.00431316
0.00431376
0.00431377
0.0043137
0.00431371
0.004313
0.00431405
0.00431405
0.00431405
0.00431405
0.00431405
0.00431405
0.00431405
0.00431405
0.00431405
0.00431405
0.00431405
0.00431405
0.00431405
0.00431405
0.00431405
0.00431405
0.00431405
0.00431405
0.00431405
0.00431404
0.00431405
0.00431372
0.00431404
0.00431404
0.0043139
0.00431391
0.00431362
0.00430964
0.00430027
0.00430193
0.00431405
0.00431405
0.00431405
0.00431405
0.00431405
0.00431405
0.00431405
0.00431405
0.00431405
0.00431384
0.00431192
0.00431264
0.00431267
0.00431285
0.00431372
0.00431405
0.00431405
0.00431405
0.00431405
0.00431405
0.00431405
0.00431405
0.00431405
0.00431405
0.00431403
0.00431398
0.00431399
0.00431387
0.0043139
0.00431401
0.00431405
0.00431405
0.00431405
0.00405603
0.00431402
0.00431402
0.00431114
0.00431151
0.00387951
0.00431393
0.00431391
0.00398202
0.00431405
0.00431404
0.00431405
0.00431405
0.00431404
0.00431405
0.00431394
0.00431402
0.00431401
0.00431405
0.00431405
0.00431403
0.00431405
0.00431405
0.00431405
0.00431402
0.00431366
0.00431397
0.00431405
0.00431405
0.00431405
0.00431401
0.00431404
0.00431405
0.00431378
0.00431348
0.0043134
0.00431404
0.00431403
0.00431404
0.00431405
0.00431405
0.00431405
0.00431404
0.00431405
0.00431405
0.00431402
0.00431403
0.00431399
0.004313
0.00431371
0.0043137
0.00431381
0.00431379
0.00431323
0.00431405
0.00431404
0.00431405
0.00431185
0.00430911
0.0043096
0.00430619
0.00430614
0.00431084
0.00430988
0.00431007
0.00431219
0.00431404
0.00431404
0.00431405
0.00431247
0.00431325
0.00431333
0.00431373
0.00431401
0.00431402
0.00431338
0.00431342
0.00431273
0.00431405
0.00431405
0.00431404
0.00431351
0.00431387
0.00431388
0.00431379
0.0043138
0.00431329
0.00431405
0.00431404
0.00431404
0.0043122
0.00430917
0.00430886
0.00431205
0.00431188
0.0043132
0.00431092
0.00430634
0.00430626
0.00430858
0.00430833
0.00431189
0.00431403
0.00431403
0.00431405
0.00431325
0.00431318
0.00431116