/*--------------------------------*- C++ -*----------------------------------*\
| =========                 |                                                 |
| \\      /  F ield         | OpenFOAM: The Open Source CFD Toolbox           |
|  \\    /   O peration     | Version:  5.x                                   |
|   \\  /    A nd           | Web:      www.OpenFOAM.org                      |
|    \\/     M anipulation  |                                                 |
\*---------------------------------------------------------------------------*/
FoamFile
{
    version     2.0;
    format      ascii;
    class       volScalarField;
    location    "100";
    object      massFlux;
}
// * * * * * * * * * * * * * * * * * * * * * * * * * * * * * * * * * * * * * //

dimensions      [0 0 0 0 0 0 0];

internalField   nonuniform List<scalar> 
6584
(
0.0241652
0.0241651
0.0241651
0.0241652
0.0241652
0.0241652
0.0241652
0.0241652
0.0241652
0.0241652
0.0241652
0.0241652
0.0241652
0.0241652
0.0241652
0.0241652
0.0241652
0.0241652
0.0241652
0.0241652
0.0241651
0.0241651
0.0241651
0.0241651
0.0241388
0.0241388
0.0241388
0.0241388
0.0241388
0.0241389
0.0241389
0.024139
0.024139
0.024139
0.024139
0.024139
0.024139
0.024139
0.024139
0.024139
0.024139
0.0241389
0.0241389
0.0241389
0.0241388
0.0241388
0.0241388
0.0241387
0.0241124
0.0241124
0.0241124
0.0241124
0.0241125
0.0241125
0.0241126
0.0241127
0.0241128
0.0241259
0.0241259
0.0241259
0.0241259
0.0241259
0.0241259
0.0241128
0.0241127
0.0241126
0.0241126
0.0241125
0.0241125
0.0241125
0.0241124
0.0241124
0.024086
0.0240861
0.0240861
0.0240861
0.0240861
0.0240862
0.0240863
0.0240864
0.0240865
0.0240996
0.0240996
0.0240995
0.0240995
0.0240996
0.0240996
0.0240997
0.0240864
0.0240863
0.0240863
0.0240862
0.0240862
0.0240861
0.0240861
0.0240861
0.0240597
0.0240597
0.0240598
0.0240598
0.0240598
0.0240599
0.0240599
0.0240599
0.0240732
0.0240733
0.0240731
0.024073
0.0240729
0.024073
0.0240732
0.0240733
0.0240733
0.0240601
0.02406
0.0240599
0.0240599
0.0240598
0.0240598
0.0240597
0.0240334
0.0240334
0.0240334
0.0240335
0.0240336
0.0240336
0.0240337
0.0240468
0.0240467
0.0240466
0.0240531
0.0240528
0.0240527
0.024053
0.0240468
0.024047
0.0240471
0.0240341
0.0240338
0.0240337
0.0240336
0.0240335
0.0240335
0.0240334
0.0240071
0.0240071
0.0240072
0.0240072
0.0240073
0.0240074
0.0240076
0.0240206
0.0240204
0.0240203
0.0240261
0.0240288
0.0240283
0.0240258
0.024027
0.0240209
0.024021
0.0240081
0.0240077
0.0240076
0.0240074
0.0240073
0.0240072
0.0240072
0.0239808
0.0239808
0.0239809
0.023981
0.0239811
0.0239812
0.0239815
0.0239944
0.0239944
0.0239944
0.0239996
0.0240008
0.0240016
0.0240009
0.0239952
0.0239952
0.0239823
0.0239817
0.0239815
0.0239812
0.0239811
0.023981
0.0239809
0.0239545
0.0239546
0.0239546
0.0239548
0.0239549
0.0239551
0.0239555
0.0239685
0.0239685
0.0239689
0.0239741
0.0239753
0.0239762
0.0239757
0.02397
0.0239696
0.0239566
0.0239558
0.0239554
0.0239551
0.0239549
0.0239547
0.0239546
0.0239282
0.0239283
0.0239284
0.0239286
0.0239288
0.023929
0.0239296
0.0239425
0.0239428
0.0239436
0.0239492
0.0239515
0.0239529
0.0239514
0.023945
0.0239442
0.0239309
0.0239299
0.0239293
0.023929
0.0239287
0.0239285
0.0239284
0.023902
0.0239021
0.0239022
0.0239024
0.0239026
0.023903
0.0239036
0.0239167
0.0239172
0.0239183
0.0239245
0.0239277
0.0239299
0.0239273
0.0239201
0.0239189
0.0239052
0.023904
0.0239033
0.0239028
0.0239025
0.0239023
0.0239021
0.0238757
0.0238758
0.023876
0.0238762
0.0238765
0.0238769
0.0238776
0.0238908
0.0238915
0.0238928
0.0238995
0.0239031
0.0239061
0.0239029
0.023895
0.0238935
0.0238794
0.0238781
0.0238773
0.0238767
0.0238763
0.0238761
0.0238758
0.0238495
0.0238496
0.0238497
0.02385
0.0238504
0.0238508
0.0238516
0.0238648
0.0238657
0.0238671
0.0238741
0.0238774
0.0238807
0.0238778
0.0238697
0.023868
0.0238536
0.0238521
0.0238512
0.0238506
0.0238501
0.0238498
0.0238496
0.0238232
0.0238233
0.0238235
0.0238238
0.0238242
0.0238247
0.0238255
0.0238261
0.0238396
0.0238409
0.0238477
0.0238494
0.0128677
0.0238501
0.0238521
0.0238441
0.0238422
0.0238277
0.0238261
0.0238252
0.0238244
0.0238238
0.0238235
0.0238233
0.0237969
0.0237971
0.0237973
0.0237976
0.023798
0.0237986
0.0237993
0.0237997
0.0238132
0.0238144
0.0238214
0.023818
0.0206803
0.0238226
0.0238189
0.0238181
0.0238027
0.0238015
0.0237999
0.0237989
0.0237982
0.0237976
0.0237972
0.0237969
0.0237707
0.0237708
0.0237711
0.0237714
0.0237718
0.0237723
0.023773
0.0237735
0.023787
0.0237884
0.0237889
0.0237903
0.0208697
0.0237894
0.0237928
0.023792
0.0237766
0.0237753
0.0237736
0.0237726
0.0237718
0.0237712
0.0237709
0.0237705
0.0237444
0.0237446
0.0237448
0.0237452
0.0237456
0.0237461
0.0237467
0.0237474
0.0237484
0.0237624
0.0237629
0.0237021
0.0223101
0.0237621
0.0237665
0.0237659
0.0237504
0.0237491
0.0237474
0.0237463
0.0237455
0.0237448
0.0237444
0.0237441
0.0237181
0.0237183
0.0237186
0.023719
0.0237194
0.0237198
0.0237205
0.0237214
0.0237224
0.0237236
0.0237368
0.0236283
0.0223143
0.0237347
0.0237274
0.0237258
0.0237242
0.0237229
0.0237211
0.0237199
0.0237191
0.0237184
0.023718
0.0237176
0.0236919
0.0236921
0.0236924
0.0236928
0.0236932
0.0236936
0.0236944
0.0236953
0.0236964
0.0236976
0.0236871
0.0219254
0.0229894
0.0236967
0.0237012
0.0236996
0.023698
0.0236966
0.0236948
0.0236936
0.0236927
0.023692
0.0236916
0.0236911
0.0236656
0.0236658
0.0236661
0.0236665
0.023667
0.0236674
0.0236683
0.0236693
0.0236705
0.0236716
0.0236536
0.0219068
0.0229667
0.0236695
0.023675
0.0236734
0.0236717
0.0236703
0.0236684
0.0236672
0.0236663
0.0236656
0.0236651
0.0236646
0.0236394
0.0236396
0.0236399
0.0236403
0.0236408
0.0236413
0.0236422
0.0236433
0.0236445
0.0236456
0.0236208
0.0218875
0.0229434
0.0236423
0.0236487
0.0236473
0.0236455
0.023644
0.0236421
0.0236408
0.0236399
0.0236391
0.0236386
0.0236381
0.0236131
0.0236134
0.0236137
0.0236141
0.0236146
0.0236152
0.0236161
0.0236174
0.0236187
0.0236196
0.0235886
0.0218677
0.0229197
0.0236151
0.0236225
0.0236211
0.0236193
0.0236176
0.0236157
0.0236144
0.0236134
0.0236126
0.0236122
0.0236116
0.0235869
0.0235871
0.0235874
0.0235879
0.0235885
0.0235891
0.0235901
0.0235914
0.0235928
0.0235936
0.023557
0.0218475
0.0228956
0.0235879
0.0235962
0.0235949
0.0235931
0.0235913
0.0235894
0.023588
0.023587
0.0235862
0.0235857
0.0235851
0.0235606
0.0235609
0.0235612
0.0235617
0.0235623
0.0235629
0.023564
0.0235655
0.023567
0.0235675
0.0235259
0.0218268
0.0228713
0.0235606
0.02357
0.0235688
0.0235668
0.023565
0.023563
0.0235616
0.0235606
0.0235597
0.0235592
0.0235586
0.0235344
0.0235347
0.023535
0.0235355
0.0235362
0.0235368
0.023538
0.0235395
0.0235411
0.0235415
0.0234954
0.0218058
0.0228468
0.0235333
0.0235437
0.0235426
0.0235406
0.0235387
0.0235367
0.0235352
0.0235341
0.0235332
0.0235327
0.0235321
0.0235081
0.0235084
0.0235088
0.0235094
0.02351
0.0235108
0.0235119
0.0235136
0.0235153
0.0235154
0.0234646
0.0217848
0.0228224
0.0235059
0.0235174
0.0235165
0.0235144
0.0235124
0.0235103
0.0235088
0.0235077
0.0235067
0.0235062
0.0235055
0.0234819
0.0234822
0.0234826
0.0234832
0.0234839
0.0234847
0.0234859
0.0234877
0.0234895
0.0234893
0.0234337
0.021764
0.0227984
0.0234786
0.0234911
0.0234903
0.0234883
0.0234861
0.023484
0.0234824
0.0234813
0.0234803
0.0234797
0.0234791
0.0234557
0.023456
0.0234564
0.023457
0.0234578
0.0234586
0.0234599
0.0234618
0.0234637
0.0234632
0.0234033
0.0217427
0.0227742
0.0234513
0.0234647
0.0234642
0.0234621
0.0234599
0.0234577
0.023456
0.0234549
0.0234539
0.0234533
0.0234526
0.0234295
0.0234298
0.0234302
0.0234309
0.0234316
0.0234325
0.0234339
0.023436
0.0234379
0.023437
0.0233733
0.0217211
0.0227499
0.0234239
0.0234384
0.0234381
0.0234359
0.0234336
0.0234314
0.0234297
0.0234285
0.0234274
0.0234268
0.0234262
0.0234033
0.0234036
0.0234041
0.0234047
0.0234055
0.0234065
0.0234079
0.0234101
0.0234121
0.0234109
0.0233437
0.0216991
0.0227255
0.0233965
0.023412
0.0234119
0.0234097
0.0234074
0.023405
0.0234033
0.0234021
0.023401
0.0234004
0.0233997
0.0233771
0.0233774
0.0233779
0.0233786
0.0233794
0.0233804
0.023382
0.0233843
0.0233864
0.0233848
0.0233144
0.0216767
0.022701
0.023369
0.0233855
0.0233858
0.0233836
0.0233811
0.0233787
0.0233769
0.0233756
0.0233746
0.0233739
0.0233732
0.0233509
0.0233512
0.0233517
0.0233524
0.0233533
0.0233544
0.0233561
0.0233585
0.0233606
0.0233586
0.0232855
0.0216539
0.0226764
0.0233415
0.0233591
0.0233596
0.0233574
0.0233548
0.0233524
0.0233506
0.0233492
0.0233481
0.0233474
0.0233468
0.0233247
0.0233251
0.0233256
0.0233263
0.0233272
0.0233284
0.0233301
0.0233327
0.0233347
0.0233324
0.0232569
0.0216308
0.0226518
0.0233141
0.0233326
0.0233333
0.0233312
0.0233286
0.0233261
0.0233242
0.0233228
0.0233217
0.023321
0.0233203
0.0232985
0.0232989
0.0232994
0.0233002
0.0233012
0.0233024
0.0233042
0.0233068
0.0233089
0.0233062
0.0232284
0.0216072
0.0226271
0.0232866
0.023306
0.0233071
0.023305
0.0233024
0.0232998
0.0232979
0.0232964
0.0232953
0.0232945
0.0232939
0.0232723
0.0232727
0.0232733
0.023274
0.0232751
0.0232764
0.0232783
0.023281
0.0232831
0.02328
0.0232001
0.0215834
0.0226023
0.0232591
0.0232794
0.0232808
0.0232788
0.0232761
0.0232735
0.0232715
0.02327
0.0232688
0.0232681
0.0232674
0.0232461
0.0232465
0.0232471
0.0232479
0.023249
0.0232504
0.0232524
0.0232551
0.0232572
0.0232537
0.0231715
0.0215594
0.0225772
0.0232316
0.0232528
0.0232545
0.0232525
0.0232499
0.0232472
0.0232451
0.0232436
0.0232424
0.0232416
0.0232409
0.0239784
0.0239789
0.0240009
0.0239544
0.0239556
0.0239759
0.0239307
0.0239327
0.0239528
0.0239063
0.023909
0.0239298
0.0238807
0.0238838
0.023906
0.0238529
0.0103269
0.0125419
0.0238567
0.0238806
0.0240042
0.0240283
0.0240043
0.0240288
0.0239804
0.0239788
0.0240015
0.0239877
0.0240001
0.0239792
0.0239815
0.0240003
0.0239554
0.0239546
0.0239757
0.0239663
0.0239562
0.0239733
0.0239333
0.0239699
0.0239558
0.0239572
0.0239753
0.0239307
0.0239307
0.0239516
0.0239426
0.0239074
0.0239224
0.0235601
0.0237732
0.0239328
0.0239334
0.0239513
0.0239058
0.0239063
0.0239277
0.0239186
0.0238938
0.0238985
0.023751
0.0235894
0.0239092
0.0239092
0.0239274
0.0238551
0.0238564
0.023884
0.0238844
0.0239031
0.0238551
0.0238605
0.0238249
0.0139137
0.0103817
0.0182425
0.0238274
0.023853
0.0239753
0.0239872
0.0239877
0.0239867
0.0239719
0.0240004
0.0239883
0.0239715
0.0239869
0.023988
0.0239866
0.0239742
0.0239256
0.0239526
0.0239633
0.0239282
0.0238497
0.0239684
0.0239328
0.0237874
0.0239313
0.0239643
0.0239461
0.0239003
0.023973
0.0239477
0.0239672
0.0238992
0.0239061
0.0239396
0.0238205
0.0238437
0.0238461
0.0238198
0.0235873
0.0235461
0.0239413
0.0238617
0.0238519
0.0238985
0.0238643
0.0239442
0.023826
0.0238433
0.0238455
0.0238228
0.0238537
0.0237632
0.023918
0.0238714
0.0238871
0.0238513
0.0238696
0.023921
0.0238524
0.0238516
0.023845
0.023852
0.0238607
0.0238567
0.0238869
0.0238826
0.0238967
0.0238448
0.0238224
0.0238512
0.023846
0.0238427
0.0238539
0.0239909
0.0239888
0.024001
0.0239907
0.0239988
0.0238805
0.0238807
0.0239031
0.0238936
0.0238798
0.023887
0.0232674
0.0229738
0.023857
0.0238589
0.0238781
0.0239995
0.0239918
0.0240007
0.0239882
0.0239911
0.0238878
0.0238931
0.0239156
0.0165064
0.0174751
0.0212781
0.021976
0.0175127
0.0188548
0.0229206
0.0224733
0.0238935
0.0238816
0.0238736
0.0220611
0.0224957
0.0238723
0.0238619
0.0238706
0.024015
0.0240137
0.0240023
0.024002
0.0240136
0.024015
0.0239897
0.0239928
0.0239903
0.0239994
0.0239913
0.0239945
0.0239482
0.0239551
0.0236867
0.0236973
0.0236895
0.0236678
0.0238481
0.0224678
0.0238686
0.0235063
0.0233019
0.023309
0.0235054
0.0238588
0.0238833
0.0239816
0.0236847
0.0239508
0.0236277
0.0239796
0.0239589
0.0239913
0.0239933
0.0239892
0.0239119
0.0239795
0.0239805
0.0238846
0.0238797
0.0239572
0.0239547
0.0238508
0.0238585
0.0239108
0.0239587
0.0239633
0.0239528
0.0239572
0.0239095
0.0239625
0.0239709
0.0239755
0.0239648
0.0239694
0.0239596
0.0238315
0.0238328
0.0238267
0.0238248
0.0233796
0.0234036
0.0238395
0.0239354
0.0239397
0.0239297
0.023934
0.0238372
0.023886
0.0239469
0.0239513
0.0239411
0.0239454
0.023884
0.0166801
0.0238347
0.0181793
0.0171444
0.019548
0.0182342
0.0238371
0.0238084
0.0173028
0.0238119
0.0238251
0.0238187
0.0238574
0.023924
0.0239283
0.0239181
0.0239225
0.0238601
0.0202737
0.0211316
0.023849
0.0207434
0.0196393
0.0216975
0.020868
0.02385
0.0189872
0.0201442
0.0238604
0.0229568
0.023272
0.0225171
0.0228995
0.0238598
0.0223742
0.0224082
0.0225537
0.0127844
0.0225449
0.022349
0.0155201
0.023512
0.0235251
0.0239971
0.0238545
0.0238535
0.0238774
0.0238674
0.0238598
0.0238694
0.0176416
0.0238081
0.0238323
0.0239974
0.0238697
0.0238786
0.0238904
0.0146077
0.0148727
0.008265
0.022273
0.0222126
0.0151966
0.0157484
0.0234164
0.0235084
0.00821227
0.0240065
0.0240071
0.0240006
0.024
0.0240069
0.0240065
0.0239645
0.0239699
0.0239653
0.0239369
0.0239374
0.0239635
0.0239125
0.0239455
0.0239411
0.0239515
0.023947
0.0239146
0.0236211
0.0237444
0.0237229
0.0235927
0.0217343
0.0214179
0.023858
0.0235263
0.0236592
0.0237903
0.0237803
0.0135879
0.0239951
0.0239926
0.0240001
0.0239749
0.0239554
0.0239423
0.0239817
0.0239834
0.0239882
0.0239771
0.0239818
0.02398
0.0239364
0.0239576
0.0239531
0.0239637
0.0239592
0.0239403
0.0239084
0.0233448
0.0236515
0.023115
0.0231683
0.0238617
0.0236858
0.0237282
0.0239433
0.0238138
0.0238856
0.0239268
0.023958
0.0239598
0.0239462
0.0239491
0.0239043
0.0239396
0.0239351
0.0239027
0.0238262
0.0229381
0.0227721
0.0238364
0.0230377
0.0231003
0.0227472
0.022788
0.0238197
0.0235039
0.0234709
0.0238509
0.0239293
0.0239316
0.0239179
0.0239236
0.0238462
0.0238937
0.0239425
0.0239453
0.0239323
0.0239348
0.0238738
0.0238433
0.0232305
0.0233502
0.0231216
0.0230387
0.0237894
0.0238874
0.0239122
0.0239167
0.0239061
0.0239107
0.0238875
0.0238527
0.0223405
0.0217907
0.0229377
0.0227749
0.0238526
0.0174977
0.0177829
0.0238495
0.0231152
0.0229877
0.0171498
0.0174166
0.0221365
0.0218178
0.023994
0.0239971
0.0239952
0.02142
0.0231561
0.0215994
0.0217621
0.0216976
0.0231178
0.0239962
0.0239948
0.0239981
0.0239932
0.0239951
0.0165469
0.0169012
0.0149695
0.0146911
0.0216107
0.0160773
0.0158932
0.0166683
0.0161335
0.0217003
0.0178122
0.0180811
0.0227438
0.0226677
0.0222781
0.0175558
0.0169742
0.0157926
0.0160741
0.0239862
0.0239892
0.0239922
0.023985
0.0239882
0.0239848
0.0239383
0.023962
0.0236334
0.0237341
0.0237172
0.0236003
0.0225407
0.0234098
0.0233158
0.0235147
0.0234406
0.0225251
0.0231193
0.0230513
0.023288
0.0231631
0.0234349
0.0222496
0.02246
0.0218934
0.0221492
0.0234046
0.021251
0.0213454
0.0238142
0.0239741
0.0239633
0.0239848
0.0239773
0.0238484
0.0239012
0.0238781
0.0239556
0.0239107
0.0239833
0.0239897
0.0239863
0.0239803
0.023973
0.0239722
0.0239585
0.023976
0.0239638
0.0239788
0.0239838
0.0239668
0.0239769
0.0239833
0.0239797
0.0239737
0.0232416
0.0232989
0.0239014
0.0228467
0.0226
0.0233831
0.0228827
0.0222337
0.021971
0.022524
0.0223558
0.0238661
0.0231872
0.0232271
0.0236501
0.0235743
0.0238669
0.0237141
0.0235021
0.0234443
0.0235614
0.0235177
0.0239463
0.023739
0.0237703
0.0238224
0.023881
0.0239539
0.023957
0.023919
0.0239058
0.02395
0.0239529
0.0229759
0.0229659
0.0238278
0.0212781
0.0212826
0.0202479
0.021151
0.0212049
0.0215093
0.0212576
0.0212033
0.0229446
0.023017
0.0238336
0.0215204
0.0212007
0.0219166
0.0216109
0.0205423
0.0202142
0.0210689
0.0207175
0.023821
0.0228272
0.0229149
0.0234432
0.0234509
0.0239265
0.0239286
0.0238479
0.0238413
0.0239242
0.0239258
0.023939
0.0239416
0.023892
0.0238761
0.0239356
0.0239381
0.0170749
0.017574
0.0228965
0.0230516
0.0226918
0.0228406
0.0171957
0.0190128
0.0232539
0.022941
0.0230933
0.0232158
0.0187266
0.022026
0.0221072
0.0216972
0.0219952
0.0178199
0.0224911
0.0226507
0.022154
0.0224062
0.0178758
0.0231442
0.0232042
0.0238395
0.0228591
0.022989
0.0230201
0.0228534
0.0229983
0.0237962
0.0229982
0.0230887
0.0206094
0.0147207
0.0149691
0.0157174
0.0147834
0.0207336
0.0150278
0.0193869
0.015061
0.019583
0.022706
0.0236022
0.0235382
0.023681
0.0236245
0.0227384
0.0222172
0.0222719
0.017924
0.0182412
0.0163142
0.0170259
0.0223614
0.0222122
0.024005
0.0240068
0.0240265
0.0238672
0.0238599
0.0238489
0.0240027
0.0240031
0.023999
0.0239981
0.0240027
0.0240025
0.0240147
0.0240141
0.0240026
0.023976
0.0239714
0.0239669
0.0239346
0.023892
0.0238853
0.0235768
0.0237636
0.0239276
0.0239232
0.0238964
0.0233571
0.0233188
0.0235896
0.0233774
0.0234419
0.0238628
0.0239807
0.0239822
0.0239775
0.023932
0.0239477
0.0239748
0.0239849
0.0239812
0.0239842
0.0239658
0.0238659
0.0239251
0.0237963
0.0238783
0.0238708
0.0239266
0.0239258
0.0239269
0.0239016
0.0239618
0.0239637
0.0239514
0.0239017
0.0239336
0.0239292
0.0230491
0.0229783
0.0238383
0.0235793
0.0234136
0.0233936
0.0235318
0.023859
0.0239053
0.0239064
0.0238968
0.0239234
0.0239246
0.0239075
0.0239086
0.0238672
0.0238016
0.0231684
0.0230882
0.0238496
0.0239156
0.0239167
0.0238855
0.0238999
0.0239045
0.0138646
0.0138159
0.0232454
0.0231525
0.0238487
0.0139734
0.0139174
0.0236719
0.0236997
0.0238499
0.0239916
0.0239914
0.0163828
0.0159636
0.0161611
0.017407
0.0175564
0.0155786
0.0157636
0.01671
0.0165267
0.0186653
0.0221702
0.0221087
0.0225367
0.0180228
0.0176547
0.0223372
0.0240078
0.0240073
0.0240006
0.0239879
0.0239887
0.0239897
0.0239909
0.0239812
0.0239828
0.0239932
0.0239963
0.0239946
0.0239249
0.0239213
0.0239431
0.0239585
0.023948
0.0239419
0.0236625
0.0237079
0.0234025
0.0234248
0.0237031
0.023641
0.0232979
0.0233523
0.0226129
0.0226198
0.0228898
0.0228508
0.0224621
0.0226435
0.0226679
0.0238645
0.0234692
0.0235467
0.0238577
0.0237477
0.0238987
0.0238805
0.0239723
0.0239647
0.0239339
0.0234602
0.0234026
0.0238345
0.0237063
0.0235288
0.0239924
0.0239906
0.0239864
0.0239866
0.0239788
0.0239833
0.0239343
0.0239744
0.0239785
0.0237809
0.0238339
0.0239639
0.0233256
0.0232601
0.0238428
0.0238661
0.0239692
0.023971
0.0239674
0.0239528
0.0239655
0.0239674
0.0238368
0.0229733
0.022974
0.0233746
0.0234194
0.0239166
0.0239177
0.0238879
0.0238811
0.0239143
0.0239155
0.0168633
0.0181038
0.0201837
0.0202901
0.0190524
0.0191249
0.0170019
0.023225
0.023183
0.023805
0.0179819
0.0178131
0.0190176
0.0190006
0.0174818
0.0189837
0.0190161
0.0177156
0.0177686
0.0239136
0.0239146
0.0238501
0.0238643
0.0239116
0.0239126
0.0201933
0.0231115
0.0231647
0.0229987
0.0230551
0.0200026
0.0230965
0.0236505
0.0236963
0.0236889
0.0236708
0.0231455
0.0225926
0.023
0.0229425
0.0222711
0.0221913
0.0223757
0.0141669
0.0144684
0.0145038
0.0141684
0.0226753
0.0187781
0.0182149
0.0192365
0.0189115
0.0222845
0.0210409
0.0211066
0.0225182
0.0227057
0.0235708
0.0239966
0.0239975
0.0239956
0.0145649
0.014638
0.0176325
0.0174077
0.00825868
0.0155185
0.0148009
0.0148495
0.0145184
0.0146739
0.015675
0.00819442
0.0221528
0.0223454
0.0240036
0.0240031
0.0239987
0.0239048
0.0238985
0.0239357
0.0239264
0.0239438
0.0239568
0.0239368
0.0239408
0.0236012
0.023754
0.023108
0.02315
0.0231463
0.0231045
0.02359
0.0232884
0.023267
0.0216636
0.021199
0.0211733
0.021253
0.0212495
0.0215738
0.0239518
0.0239648
0.0239661
0.0239614
0.0239635
0.0239479
0.023805
0.0239149
0.0238627
0.0238438
0.023903
0.023928
0.0239292
0.0234235
0.0234272
0.0235571
0.023497
0.023903
0.0239042
0.0238547
0.0239212
0.0239223
0.0238953
0.0238707
0.0239098
0.0239109
0.0231153
0.0232612
0.0232056
0.0233025
0.023288
0.0230931
0.0137815
0.013792
0.0141089
0.0140335
0.0172468
0.01533
0.0152685
0.0212274
0.021236
0.0220376
0.0214039
0.0215292
0.0211919
0.0212769
0.0219244
0.0239934
0.0239926
0.0239929
0.0239934
0.0239962
0.0239965
0.0239977
0.0239944
0.0239952
0.0239952
0.0215646
0.0223331
0.02228
0.0224866
0.022406
0.0216227
0.0218952
0.0220934
0.0219973
0.0222385
0.0221857
0.0218084
0.0239956
0.0239962
0.0239951
0.0239893
0.0239859
0.0239936
0.0239924
0.0163513
0.0172475
0.0163268
0.0163928
0.0148809
0.0147853
0.0177618
0.0178969
0.0159806
0.0154866
0.0154507
0.0176416
0.0156506
0.0155063
0.0156939
0.0183934
0.0161435
0.0157474
0.022229
0.0223274
0.0228125
0.0219887
0.0220104
0.021943
0.0219488
0.0225962
0.0220861
0.02213
0.0158398
0.0142095
0.014358
0.01411
0.0141055
0.015921
0.0239876
0.0239886
0.0239875
0.0239819
0.023984
0.0239865
0.0239013
0.0239402
0.0239165
0.0239108
0.0239269
0.023932
0.0239153
0.0239215
0.0236457
0.0237186
0.0232256
0.0232436
0.023175
0.023201
0.0237113
0.0234341
0.0234391
0.0232541
0.0232642
0.0236164
0.0232477
0.0227109
0.0226397
0.0224903
0.0228197
0.02278
0.0230892
0.0226966
0.0226877
0.022817
0.0227472
0.0230698
0.0232552
0.0228813
0.0229217
0.0227343
0.0228096
0.0232121
0.0226747
0.0219765
0.0226191
0.0225597
0.021193
0.0212413
0.0237982
0.0239146
0.0239067
0.0237809
0.0238777
0.0239448
0.0239268
0.0235561
0.0235034
0.0237626
0.0237757
0.0238863
0.0236763
0.0236158
0.023957
0.0239673
0.0239836
0.0239747
0.0239439
0.0239041
0.0239419
0.0239696
0.0239742
0.0239759
0.0239679
0.0239707
0.0239608
0.0239493
0.0239604
0.0239803
0.0239768
0.0239742
0.0239821
0.0239783
0.0239819
0.0239694
0.0239717
0.0239662
0.023972
0.0227936
0.0226894
0.0232388
0.0226199
0.0227039
0.02248
0.0229199
0.0221301
0.0220425
0.0224617
0.0224139
0.0236117
0.0233029
0.0233651
0.0232028
0.0232471
0.0235896
0.0238471
0.023702
0.0237421
0.0234003
0.0236082
0.0238026
0.0232044
0.0231295
0.0234868
0.0228781
0.0229225
0.0227982
0.0228386
0.0234699
0.0235491
0.0231253
0.0231644
0.0229782
0.0230457
0.0235336
0.0238348
0.0238748
0.0213143
0.0201378
0.0203326
0.0197216
0.0199172
0.0213061
0.0204763
0.0204272
0.020444
0.020832
0.0212432
0.0187075
0.0188675
0.0190139
0.0187392
0.0213433
0.0212361
0.019393
0.0195474
0.019085
0.0192559
0.0212189
0.02145
0.0213578
0.0218547
0.0217217
0.0203918
0.0202645
0.0209601
0.0208722
0.0233965
0.0234349
0.0238898
0.0239189
0.0239201
0.023912
0.0239131
0.0238784
0.0170184
0.019791
0.0200257
0.017937
0.0169782
0.0192754
0.0195156
0.0183904
0.0181778
0.02205
0.0199889
0.0199953
0.0218509
0.0197809
0.0194117
0.0199876
0.0199362
0.0219445
0.0188681
0.0186223
0.0187556
0.0189186
0.0176647
0.0179937
0.0183862
0.0231719
0.0234743
0.0234501
0.0235096
0.0234924
0.0231877
0.0229025
0.0229635
0.0229593
0.0228522
0.0228438
0.0228956
0.0229929
0.023341
0.0233171
0.0234161
0.0233764
0.0230309
0.014779
0.0164149
0.0165123
0.0163011
0.0163555
0.0148703
0.0153691
0.0172837
0.0175641
0.0166916
0.0169663
0.0150236
0.0150005
0.0150689
0.0150988
0.0153299
0.0151787
0.0151992
0.0160445
0.0162167
0.0153303
0.0156895
0.0152492
0.0230898
0.0230507
0.0226649
0.0222108
0.0223354
0.0139196
0.0141862
0.0165948
0.0146506
0.0143027
0.0151761
0.0149985
0.0168465
0.0142259
0.014183
0.0211406
0.0211537
0.0240598
0.0240597
0.0240731
0.0240596
0.0240595
0.0240729
0.0240595
0.0240595
0.024073
0.0240597
0.0240599
0.0240731
0.0240333
0.0240331
0.0240465
0.0240328
0.0240326
0.024053
0.0240323
0.0240319
0.0240527
0.0240319
0.0240323
0.0240527
0.0240327
0.0240331
0.0240532
0.0240336
0.0240338
0.0240468
0.0240073
0.0240067
0.0240264
0.0240062
0.0240049
0.0240256
0.0240181
0.0240178
0.0240287
0.024017
0.0240174
0.0240282
0.0240188
0.0240193
0.0240259
0.0240073
0.024008
0.0240208
0.0239816
0.0239809
0.0240001
0.0239932
0.023993
0.0239995
0.0239974
0.0239972
0.0240005
0.0239917
0.0239932
0.0240029
0.0239819
0.0239828
0.0239954
0.0239562
0.0239557
0.0239745
0.0239678
0.0239679
0.0239741
0.0239723
0.0239723
0.0239753
0.0239673
0.0239685
0.0239776
0.0239574
0.0239581
0.0239704
0.0239309
0.0239308
0.0239495
0.0239431
0.0239433
0.0239494
0.0239485
0.0239486
0.0239515
0.0239443
0.0239449
0.0239537
0.0239333
0.0239334
0.0239457
0.0239056
0.0239058
0.0239246
0.0239183
0.0239187
0.0239249
0.0239247
0.0239248
0.0239278
0.0239211
0.0239213
0.0239302
0.023909
0.0239087
0.0239211
0.02388
0.0238804
0.0238995
0.0239
0.0238999
0.0239031
0.0238968
0.0238967
0.023906
0.0238841
0.0238836
0.0238962
0.0238541
0.0238545
0.023874
0.0238707
0.0238715
0.023878
0.0238586
0.0238582
0.0238709
0.0238275
0.0238276
0.0238407
0.023828
0.0238265
0.0238466
0.023839
0.0238289
0.0238395
0.0139108
0.0232234
0.023284
0.0238296
0.0238328
0.0238524
0.0238321
0.0238324
0.0238453
0.0238014
0.0238016
0.0238146
0.023802
0.0237996
0.0238198
0.0237972
0.0174136
0.0172849
0.0208333
0.0237988
0.0238203
0.0238017
0.0238062
0.0238259
0.0238058
0.0238062
0.0238192
0.0237759
0.0237741
0.0237875
0.0237374
0.0202912
0.0174498
0.0223042
0.0237662
0.0237916
0.0237757
0.0237798
0.023793
0.0239784
0.0239814
0.0239815
0.0239819
0.0239829
0.023978
0.0240007
0.0239974
0.0239976
0.0239545
0.0239574
0.0239574
0.0239585
0.0239582
0.0239538
0.0239764
0.0239717
0.023973
0.0239308
0.0239338
0.0239337
0.0239356
0.0239351
0.0239308
0.0239523
0.023948
0.0239499
0.0239062
0.0239094
0.0239094
0.023912
0.0239116
0.0239075
0.0239294
0.023925
0.0239269
0.0238871
0.0238858
0.0238826
0.0239045
0.0239014
0.0239029
0.0238431
0.0238564
0.0238639
0.00825264
0.0163344
0.016311
0.020031
0.0200511
0.00820815
0.0238793
0.0238761
0.0238773
0.0240029
0.0240142
0.0240146
0.0239994
0.0239994
0.0239984
0.0240283
0.0240174
0.024017
0.0239991
0.0239993
0.0240078
0.0240075
0.024004
0.0240287
0.0240179
0.0240182
0.0239803
0.0239866
0.0239868
0.0239883
0.0239864
0.0239802
0.0239992
0.0239928
0.0239915
0.0239894
0.023989
0.0239859
0.0239997
0.0239978
0.0239982
0.0239806
0.02399
0.0239885
0.0239877
0.0239877
0.0239815
0.0240001
0.0239939
0.0239939
0.0239556
0.0239617
0.0239616
0.0239635
0.0239618
0.0239557
0.023974
0.0239679
0.0239666
0.0239663
0.0239693
0.0239693
0.0239592
0.0239643
0.0239624
0.0239748
0.0239731
0.0239713
0.0239654
0.0239603
0.0239677
0.0239567
0.0239655
0.0239644
0.0239632
0.0239635
0.0239576
0.0239755
0.0239695
0.0239693
0.0239311
0.0239372
0.0239369
0.0239397
0.0239375
0.0239314
0.0239496
0.0239436
0.0239427
0.0239427
0.0239456
0.0239456
0.023909
0.0239335
0.0239319
0.0239436
0.0239417
0.0239195
0.0239332
0.023942
0.0239414
0.0239393
0.0239399
0.023934
0.0239517
0.0239458
0.0239453
0.0239063
0.0239125
0.0239121
0.0239156
0.023913
0.0239068
0.0239253
0.0239192
0.0239186
0.0239187
0.0239217
0.0239217
0.0238957
0.0239216
0.0239171
0.0239194
0.0239181
0.0238978
0.0237392
0.0234736
0.0235042
0.0239091
0.0239182
0.0239182
0.0239153
0.0239161
0.02391
0.0239281
0.0239221
0.0239214
0.0238531
0.0236461
0.0236927
0.0237751
0.0237831
0.0238588
0.0238843
0.0238906
0.0238937
0.0238907
0.0238914
0.0238851
0.0239039
0.0238977
0.0238969
0.0238561
0.023834
0.0238346
0.0238221
0.0238252
0.0238601
0.0238181
0.0238253
0.0238318
0.0136734
0.0237765
0.0237597
0.0222211
0.0222079
0.0105916
0.0237965
0.0238051
0.0178152
0.0238345
0.0238295
0.0238212
0.0238451
0.0238331
0.0238423
0.0239772
0.023978
0.0239764
0.0239887
0.0239838
0.0239823
0.0239846
0.0239845
0.0239876
0.0239851
0.0239825
0.0239867
0.0239986
0.0239983
0.0240001
0.0239878
0.0239896
0.02399
0.0239727
0.0239695
0.0239679
0.0239867
0.0239857
0.023986
0.0239877
0.0239846
0.0239848
0.023985
0.0239855
0.0239871
0.0239758
0.0239774
0.0239765
0.0239291
0.0239477
0.0239456
0.0239604
0.0239583
0.0239485
0.0239603
0.0239604
0.0239633
0.0239225
0.023872
0.0238856
0.0237344
0.0237401
0.0238535
0.0238952
0.0239024
0.0239366
0.0239641
0.0239597
0.0239614
0.0239435
0.0239524
0.0239542
0.0239687
0.0239726
0.0239742
0.0239555
0.0239568
0.023949
0.0239701
0.0239702
0.0239656
0.0238999
0.0239221
0.0239207
0.0239305
0.023929
0.0239049
0.0239367
0.0239367
0.0239397
0.0238225
0.0236905
0.0236862
0.0237376
0.0237326
0.0238417
0.0238427
0.0237236
0.0237289
0.0236837
0.0236827
0.023819
0.0239408
0.0239365
0.0239385
0.0238986
0.0238987
0.0238517
0.023947
0.0239466
0.0239423
0.0238291
0.023479
0.0234236
0.0236905
0.0236797
0.0238415
0.0238474
0.0237479
0.0237428
0.0234062
0.0233455
0.0238194
0.0238505
0.0237556
0.023766
0.0235383
0.0235671
0.0237741
0.0239176
0.0239131
0.0239151
0.0238757
0.0239074
0.0239084
0.0239004
0.0239016
0.0238873
0.0238506
0.023898
0.0238983
0.0239095
0.0239105
0.0238652
0.023924
0.0239235
0.0239191
0.0238526
0.0237678
0.0237625
0.0237911
0.0237881
0.0238521
0.0238465
0.0237102
0.0237006
0.0237567
0.0237504
0.0238515
0.0238608
0.0238142
0.0238184
0.0237064
0.0237417
0.0238581
0.0238865
0.0238979
0.0238992
0.0238936
0.0238983
0.0238849
0.0238998
0.0238984
0.0238953
0.0238409
0.0233301
0.0232708
0.0231208
0.0232775
0.0238383
0.0238508
0.0237961
0.0237938
0.0238482
0.0237033
0.0237056
0.0239908
0.023994
0.0239941
0.0239939
0.0239952
0.0239903
0.0240002
0.0239969
0.0239956
0.0239983
0.0239971
0.0239976
0.0238904
0.0238878
0.0238814
0.0239005
0.0238942
0.0238936
0.0238935
0.0238967
0.0238968
0.0238831
0.0238946
0.0238914
0.0239009
0.0238978
0.0238841
0.0232307
0.0228749
0.0229302
0.0225283
0.0226063
0.0230269
0.0238584
0.023865
0.0238674
0.0239984
0.023998
0.0239992
0.0239903
0.0239921
0.023993
0.0239951
0.0239967
0.0240019
0.0239899
0.023995
0.0239934
0.0239943
0.0239942
0.0239909
0.0238903
0.0239094
0.023904
0.0239155
0.023911
0.023891
0.0239125
0.0239125
0.0239156
0.0214032
0.019785
0.0196473
0.0205221
0.0203766
0.0218828
0.0228686
0.0223922
0.0224541
0.0238922
0.023889
0.0238903
0.0238785
0.0238873
0.023892
0.0238803
0.0238856
0.0238774
0.0221423
0.0208066
0.0206681
0.0214064
0.0213144
0.0224447
0.023868
0.0238738
0.0238771
0.0238671
0.0238704
0.0238665
0.0238739
0.0238727
0.0238694
0.0240152
0.0240092
0.0240088
0.0240099
0.0240096
0.0240155
0.0240012
0.0240075
0.024008
0.0240039
0.0240037
0.0240017
0.0240154
0.0240094
0.0240098
0.0240087
0.0240091
0.0240151
0.023993
0.02399
0.0239911
0.0239958
0.0239973
0.0239993
0.0239919
0.0239929
0.0239923
0.0239963
0.023996
0.0239941
0.0235671
0.0236275
0.0238508
0.0238674
0.0238165
0.0238217
0.0234856
0.0232333
0.0232661
0.022982
0.0230279
0.0233334
0.0234065
0.0237194
0.0237051
0.0237431
0.023732
0.0234334
0.0238595
0.0238278
0.0238299
0.0239744
0.0239807
0.0239834
0.0239773
0.0239533
0.0239711
0.0239659
0.0239802
0.0239766
0.0239922
0.0239911
0.0239897
0.0239916
0.0239913
0.0239929
0.0239782
0.0239769
0.0239784
0.0239814
0.0239804
0.0239793
0.0237879
0.0237964
0.0238897
0.0238751
0.0237731
0.0237803
0.0239394
0.0239443
0.0239596
0.023952
0.0239296
0.0239345
0.0239353
0.0239368
0.0239124
0.0239603
0.023959
0.0239573
0.0239622
0.0239606
0.0239618
0.0239542
0.0239526
0.023951
0.0239557
0.0239541
0.0239557
0.0239084
0.0239328
0.023934
0.0239664
0.0239677
0.0239646
0.0239724
0.0239718
0.0239702