/*--------------------------------*- C++ -*----------------------------------*\
| =========                 |                                                 |
| \\      /  F ield         | OpenFOAM: The Open Source CFD Toolbox           |
|  \\    /   O peration     | Version:  5.x                                   |
|   \\  /    A nd           | Web:      www.OpenFOAM.org                      |
|    \\/     M anipulation  |                                                 |
\*---------------------------------------------------------------------------*/
FoamFile
{
    version     2.0;
    format      ascii;
    class       volScalarField;
    location    "100";
    object      p;
}
// * * * * * * * * * * * * * * * * * * * * * * * * * * * * * * * * * * * * * //

dimensions      [0 2 -2 0 0 0 0];

internalField   nonuniform List<scalar> 
6584
(
21.0003
19.1759
17.351
15.5264
13.702
11.8776
10.0533
8.22957
6.40609
4.58258
2.75851
0.933277
-0.893553
-2.72189
-4.55117
-6.38072
-8.21
-10.0389
-11.8674
-13.6956
-15.5235
-17.3507
-19.177
-21.0022
21.0018
19.1802
17.3566
15.5324
13.7082
11.8828
10.0562
8.23089
6.40722
4.584
2.76022
0.935191
-0.891677
-2.7203
-4.54998
-6.38033
-8.21099
-10.0414
-11.8718
-13.7013
-15.5295
-17.3567
-19.1818
-21.0035
21.0022
19.1834
17.3632
15.5405
13.7167
11.8913
10.0625
8.23378
6.40881
5.04124
3.21887
1.39501
-0.431334
-2.26036
-4.09111
-6.38394
-8.21916
-10.0517
-11.8821
-13.7108
-15.5378
-17.3631
-19.1847
-21.0046
21.0021
19.184
17.3654
15.5456
13.7233
11.8992
10.0707
8.24048
6.41285
5.04346
3.22283
1.40083
-0.425131
-2.2566
-4.09595
-5.93475
-8.23505
-10.0658
-11.8937
-13.7203
-15.5449
-17.3667
-19.1862
-21.0054
21.0016
19.1837
17.3655
15.5473
13.7275
11.905
10.0797
8.25517
6.87775
5.0481
3.22828
1.40911
-0.415817
-2.2599
-4.11469
-5.95836
-7.79164
-10.0786
-11.9039
-13.7279
-15.5492
-17.3687
-19.1875
-21.0063
21.0012
19.1833
17.3652
15.5472
13.7288
11.909
10.0881
8.72213
6.89903
5.07539
3.4732
1.65141
-0.168469
-2.04284
-4.13799
-5.97692
-7.80558
-10.0893
-11.9125
-13.7331
-15.552
-17.3705
-19.1887
-21.0071
21.0007
19.1828
17.3647
15.5466
13.7283
11.9096
10.0901
8.72421
6.90519
5.08968
3.50622
1.80442
-0.00758977
-2.06361
-3.93064
-5.99602
-7.82003
-10.0991
-11.9189
-13.7367
-15.5544
-17.3721
-19.1899
-21.0078
21.0002
19.1822
17.364
15.5458
13.7273
11.9084
10.0895
8.72433
6.90218
5.08114
3.49312
1.80709
-2.01396
-3.967
-6.01602
-7.8332
-10.1058
-11.9233
-13.7397
-15.5566
-17.3736
-19.1909
-21.0085
20.9998
19.1817
17.3634
15.5449
13.7261
11.9066
10.0867
8.72156
6.89564
5.06528
3.45955
1.71832
-2.13047
-4.00775
-6.03239
-7.84085
-10.1082
-11.9252
-13.7418
-15.5582
-17.3747
-19.1917
-21.0088
20.9994
19.1812
17.3628
15.5442
13.7252
11.9054
10.0849
8.71823
6.88898
5.05415
3.43981
1.68487
-2.18552
-4.03143
-6.04027
-7.84367
-10.1069
-11.9234
-13.7413
-15.5587
-17.3752
-19.192
-21.009
20.9991
19.1808
17.3624
15.5436
13.7246
11.9048
10.0841
8.71656
6.88687
5.05329
3.44181
1.7019
-2.16754
-4.02473
-6.03454
-7.83881
-10.1014
-11.9181
-13.7371
-15.5571
-17.3751
-19.192
-21.0088
20.999
19.1806
17.3622
15.5435
13.7245
11.9051
10.0844
8.71669
6.88899
5.06046
3.45853
1.744
-2.10331
-3.99358
-6.01685
-7.82668
-10.0918
-11.9098
-13.7299
-15.552
-17.3732
-19.1915
-21.0083
20.999
19.1806
17.3622
15.5436
13.7249
11.906
10.0858
8.71844
6.89338
5.07017
3.47762
1.78342
-2.02789
-3.95177
-5.99255
-7.80957
-10.0787
-11.8989
-13.7206
-15.5444
-17.3692
-19.1904
-21.0076
20.9991
19.1807
17.3623
15.5439
13.7254
11.907
10.0872
8.26486
6.89713
5.07455
3.48227
1.77694
0.060957
-2.07152
-3.9122
-5.96484
-7.78972
-10.0626
-11.8858
-13.7095
-15.5365
-17.3637
-19.1875
-21.0066
20.9992
19.1807
17.3625
15.5441
13.7258
11.9073
10.0864
8.26022
6.8924
5.05785
3.45971
1.64617
-0.177176
-2.03523
-4.10807
-5.94159
-8.22569
-10.0515
-11.877
-13.7016
-15.5292
-17.3562
-19.181
-21.0041
20.9992
19.1807
17.3624
15.544
13.7256
11.9066
10.0835
8.2518
6.87615
5.04913
3.2277
1.63477
-0.193612
-2.26085
-4.09915
-5.93317
-8.21904
-10.0458
-11.8715
-13.6992
-15.525
-17.3507
-19.1757
-21.0013
20.9992
19.1806
17.3622
15.5436
13.7249
11.9048
10.079
8.24633
6.41582
5.0471
3.22408
1.39989
-0.428936
-2.26299
-4.09739
-5.92818
-8.21278
-10.0392
-11.8661
-13.6939
-15.5208
-17.3471
-19.1744
-20.9999
20.9991
19.1805
17.3618
15.543
13.7237
11.9016
10.0735
8.2415
6.41418
4.5888
3.2215
1.39477
-0.433722
-2.26506
-4.55293
-6.38059
-8.20906
-10.0356
-11.8627
-13.6899
-15.5166
-17.3433
-19.1706
-20.9979
20.999
19.1802
17.3613
15.5422
13.7225
11.898
10.0682
8.23805
6.41252
4.58627
2.7621
0.934466
-0.893444
-2.72173
-4.55187
-6.3786
-8.20685
-10.0333
-11.8602
-13.6871
-15.5138
-17.3407
-19.1675
-20.9959
20.9989
19.1798
17.3607
15.5414
13.7212
11.8952
10.0647
8.23618
6.41126
4.58479
2.75993
0.932914
-0.894291
-2.72186
-4.55068
-6.37716
-8.20511
-10.0314
-11.8582
-13.6848
-15.5117
-17.3386
-19.1652
-20.9944
20.9987
19.1794
17.36
15.5404
13.7199
11.8932
10.0625
8.23486
6.41026
4.58381
2.75858
0.931767
-0.895017
-2.72192
-4.54988
-6.37614
-8.20378
-10.0299
-11.8566
-13.6831
-15.51
-17.3367
-19.1632
-20.9931
20.9985
19.179
17.3593
15.5393
13.7186
11.8917
10.0611
8.23385
6.40917
4.58308
2.75769
0.931027
-0.895473
-2.72198
-4.5494
-6.37547
-8.20279
-10.0288
-11.8554
-13.6817
-15.5086
-17.3352
-19.1616
-20.992
20.9982
19.1785
17.3585
15.5383
13.7173
11.8904
10.0599
8.23269
6.40822
4.58249
2.75708
0.930547
-0.895768
-2.72203
-4.54906
-6.37498
-8.20202
-10.0279
-11.8545
-13.6806
-15.5074
-17.3338
-19.1601
-20.991
20.9979
19.178
17.3578
15.5373
13.7161
11.8891
10.0589
8.23163
6.40736
4.58184
2.7566
0.930225
-0.895969
-2.72207
-4.54881
-6.3746
-8.20144
-10.0272
-11.8536
-13.6797
-15.5064
-17.3327
-19.159
-20.9902
20.9977
19.1775
17.357
15.5363
13.7149
11.888
10.0579
8.23067
6.40639
4.58117
2.75622
0.929981
-0.896107
-2.72208
-4.54861
-6.37433
-8.20097
-10.0267
-11.853
-13.679
-15.5056
-17.3318
-19.1579
-20.9895
20.9974
19.177
17.3563
15.5354
13.7138
11.8869
10.057
8.22977
6.40542
4.58052
2.75538
0.929395
-0.89658
-2.72235
-4.54867
-6.37431
-8.20082
-10.0265
-11.8528
-13.6788
-15.5051
-17.331
-19.1571
-20.9889
20.9971
19.1765
17.3556
15.5345
13.7127
11.8858
10.0561
8.22898
6.40449
4.57919
2.75394
0.928103
-0.897721
-2.7234
-4.54958
-6.37517
-8.20155
-10.0272
-11.8535
-13.6792
-15.5054
-17.3312
-19.1571
-20.9887
20.9968
19.176
17.355
15.5337
13.7117
11.8849
10.0552
8.22821
6.40319
4.57749
2.75221
0.92642
-0.899376
-2.72502
-4.55109
-6.37663
-8.20289
-10.0284
-11.8546
-13.6803
-15.5064
-17.3322
-19.158
-20.989
20.9966
19.1756
17.3543
15.5328
13.7107
11.8839
10.0544
8.22705
6.40151
4.57585
2.7505
0.924768
-0.901009
-2.72662
-4.5526
-6.3781
-8.20424
-10.0298
-11.8559
-13.6815
-15.5075
-17.3332
-19.159
-20.9894
20.9963
19.1751
17.3537
15.5321
13.7098
11.883
10.0532
8.22541
6.39984
4.57421
2.74883
0.92314
-0.902619
-2.72819
-4.55412
-6.37956
-8.20562
-10.0311
-11.8572
-13.6827
-15.5086
-17.3342
-19.16
-20.9898
20.996
19.1747
17.3531
15.5314
13.7088
11.8816
10.0513
8.22375
6.39817
4.57257
2.74718
0.921532
-0.904211
-2.72975
-4.55561
-6.38104
-8.20703
-10.0325
-11.8584
-13.6839
-15.5098
-17.3354
-19.1611
-20.9902
20.9958
19.1743
17.3526
15.5307
13.7073
11.8792
10.0493
8.2221
6.39652
4.57096
2.74554
0.919939
-0.905784
-2.7313
-4.55713
-6.3825
-8.20843
-10.0338
-11.8597
-13.6852
-15.511
-17.3365
-19.1622
-20.9907
20.9955
19.1739
17.3521
15.5296
13.7048
11.8763
10.0473
8.22044
6.39487
4.56933
2.74392
0.918361
-0.907339
-2.73285
-4.55861
-6.38401
-8.20984
-10.0352
-11.861
-13.6865
-15.5122
-17.3377
-19.1634
-20.9912
20.9953
19.1736
17.3516
15.528
13.7018
11.8735
10.0452
8.21876
6.39321
4.5677
2.74229
0.91681
-0.908843
-2.73437
-4.56013
-6.38552
-8.21127
-10.0366
-11.8623
-13.6878
-15.5135
-17.3389
-19.1645
-20.9917
20.9951
19.1732
17.3511
15.5265
13.699
11.8708
10.0432
8.21713
6.39156
4.56609
2.74067
0.915238
-0.910388
-2.73592
-4.56163
-6.38698
-8.21268
-10.038
-11.8637
-13.6891
-15.5147
-17.3402
-19.1657
-20.9922
20.9949
19.1729
17.3507
15.5255
13.6971
11.8685
10.0412
8.21532
6.3897
4.5642
2.73898
0.913917
-0.911352
-2.7374
-4.56338
-6.38877
-8.21427
-10.0394
-11.865
-13.6904
-15.516
-17.3414
-19.1669
-20.9927
1.72659
-1.90089
-1.78138
1.68613
-1.97065
-1.91448
1.69762
-1.95706
-1.9737
1.73853
-1.89314
-1.95082
1.77921
-1.81091
-1.88296
1.79004
0.189683
0.0695671
-1.73796
-1.80081
1.81684
0.221744
-1.76478
-1.701
3.4675
1.96149
2.03035
-1.01635
-0.87418
-2.11842
-3.55117
-3.51174
3.44261
1.92239
1.95389
1.69939
0.922256
0.944256
-1.18972
-1.14634
-2.18248
-3.58749
-3.56291
3.43945
1.9305
1.92112
1.68587
0.910577
0.906958
-1.22879
-1.23134
-2.17345
-3.58778
-3.59115
3.45367
1.96675
1.93432
1.71664
0.968293
0.940678
-1.13076
-1.17797
-2.11234
-3.55639
-3.58224
-1.01373
-1.08626
-2.03735
-3.50998
-3.5455
-0.909704
-0.95534
1.64976
0.170967
0.177873
-0.0593005
-1.5683
-1.72958
0.94878
0.998766
1.75775
0.879381
0.826576
0.988584
0.889141
-1.1429
-1.05743
-1.85384
-1.13876
-1.19577
0.907614
0.919647
1.69494
0.830847
0.816638
0.822565
0.831674
-1.22715
-1.19509
-1.9538
-1.24885
-1.26999
-1.19893
-1.24503
-1.94592
0.93686
0.913487
1.68791
0.821238
0.848995
0.816982
0.819058
-1.18316
-1.22512
-1.97125
-1.2677
-1.23939
-1.27306
-1.27098
-1.97402
0.856769
0.886229
0.851826
0.85268
-1.08929
-1.12994
-1.91977
-1.18577
-1.1734
-1.23526
-1.18727
-1.92823
0.92029
0.941313
0.890167
0.916845
-0.961995
-1.00745
-1.16766
-1.12532
-1.85215
0.966288
0.93947
0.943787
0.964127
-0.854604
-0.904692
1.76984
1.00897
1.09685
-0.516153
-0.368187
3.47317
2.00413
1.97177
1.7601
1.02881
1.00322
-0.502983
-0.530643
-1.96974
-3.46415
-3.49781
0.60673
0.480573
-0.997228
-1.12427
-1.83578
0.999377
0.972257
1.722
0.443782
0.464149
0.51446
0.522835
0.461937
0.480369
-0.534376
-0.556754
-1.84192
-1.11912
-1.07499
0.524952
0.53699
-1.06857
-1.02566
-1.77125
0.227159
0.954577
1.00143
-0.856467
-0.735876
0.10126
-0.543613
-0.959193
-0.595049
-0.439333
-0.576382
-0.938242
-1.16769
-1.1693
-1.24137
-1.24101
-1.15631
-1.15366
-1.03172
-0.640111
-1.06371
-0.474149
-0.499698
-0.588593
-0.561801
-0.934957
0.415389
0.851669
0.45257
0.472828
0.454402
0.843908
0.475805
0.534108
0.928584
0.466236
0.4142
-1.10817
-1.10363
0.819194
0.819327
0.839334
0.838875
-1.20013
-1.19675
-1.24218
-1.59493
-1.58395
-1.60699
-1.59817
-1.24552
-1.22
-1.55931
-1.53957
-1.57975
-1.56482
-1.22061
0.835303
0.837211
0.815684
0.816297
-1.18963
-1.19419
-1.23934
-1.60022
-1.60879
-1.58461
-1.59661
-1.23535
-1.28243
-1.61327
-1.60916
-1.61086
-1.61349
-1.28265
0.447289
0.869293
0.499653
0.476696
0.51982
0.498013
0.873472
0.834781
0.47988
0.838719
-1.10975
-1.11176
-1.21033
-1.56565
-1.57973
-1.5462
-1.56095
-1.20971
0.499894
0.512154
0.90209
0.536164
0.519357
0.554064
0.53806
0.905925
0.481458
0.498199
-0.981578
-0.612917
-0.592076
-0.633136
-0.61301
-0.988097
-0.551583
0.527782
0.537815
0.204766
0.538765
0.524572
0.000775387
-0.417005
-0.471099
-0.0250407
3.4865
2.13028
2.00798
1.79459
1.12825
1.11277
-0.033721
-0.743863
-0.789755
0.412315
1.05147
1.03212
1.76518
0.288848
0.284119
0.190868
0.529742
0.503355
0.292527
0.309024
-0.366934
-0.400602
0.0519778
0.313589
0.62004
0.620051
-0.347819
-0.261434
0.182495
0.928896
1.29084
1.28149
-1.17274
-1.00782
-1.15434
0.906754
1.26914
1.27104
1.26912
1.26775
0.906329
-1.23675
-1.23675
-1.14221
-1.15857
-0.231443
-0.23912
-0.928292
-0.558074
-0.563328
0.881981
0.870637
0.197295
0.943563
0.546238
0.658347
-1.12612
-0.967048
-1.00074
-1.17893
-1.49596
-1.46187
-1.53196
-1.50519
-1.18965
0.910527
1.27294
1.26871
1.28019
1.27339
0.911827
0.823788
0.632074
0.656006
0.627816
0.626908
0.818032
0.658116
0.656235
0.835184
-1.21772
-1.18798
-1.24533
-1.40477
-1.37625
-1.42798
-1.42172
-1.26103
1.27341
1.27822
0.923666
0.828128
0.651275
0.626073
0.815841
0.627283
0.627955
0.623316
0.622964
0.817274
-1.17834
-1.21361
-1.25689
-1.42274
-1.42765
-1.36845
-1.40165
-1.23737
-1.27868
-1.43314
-1.42856
-1.43013
-1.43284
-1.27837
-1.09759
-0.92375
-0.922914
-0.982152
-0.965176
-1.1241
-1.19691
-1.52586
-1.54113
-1.50485
-1.52055
-1.19164
0.929981
0.568846
0.555997
0.606707
0.599322
0.93298
0.331056
0.331709
0.952646
0.619877
0.610215
0.329754
0.331219
-0.222892
-0.224754
-0.462088
-0.132754
-0.438807
-0.283204
-0.51585
-0.344571
-0.320858
-0.35713
-0.520894
0.544882
0.365156
0.469094
0.34253
0.52495
0.439204
0.448447
0.30274
0.292619
0.518005
0.346229
0.35164
0.345651
0.343611
0.51857
0.458269
0.462492
-0.542537
-0.543041
0.531095
0.363995
0.35264
0.306873
0.303388
-0.640246
-0.796604
-0.756789
-0.839454
-0.808369
-0.661029
-1.16789
-1.15899
-1.23862
-1.23936
-1.14754
-1.15314
-0.673057
-0.826001
-0.835189
-0.813715
-0.824212
-0.668848
-0.843342
-0.86494
-0.839569
-0.840458
-0.485205
-0.304113
-0.293337
-0.325126
-0.306041
-0.488186
-0.243559
-0.277177
0.443541
0.641821
0.632238
0.664981
0.646417
0.444363
0.609771
0.611667
0.627536
0.611286
0.501049
0.690711
0.670513
0.441604
0.436845
-0.950356
-0.959861
-1.12245
-0.906741
-0.870932
-0.849192
-0.895638
-0.877956
-1.08512
-0.929164
-0.94291
0.623943
0.62621
0.822515
0.563898
0.564494
0.600252
0.567308
0.568482
0.570171
0.565867
0.568737
0.817788
0.626775
0.624759
0.589146
0.584726
0.611935
0.597136
0.596261
0.601362
0.586964
0.593857
0.835328
0.65489
0.651019
-1.21462
-1.18886
-1.41163
-1.40547
-1.24085
-1.25782
-1.4206
-1.41298
0.660883
0.657294
0.830985
0.601164
0.601893
0.562378
0.594843
0.596383
0.60405
0.600959
0.597544
0.625786
0.627144
0.816314
0.569314
0.5672
0.570426
0.56933
0.563283
0.561993
0.566698
0.564541
0.816396
0.623736
0.625292
-1.17767
-1.20803
-1.41342
-1.41981
-1.25216
-1.23233
-1.40405
-1.41043
-1.43554
-1.43303
-1.2805
-1.2801
-1.43462
-1.43463
0.446213
0.482552
0.661709
0.670488
0.651959
0.658003
0.472832
0.508671
0.681809
0.659784
0.672342
0.678862
0.501439
0.628216
0.627051
0.612784
0.627882
0.485992
0.643844
0.651064
0.627465
0.638586
0.480355
-0.947013
-0.929804
-1.10122
-0.879475
-0.905644
-0.86866
-0.870276
-0.908846
-1.12004
-0.95592
-0.940877
0.501741
0.326654
0.337696
0.348269
0.324503
0.503182
0.303612
0.482525
0.340402
0.485693
-0.631753
-0.802227
-0.810509
-0.788857
-0.798785
-0.623875
-0.570917
-0.582103
0.334181
0.34925
0.307597
0.327583
-0.194434
-0.220024
-2.00012
-3.49918
-3.46948
-1.76234
-1.07335
-1.03882
0.363592
0.488552
0.467901
0.00116777
0.0347507
0.298167
-1.73127
-0.990158
-0.981399
1.30612
1.29317
0.931688
-1.18379
-1.13984
-1.14666
-1.23273
-1.2332
1.29189
1.30034
0.95213
-1.13476
-1.12723
-1.17175
-0.920495
-0.904633
-1.07649
0.965907
1.32723
1.30989
0.672478
0.675088
0.831042
-0.900073
-0.92275
-1.07944
0.847046
0.659885
0.671591
-1.22356
-1.15383
-1.1598
-1.19864
-1.32603
-1.32347
-1.26687
-1.37168
-1.36564
-1.23066
0.926784
1.2813
1.28835
0.666721
0.65978
0.84311
-1.18668
-1.1466
-1.14089
-1.22165
-1.26444
-1.32259
-1.3252
-1.27514
-1.3303
-1.32835
-1.32777
-1.33006
-1.27418
0.827503
0.684298
0.672405
-1.22006
-1.36
-1.36566
-1.14968
-1.48253
-1.49911
0.222212
0.21969
0.634269
0.623414
0.955201
0.225152
0.224117
-0.556577
-0.535673
-0.886895
-0.503229
-0.45277
0.440592
0.412504
0.415745
0.464942
0.459512
0.404758
0.408675
0.425801
0.422737
0.476557
-0.510457
-0.501074
-0.552518
0.36355
0.363471
0.532383
-0.816992
-0.406375
-0.42056
-0.562931
-0.607355
-0.66156
-0.646834
-0.740265
-0.723758
-0.743938
-0.705078
-0.51972
-1.11073
-1.11312
-1.16536
-1.16788
-1.11453
-1.11668
-1.24254
-1.24091
-1.1023
-1.10067
-1.15582
-1.15023
-1.09511
-1.09563
-0.715567
-0.72441
-0.69541
-0.70169
-0.649575
-0.734004
-0.742531
-1.07326
-0.901339
-0.89559
0.417237
0.450394
0.508592
0.508771
0.537389
0.53097
0.468633
0.489238
0.492759
0.505533
0.489063
0.449011
0.690259
0.696435
0.508347
0.454497
0.388575
0.391445
0.416426
-0.769654
-0.758274
0.649987
0.654664
0.845347
0.495745
0.498891
-1.20446
-1.19357
-1.35004
-1.3442
-1.21125
-1.22636
-1.35971
-1.35479
0.841097
0.659873
0.66074
-1.18427
-1.19844
-1.33662
-1.33627
-1.28215
-1.28289
-1.33666
-1.33668
0.450213
0.500001
0.555028
0.556418
0.532151
0.530893
0.473546
0.687625
0.685582
0.831128
0.511192
0.508507
0.514436
0.520995
0.482986
0.535485
0.533967
0.506167
0.505212
-1.34909
-1.3539
-1.21545
-1.20118
-1.3398
-1.34499
0.522939
0.670813
0.676258
0.662613
0.665956
0.519593
-0.602948
-0.748175
-0.785833
-0.73606
-0.742665
-0.600872
-0.632635
-0.692427
-0.692295
-0.552766
-0.514855
-0.597123
0.191491
0.227914
0.243583
0.219915
0.545429
0.381176
0.366831
0.387181
0.383601
0.521625
-0.0536487
-0.0828605
-0.288213
-0.281949
-0.460195
0.382127
0.410659
0.347631
0.285388
0.28326
0.338519
0.328019
0.180531
0.306597
0.261641
0.257331
0.257454
0.260519
0.309785
0.115145
-0.151872
-0.182946
-0.314061
-0.0557136
-0.0905604
-1.12798
-1.1336
-1.1781
-1.01118
-1.04082
-1.04485
-1.05108
-1.04447
-1.2355
-1.23468
-1.02627
-1.03389
-1.01315
-1.01856
-1.165
-1.11907
-1.11128
-0.239624
-0.185155
-0.173354
-0.200828
-0.195485
-0.244855
-0.977318
-1.0235
-1.01617
-1.04091
-1.03264
-0.989233
-1.22027
-1.19747
-1.16179
-1.16097
-1.26385
-1.32095
-1.3183
-1.15504
-1.1515
-1.18606
-1.21874
-1.31651
-1.31973
-1.26117
-1.3334
-1.33185
-1.27684
-1.27668
-1.33203
-1.33346
-0.97939
-1.02001
-1.01306
-1.01228
-1.0179
-0.972742
0.216942
0.214666
0.226253
0.225063
0.33061
0.276725
0.276836
-0.118719
-0.121014
-0.222542
-0.158991
-0.166278
-0.163713
-0.157656
-0.221892
-0.407839
-0.425223
-0.48423
-0.35028
-0.168818
-0.249344
-0.211128
-0.313899
-0.289512
-0.219759
-0.332738
-0.390335
-0.398712
-0.383604
-0.385237
-0.323573
-0.372978
-0.409908
-0.411905
-0.407879
-0.414122
-0.368097
0.378793
0.448235
0.417806
0.364375
0.359392
0.380548
0.373574
0.43827
0.46194
0.417058
0.41246
0.299851
0.29634
0.404545
0.405451
0.351039
0.399027
0.401174
0.457808
0.377567
0.376204
0.373135
0.469815
0.409096
0.399977
-0.481747
-0.486587
-0.541955
-0.440196
-0.444869
-0.420103
-0.430361
-0.546652
-0.491079
-0.48317
0.30454
0.25016
0.253816
0.245077
0.246971
0.302935
-0.691327
-0.675658
-0.618733
-0.678694
-0.714641
-0.706178
-1.0829
-1.16463
-1.11613
-1.12206
-1.06591
-1.05869
-1.07922
-1.07327
-1.24091
-1.24096
-1.05705
-1.06343
-1.04182
-1.04973
-1.15236
-1.09538
-1.08879
-1.10419
-1.0983
-1.14995
-1.06699
-0.708051
-0.708965
-0.659783
-0.708776
-0.713108
-0.849816
-0.798348
-0.788646
-0.818232
-0.808931
-0.857846
-0.841859
-0.786373
-0.782636
-0.781718
-0.780771
-0.841208
-0.746474
-0.319079
-0.377858
-0.382127
-0.253507
-0.265664
0.411605
0.507679
0.507188
0.446304
0.452516
0.521352
0.512572
0.48121
0.485074
0.549772
0.547239
0.610824
0.481408
0.479136
0.385694
0.384459
0.445584
0.351495
0.421284
0.380581
0.386483
-0.956483
-1.00891
-1.00385
-1.01293
-1.0116
-0.955351
-0.926073
-0.91736
-0.863238
-0.811135
-0.825434
-0.79944
-0.803498
-0.856978
-0.885506
-0.837432
-0.84498
-0.87864
0.563283
0.5633
0.594862
0.547862
0.54878
0.540552
0.577512
0.569056
0.569745
0.567003
0.56798
0.584085
0.520763
0.523506
0.525406
0.522228
0.583234
0.610504
0.552358
0.551744
0.532481
0.548628
0.605773
0.499881
0.494152
0.59844
0.543643
0.540689
0.548533
0.546253
0.600257
0.589481
0.532224
0.528701
0.53736
0.534216
0.591547
-1.20914
-1.18986
0.602816
0.550658
0.551549
0.54769
0.549088
0.602617
0.565799
0.54984
0.542247
0.577631
0.59617
0.536834
0.538609
0.539475
0.536677
0.598262
0.599889
0.544619
0.546224
0.541009
0.543035
0.598783
0.569118
0.56857
0.570505
0.569492
0.562668
0.562074
0.566275
0.565904
-1.17966
-1.20306
-1.28177
-1.33579
-1.33473
-1.33483
-1.33591
-1.28179
0.451218
0.543928
0.550911
0.496547
0.471524
0.53165
0.536252
0.516484
0.513893
0.627859
0.568466
0.570123
0.620822
0.566108
0.550459
0.571278
0.570896
0.625936
0.521316
0.518989
0.531514
0.535471
0.485456
0.50666
0.516907
-0.943962
-0.998975
-1.00082
-0.988997
-0.994447
-0.937375
-0.889542
-0.898299
-0.862977
-0.830008
-0.826368
-0.863803
-0.947273
-0.999973
-1.00544
-0.999543
-0.997967
-0.941334
0.330152
0.384493
0.382698
0.38901
0.386914
0.334003
0.334172
0.393915
0.400757
0.382934
0.386854
0.325397
0.298481
0.365619
0.363435
0.372865
0.369172
0.341844
0.386686
0.389625
0.364298
0.373223
0.337469
-0.688561
-0.691985
-0.636972
-0.560523
-0.592178
0.214433
0.217464
0.315104
0.255718
0.24625
0.27565
0.270734
0.322638
0.226088
0.227118
-0.0976294
-0.110273
3.23435
2.09907
2.31851
1.64632
0.282912
0.497959
-0.174067
-1.56544
-1.33353
-2.03664
-3.19963
-3.1889
5.08781
3.95624
4.16471
3.50218
2.13773
2.10462
1.68336
0.212393
0.288782
-0.0161698
-1.57934
-1.57262
-2.05333
-3.46288
-3.43986
-3.92439
-5.07035
-5.05916
5.08669
3.9515
3.9581
3.49949
2.03861
2.14881
1.82857
1.16418
1.13098
0.0230089
-0.734821
-0.743291
-1.96287
-2.54902
-2.53659
-3.95733
-5.09446
-5.08133
5.0736
3.92609
3.94653
3.4852
3.02945
3.03994
1.79569
1.5709
1.58485
-2.06001
-2.73726
-2.70919
-3.99834
-5.11936
-5.10678
5.05855
3.90492
3.91958
3.45259
2.98896
2.99722
1.71101
1.47425
1.48209
-2.15927
-2.80699
-2.78376
-4.0284
-5.13884
-5.13049
5.05241
3.90118
3.90243
3.43833
2.97372
2.97483
1.68432
1.44615
1.44671
-2.18744
-2.83018
-2.82656
-4.02933
-5.14203
-5.14291
5.05623
3.91204
3.90292
3.44509
2.98458
2.98004
1.70649
1.47357
1.46805
-2.14621
-2.80193
-2.81578
-4.00302
-5.12672
-5.13644
5.06531
3.92795
3.91597
1.74947
1.52229
1.51596
-2.07525
-2.74552
-2.76839
-3.96255
-5.09953
-5.11402
5.07418
3.94011
3.93169
-2.00021
-2.57522
-2.59071
-3.92153
-5.06837
-5.08405
5.06845
4.15206
4.16268
3.46111
2.10216
2.1176
1.76885
1.09508
1.10352
0.0329019
-0.315477
-0.352205
-2.03607
-3.42556
-3.45389
-4.11936
-5.03569
-5.05256
5.05134
4.14072
4.144
3.22994
2.09017
2.09965
1.63702
0.267805
0.283551
-0.191035
-1.57066
-1.56917
-2.03371
-3.18213
-3.41993
-4.10165
-5.02133
-5.0257
3.22574
2.31383
2.31718
1.40291
0.488749
0.264934
-0.426946
-1.34276
-1.57108
-2.26165
-3.18008
-3.17979
1.4912
1.50173
1.73603
-1.88553
-1.61385
-1.63829
-1.54574
-1.56594
-1.799
1.44812
1.4504
1.68832
-1.96624
-1.70242
-1.71002
-1.64537
-1.66464
-1.92637
1.46285
1.45811
1.69385
-1.96259
-1.69915
-1.68985
-1.71151
-1.71444
-1.97534
1.50955
1.5036
1.73307
-1.90198
-1.63069
-1.67209
-1.68592
-1.67318
-1.94388
-1.82113
-1.59693
-1.58608
-1.66234
-1.6514
-1.87264
1.1082
1.13296
1.79717
0.171676
0.299881
0.290424
-0.0642497
-0.0864657
0.111317
-1.57485
-1.56351
-1.79062
1.1079
1.1732
1.82891
0.421845
0.444684
0.466138
0.90318
0.941995
0.268059
0.268509
0.358643
-1.7513
-1.51109
-1.52622
-0.985775
-0.983905
-1.7233
3.00702
3.01802
3.47628
1.9896
2.56081
2.54695
2.58892
2.57536
1.9999
-0.999218
-0.861221
-0.891066
-0.747842
-0.771658
-0.894194
-2.77608
-2.74683
-2.0756
-3.53833
-3.08739
-3.1037
-3.05431
-3.07043
-3.52497
2.97771
2.98244
3.44694
1.9314
2.51706
2.51166
2.53476
2.52475
1.93562
1.46199
1.46761
1.7048
0.924431
1.04476
1.04228
1.06525
1.0609
0.940332
-1.09657
-1.09689
-1.14872
-2.82563
-2.81141
-2.16663
-3.58132
-3.14154
-3.1491
-3.11858
-3.13137
-3.57316
2.97654
2.97433
3.43828
1.9226
2.50868
2.51178
2.5085
2.50755
1.92096
1.44807
1.4466
1.68473
0.908704
1.03112
1.03261
1.02888
1.02849
0.906489
-2.82098
-2.82763
-2.18555
-3.59122
-3.15386
-3.14971
-3.15368
-3.15527
-3.59248
2.99571
2.98992
3.44916
1.95208
2.52944
2.53682
2.5165
2.52252
1.94724
1.48542
1.47942
1.71149
0.956061
1.30404
1.3134
1.05789
1.06129
0.94434
-1.13309
-1.07111
-1.06984
-2.7761
-2.79513
-2.13821
-3.56633
-3.12404
-3.11225
-3.1431
-3.13449
-3.57508
-1.01991
-0.880926
-0.871618
-1.03062
-1.02738
-1.08319
-2.60723
-2.62229
-2.06593
-3.52207
-3.07253
-3.05834
-3.09945
-3.08605
-3.53398
-0.9156
-0.80079
-0.794552
-0.842336
-0.835378
-0.948553
1.1985
1.09177
1.65289
0.188628
0.866357
0.855645
0.499658
0.487995
0.149434
-0.751544
-0.743027
-0.0418163
-1.57344
-0.980359
-1.1001
-1.02686
-0.988086
-1.70247
0.953725
1.07516
1.06992
1.35464
1.3328
0.97306
1.74633
1.51356
1.52686
0.868904
0.710501
0.726365
0.974203
0.863649
0.881634
0.767955
0.780502
0.90072
-1.13797
-1.08687
-1.09322
-1.00477
-1.01345
-1.06618
-1.63201
-1.65128
-1.87068
-1.15374
-1.26011
-1.2463
-1.3216
-1.31349
-1.2083
0.908433
1.03022
1.0294
1.03993
1.0375
0.916454
1.69117
1.45345
1.45732
0.828277
0.768345
0.771283
0.754024
0.754259
0.817453
0.772983
0.774104
0.833437
-1.68847
-1.69957
-1.9606
-1.25122
-1.29953
-1.29639
-1.20779
-1.33751
-1.33023
-1.29406
-1.28972
-1.24022
-1.93682
-1.66994
-1.68454
0.933216
1.05101
1.05431
1.03468
1.03703
0.917119
1.69053
1.45396
1.45059
0.822914
0.760769
0.757598
0.789252
0.786888
0.846936
0.81619
0.75368
0.753947
0.755323
0.754135
0.818484
-1.70944
-1.7023
-1.96739
-1.29015
-1.29287
-1.24212
-1.97543
-1.71416
-1.71148
0.860937
0.71734
0.711119
0.772579
0.768259
0.88212
0.855194
0.793433
0.791918
0.709484
0.702129
0.848279
-1.09182
-1.03531
-1.03325
-1.07233
-1.07464
-1.12923
-1.64997
-1.63559
-1.91103
-1.18126
-1.31819
-1.32302
-1.28399
-1.28972
-1.17921
-1.23046
-1.28243
-1.28624
-1.32793
-1.33368
-1.19684
-1.93631
-1.66859
-1.65486
0.923633
0.811891
0.808466
0.829947
0.827187
0.938621
0.894115
0.780496
0.776492
0.804849
0.801025
0.913272
-0.968612
-0.855871
-0.849157
-0.868426
-0.85893
-1.00106
-1.16159
-1.27231
-1.27821
-1.45988
-1.47667
-1.14373
-1.86239
-1.6405
-1.62969
0.973334
0.646721
0.637507
0.611457
0.643845
0.969764
0.946936
0.835843
0.832804
-0.881716
-0.5252
-0.497945
1.54126
1.55621
1.78271
1.04491
1.38629
1.36202
1.36516
1.34798
1.0582
-0.291027
-0.320345
-0.391261
1.99116
2.55941
2.5663
2.54443
2.55203
1.98651
1.53411
1.52833
1.75485
1.0183
1.30177
1.3081
1.28795
1.29508
1.01464
-0.506553
-0.446661
-0.443507
-0.471575
-0.470312
-0.527858
-2.54701
-2.5608
-1.99184
0.586162
0.534472
0.559107
0.409495
0.420805
0.493426
-1.05288
-1.39942
-1.36543
-1.45017
-1.41233
-1.07229
-1.8173
-1.588
-1.61031
0.987869
1.33083
1.28147
1.31713
1.32709
0.984085
1.72744
1.49754
1.4915
0.516265
0.46068
0.459127
0.464896
0.462593
0.520841
-0.538808
-0.481901
-0.475627
-1.6188
-1.60788
-1.83158
-1.10027
-1.43641
-1.45403
-1.35978
-1.43049
-1.09404
0.527363
0.471064
0.467929
0.48041
0.478721
0.535171
-1.04887
-1.33633
-1.34853
-1.31369
-1.32464
-1.0426
-1.78073
-1.55263
-1.54231
0.57319
0.608415
0.28856
1.02169
0.710292
0.678311
0.699251
0.717604
1.02109
-0.841491
-0.708904
-0.726758
-0.417346
-0.402966
-0.80814
0.159434
-0.263222
-0.289415
-0.813635
-0.850336
-0.979705
-0.499464
-0.644565
-0.617251
-0.630811
-0.614411
-0.558465
-0.916533
-0.797396
-0.820812
-0.892081
-0.883208
-1.02598
-1.06732
-1.01181
-1.00933
-0.478288
-0.418969
-0.415006
-0.440675
-0.436848
-0.495838
-0.578318
-0.722022
-0.729104
-0.707214
-0.714645
-0.574099
-0.941757
-0.828321
-0.821231
0.694981
0.706187
0.85976
0.836712
0.67725
0.690704
0.482051
0.548776
0.542544
0.600913
0.590049
0.523572
0.914064
0.79541
0.80987
-1.05586
-1.06072
-1.114
-1.09706
-1.04468
-1.05048
0.755249
0.755783
0.820318
0.818429
0.754922
0.755116
0.777461
0.778642
0.841491
0.837118
0.776213
0.776852
-1.302
-1.2992
-1.23944
-1.59139
-1.48623
-1.4897
-1.47909
-1.48213
-1.58773
-1.6043
-1.49906
-1.50157
-1.49298
-1.49616
-1.60143
-1.24946
-1.30861
-1.30514
-1.27341
-1.27032
-1.218
-1.55321
-1.44881
-1.45477
-1.43515
-1.4423
-1.54673
-1.57502
-1.47013
-1.47485
-1.46014
-1.46521
-1.57013
-1.22134
-1.27618
-1.27399
0.777228
0.776024
0.834386
0.838148
0.779547
0.778499
0.752752
0.752963
0.816227
0.815929
0.752701
0.752774
-1.30236
-1.30587
-1.24343
-1.60341
-1.49334
-1.48972
-1.49983
-1.49678
-1.60639
-1.58874
-1.48103
-1.48014
-1.48617
-1.48328
-1.5929
-1.2318
-1.29556
-1.29882
-1.61235
-1.50643
-1.50698
-1.50368
-1.50534
-1.61107
-1.61226
-1.5045
-1.50247
-1.50681
-1.50602
-1.61326
0.755455
0.720098
0.86526
0.51888
0.57399
0.575613
0.556555
0.55675
0.496696
0.877762
0.763454
0.759101
0.84338
0.698207
0.688939
-1.055
-1.05259
-1.1077
-1.11354
-1.05767
-1.05638
-1.26499
-1.26554
-1.21058
-1.57026
-1.46236
-1.45731
-1.47441
-1.46812
-1.57499
-1.5512
-1.44275
-1.43754
-1.45268
-1.44789
-1.5562
-1.20817
-1.26271
-1.26368
0.500641
0.44376
0.444186
0.455988
0.45133
0.508886
0.78919
0.784797
0.898119
0.532713
0.589702
0.592773
0.576272
0.576797
0.518584
0.54455
0.688541
0.692907
0.680626
0.684368
0.541894
0.909628
0.797159
0.793308
0.481358
0.423154
0.425066
0.443207
0.439559
0.494975
-0.868937
-0.862353
-0.975054
-0.610178
-0.667581
-0.670477
-0.649455
-0.652993
-0.595781
-0.672334
-0.674431
-0.613182
-0.994548
-0.881524
-0.875471
0.531102
0.391021
0.387856
0.403763
0.393391
0.535023
0.541104
0.485367
0.4826
-0.425573
-0.279303
-0.261049
-0.411354
-0.407739
-0.467085
2.13361
2.58242
2.58296
2.57257
2.57806
2.0172
1.1231
1.3453
1.34975
1.33556
1.34052
1.11768
-0.267784
-0.262247
-0.0265156
-0.753316
-0.502838
-0.503226
-0.489325
-0.516871
-0.771502
1.04438
1.32545
1.33062
1.31419
1.31997
1.04151
1.7701
1.54508
1.5397
0.23311
0.246112
0.231535
0.518894
0.406525
0.393404
0.397433
0.402575
0.509018
-0.376454
-0.240971
-0.221781
-0.249498
-0.257611
-0.386391
0.143447
-0.0107278
-0.0393363
0.42359
0.482582
0.336846
0.627821
0.535023
0.521639
0.499338
0.528009
0.62509
-0.330678
-0.248691
-0.267063
-0.114378
-0.057317
-0.265411
0.272155
0.027859
0.0361947
1.05009
1.04725
0.926531
1.28681
1.16718
1.1703
1.16199
1.16465
1.28505
-1.15092
-1.09665
-1.09845
1.02917
1.02993
0.907477
1.26887
1.14896
1.14836
1.15147
1.1502
1.27074
1.26772
1.14784
1.14844
1.14778
1.14783
1.2686
0.906287
1.02846
1.02861
-1.08197
-1.07577
-1.13719
-0.814183
-0.80726
-0.921747
-0.576664
-0.692488
-0.699808
-0.679184
-0.685791
-0.570314
0.879503
0.658648
0.608881
0.647998
0.654071
0.875174
0.206287
0.427303
0.421092
0.826566
0.844884
0.958995
0.588926
0.732424
0.709684
0.776857
0.755782
0.605982
-1.07278
-1.07954
-1.13254
-1.28406
-1.27255
-1.16701
-1.48443
-1.3782
-1.38951
-1.35374
-1.36648
-1.47413
-1.52384
-1.41883
-1.42721
-1.3999
-1.40982
-1.51515
-1.19925
-1.30432
-1.29457
1.03235
1.03114
0.909392
1.27062
1.15095
1.15242
1.14895
1.15002
1.27059
1.27702
1.15746
1.15983
1.15375
1.15565
1.27613
0.913689
1.03544
1.03368
0.761187
0.76482
0.826598
0.640963
0.7027
0.697161
0.712436
0.708373
0.650398
0.627571
0.691771
0.691803
0.69161
0.691651
0.627199
0.817169
0.754329
0.75459
0.658197
0.715275
0.714499
0.715152
0.715321
0.657402
0.833674
0.774591
0.775129
-1.29861
-1.30017
-1.25002
-1.40252
-1.35303
-1.35281
-1.42536
-1.37141
-1.37344
-1.36747
-1.36963
-1.42452
1.27422
1.15532
1.15341
1.16004
1.15774
1.27696
0.920542