/*--------------------------------*- C++ -*----------------------------------*\
| =========                 |                                                 |
| \\      /  F ield         | OpenFOAM: The Open Source CFD Toolbox           |
|  \\    /   O peration     | Version:  5.x                                   |
|   \\  /    A nd           | Web:      www.OpenFOAM.org                      |
|    \\/     M anipulation  |                                                 |
\*---------------------------------------------------------------------------*/
FoamFile
{
    version     2.0;
    format      ascii;
    class       volScalarField;
    location    "100";
    object      p_rgh;
}
// * * * * * * * * * * * * * * * * * * * * * * * * * * * * * * * * * * * * * //

dimensions      [0 2 -2 0 0 0 0];

internalField   nonuniform List<scalar> 
6584
(
0.00665125
0.00711439
0.00766571
0.00848561
0.0095257
0.0108556
0.0124569
0.0143436
0.0163273
0.0182833
0.0196758
0.0199273
0.0186099
0.015792
0.0120308
0.00802772
0.00434038
0.0011453
-0.00144881
-0.00349853
-0.00505277
-0.00623424
-0.00701295
-0.00764815
0.0064889
0.00699733
0.00751707
0.00833143
0.00934896
0.0106795
0.0122998
0.0142772
0.0164014
0.0185985
0.0202392
0.0206681
0.0193171
0.0162558
0.0121998
0.00788903
0.00404605
0.000787056
-0.00179412
-0.00380768
-0.00530851
-0.00646307
-0.00718727
-0.00787427
0.00614027
0.00666207
0.00712338
0.00789926
0.00885903
0.0101742
0.0118412
0.0140695
0.0165031
0.0187785
0.0217348
0.0232557
0.0223814
0.0189129
0.013934
0.00735336
0.00314527
-0.00025406
-0.00277877
-0.00466585
-0.00601972
-0.0070685
-0.00768143
-0.00835867
0.00568147
0.00617304
0.00654927
0.00723984
0.00808957
0.00932219
0.0110102
0.0134918
0.0167953
0.0199887
0.0246077
0.0279223
0.0274166
0.0222642
0.0150779
0.00839879
0.00155597
-0.00198665
-0.00434413
-0.00597473
-0.0070828
-0.00793921
-0.00839088
-0.00898372
0.0051464
0.0055649
0.00582503
0.00636504
0.00702389
0.00803261
0.0095728
0.0120831
0.0151372
0.020803
0.0279817
0.0350452
0.0355901
0.0267316
0.0152591
0.00633325
0.000492735
-0.00472494
-0.00662854
-0.00773121
-0.00845717
-0.00901364
-0.0092529
-0.00969121
0.00456384
0.00486697
0.00497826
0.00528913
0.00564742
0.00616551
0.00725686
0.00883934
0.0128486
0.019014
0.0292126
0.046551
0.0540214
0.0360989
0.012908
0.00132535
-0.00433766
-0.00836478
-0.00952674
-0.00986665
-0.0100763
-0.0102277
-0.0102083
-0.0104264
0.00397597
0.0041292
0.00407026
0.00408916
0.00406592
0.00392152
0.00427004
0.00518773
0.00708624
0.0118965
0.0248168
0.0563196
0.100645
0.0395727
0.00585866
-0.0087299
-0.0115265
-0.0131343
-0.0129511
-0.0122598
-0.0118203
-0.0114792
-0.0111713
-0.0111172
0.00343056
0.00341639
0.00318802
0.00289057
0.00244163
0.00154617
0.000768924
0.000537688
-0.00105533
-0.00222951
0.00132092
0.019842
-0.00061122
-0.0224189
-0.0248304
-0.0211495
-0.0185121
-0.0165386
-0.0146586
-0.0135
-0.0126314
-0.0120363
-0.0116846
0.00297196
0.00279706
0.00242914
0.00185137
0.00101793
-0.00053605
-0.00245792
-0.00419887
-0.00961248
-0.0190389
-0.0333547
-0.0722268
-0.113213
-0.0628963
-0.0427502
-0.0309604
-0.023399
-0.0196196
-0.016674
-0.0148664
-0.0135266
-0.0126921
-0.0120554
0.0026332
0.00233044
0.00188245
0.00112729
6.26126e-05
-0.00182705
-0.00445332
-0.0073055
-0.0147847
-0.0285295
-0.0517978
-0.105423
-0.168162
-0.0888285
-0.0539292
-0.0373799
-0.0264336
-0.0214499
-0.0178938
-0.0156748
-0.014021
-0.0130415
-0.012174
0.00242826
0.00205009
0.00159734
0.000806015
-0.000273261
-0.00207061
-0.00470331
-0.0077867
-0.0146162
-0.026571
-0.0466324
-0.0856631
-0.153734
-0.0875583
-0.0537098
-0.0381224
-0.0267472
-0.0215979
-0.0180719
-0.0157754
-0.0140294
-0.0130266
-0.0120153
0.0023487
0.00195366
0.00156552
0.000870667
-2.58049e-05
-0.00138095
-0.00339983
-0.00586212
-0.0100433
-0.0162514
-0.0259996
-0.0391449
-0.096772
-0.0650556
-0.0437691
-0.0335166
-0.0244533
-0.0201405
-0.0172244
-0.015176
-0.0135509
-0.0126452
-0.0115895
0.00236717
0.00200567
0.00172726
0.00121391
0.000617175
-0.000144356
-0.001244
-0.0026541
-0.00376046
-0.0039437
-0.00318348
0.00531073
-0.033202
-0.0353857
-0.0296875
-0.0259194
-0.0204824
-0.0175901
-0.015593
-0.0140217
-0.0126768
-0.0119489
-0.0109392
0.00244642
0.00215171
0.00199732
0.00169107
0.00141483
0.00120442
0.00099112
0.00149468
0.00157784
0.0051489
0.0112241
0.0314976
0.0878563
0.00894744
-0.0118895
-0.0169994
-0.0180576
-0.0160198
-0.0146142
-0.0135414
-0.0125307
-0.0115347
-0.0110257
-0.0101278
0.00254906
0.00233521
0.00229282
0.00216981
0.00215608
0.00232663
0.00269661
0.00370645
0.00481966
0.0090243
0.0156565
0.0278618
0.0341995
0.0156557
-0.00146126
-0.00857957
-0.0111004
-0.0119253
-0.0117403
-0.0114114
-0.0109182
-0.0102612
-0.00997202
-0.00922036
0.00264465
0.00251031
0.00255319
0.00256682
0.00272946
0.00311836
0.00375972
0.00510324
0.00633114
0.00949077
0.0141075
0.0194119
0.019846
0.0100302
0.00234309
-0.00394452
-0.00758654
-0.00877578
-0.0092909
-0.00943288
-0.00934645
-0.0089796
-0.00887886
-0.00828605
0.00271278
0.00264715
0.00274475
0.00284597
0.00310282
0.0035804
0.00428598
0.00558067
0.00739145
0.00845396
0.0115171
0.0140246
0.0126661
0.00763197
0.00255588
-0.00156893
-0.00487683
-0.00638481
-0.00729295
-0.00771102
-0.0079094
-0.00775616
-0.00780341
-0.00736235
0.00274259
0.00273062
0.0028554
0.00300093
0.00328801
0.00374575
0.0044063
0.00528615
0.00694941
0.00745296
0.00945028
0.00942686
0.0084512
0.00488148
0.000778698
-0.000485815
-0.00316268
-0.00465621
-0.00572514
-0.00627123
-0.00664957
-0.00664238
-0.00679257
-0.00648265
0.00273096
0.00275715
0.00288842
0.00304577
0.00332552
0.00370264
0.00429133
0.00477956
0.00609981
0.00584256
0.00782457
0.00668083
0.00567972
0.00408431
0.000427864
-7.97917e-05
-0.00244674
-0.00349214
-0.00456053
-0.00510581
-0.00557833
-0.00565844
-0.00587167
-0.00566909
0.00268004
0.00273072
0.00285567
0.00300464
0.00326165
0.00354117
0.00405993
0.00427453
0.00534268
0.00491855
0.00621643
0.00541595
0.00469635
0.00336078
0.000661871
0.000182202
-0.00190704
-0.00263443
-0.00368003
-0.00416429
-0.00467921
-0.00480345
-0.00505009
-0.0049307
0.00259475
0.00265899
0.00277095
0.00290033
0.00312922
0.00331461
0.00376677
0.00379477
0.00464989
0.00415858
0.00495949
0.00415608
0.00363073
0.00271124
0.000690935
0.000315597
-0.00147561
-0.00199167
-0.0029958
-0.00339957
-0.0039275
-0.00406746
-0.00432704
-0.00426915
0.00248105
0.00255056
0.00264677
0.00275161
0.00295134
0.00305485
0.00344425
0.00334706
0.00402517
0.00350333
0.00406435
0.00325538
0.0028408
0.002179
0.000598359
0.00034788
-0.00117195
-0.0015228
-0.00246155
-0.00277988
-0.0033007
-0.00343776
-0.0036967
-0.00368186
0.00234497
0.00241398
0.00249415
0.00257386
0.00274575
0.00278354
0.00311644
0.00294085
0.00348287
0.00296232
0.00337285
0.00262224
0.00228349
0.00176614
0.000499667
0.000342155
-0.000954332
-0.00117736
-0.00204071
-0.00227797
-0.00277824
-0.00290098
-0.00315051
-0.00316371
0.00219195
0.00225697
0.00232211
0.00237885
0.00252536
0.00251375
0.00279737
0.00257741
0.00301409
0.00251627
0.00281819
0.00213708
0.00185387
0.0014378
0.000408782
0.000320665
-0.000791306
-0.000917332
-0.00170426
-0.00186963
-0.00234167
-0.0024441
-0.00267897
-0.00270845
0.00202663
0.00208591
0.00213763
0.00217503
0.00229882
0.00225256
0.00249311
0.00225359
0.00260697
0.00214872
0.00237105
0.00175921
0.00151089
0.00117152
0.00032495
0.000290927
-0.000666783
-0.000718915
-0.0014318
-0.00153584
-0.00197529
-0.00205498
-0.00227233
-0.00230929
0.0018529
0.0019059
0.00194599
0.00196822
0.00207171
0.00200372
0.00220624
0.00196462
0.00224994
0.00183654
0.0019986
0.00145387
0.00123087
0.000958224
0.000253302
0.000259559
-0.000569979
-0.00056602
-0.00120891
-0.00126158
-0.00166628
-0.00172308
-0.00192162
-0.00195983
0.00167391
0.00172099
0.00175112
0.00176257
0.00184772
0.00176858
0.00193721
0.00170568
0.00193501
0.00156846
0.00168806
0.00120404
0.00101137
0.000793342
0.000194196
0.00022906
-0.000493855
-0.000447231
-0.00102453
-0.00103501
-0.00140467
-0.00143967
-0.00161901
-0.00165389
0.0014921
0.00153425
0.00155579
0.00156048
0.00162893
0.00154697
0.00168506
0.0014728
0.00165635
0.00133897
0.00142774
0.00100238
0.000835647
0.000648313
0.000132795
0.000196895
-0.000432456
-0.000352465
-0.000869052
-0.000845744
-0.00118059
-0.00119582
-0.00135631
-0.00138525
0.00130932
0.00134778
0.00136184
0.00136327
0.00141652
0.00133812
0.00144885
0.0012615
0.00140653
0.00113962
0.0012032
0.000831951
0.000685089
0.00052664
8.0694e-05
0.000167761
-0.00038233
-0.000276574
-0.000737029
-0.000686509
-0.000987425
-0.000985124
-0.00112747
-0.00114896
0.00112716
0.00116323
0.0011707
0.00117178
0.00121093
0.00114068
0.00122725
0.00106671
0.00117827
0.000961426
0.00100534
0.000685475
0.000555078
0.000424894
3.63299e-05
0.000141316
-0.000340655
-0.00021487
-0.000623376
-0.000551091
-0.000819321
-0.000801792
-0.000926843
-0.000940216
0.00094699
0.000981622
0.000983249
0.000986197
0.00101215
0.000953427
0.00101767
0.000884503
0.000967178
0.0007988
0.00082835
0.000558762
0.000443366
0.000338513
-3.12147e-06
0.000116058
-0.000305656
-0.000164034
-0.000523857
-0.000434533
-0.000671255
-0.00064078
-0.000749453
-0.000754615
0.000769969
0.000803704
0.000800307
0.000806178
0.000820735
0.000773736
0.000816597
0.000709756
0.000766956
0.000645122
0.000667281
0.000449236
0.000350709
0.000264962
-3.98446e-05
8.93901e-05
-0.000277323
-0.000122423
-0.000435331
-0.000332661
-0.000538593
-0.000497661
-0.000590867
-0.000588407
0.000596727
0.000629344
0.000622032
0.000631372
0.000636401
0.000600334
0.000624566
0.000540684
0.000575277
0.00049594
0.000517297
0.000353021
0.000275209
0.000200323
-7.36586e-05
6.09724e-05
-0.000251898
-8.67078e-05
-0.000353078
-0.000241655
-0.000417113
-0.000368643
-0.000447008
-0.000438095
0.000429525
0.000460619
0.000450655
0.000463268
0.000459508
0.000432541
0.000436998
0.000361262
0.000369451
0.000328558
0.000372546
0.000283463
0.000253867
0.000150312
-0.000119999
9.39706e-06
-0.000243503
-6.07826e-05
-0.000275473
-0.000159262
-0.000302769
-0.000250722
-0.000314432
-0.000301271
0.000261894
0.000286858
0.000277118
0.000289818
0.000283559
0.000267018
0.000264785
0.000208707
0.000202676
0.000183887
0.000227998
0.000195808
0.000192473
8.53374e-05
-0.00012921
-1.0643e-05
-0.000191352
-2.71095e-05
-0.000185365
-8.2724e-05
-0.000189018
-0.000141488
-0.000188467
-0.000173833
0.00012752
0.000152748
0.000145247
0.000163843
0.000153074
0.000140771
9.79226e-05
-8.25009e-05
-0.000210828
-0.000229341
2.01651e-05
0.000358406
0.000709103
8.34657e-05
-0.000419608
-0.00032322
-0.000347206
-2.73376e-05
-0.000102958
-5.64784e-06
-7.34697e-05
-3.67738e-05
-6.83211e-05
-5.90967e-05
-0.0638789
-0.110462
0.00454768
-0.104313
-0.179294
-0.12371
-0.0904286
-0.168368
-0.182443
-0.0452337
-0.110864
-0.162742
0.000479777
-0.0393435
-0.101765
0.0301506
0.100195
0.0956905
0.0126217
-0.0310012
0.0308706
0.100505
0.0193534
0.0505504
-0.0254381
-0.0557591
0.0160513
-0.0783574
0.0579675
-0.101458
-0.0601706
-0.0218418
-0.0494924
-0.0946192
-0.0634084
-0.0913176
-0.132693
-0.109811
-0.217199
-0.178279
-0.16498
-0.0976915
-0.0719399
-0.0499156
-0.0839731
-0.0957209
-0.103707
-0.141517
-0.146587
-0.250089
-0.251959
-0.158998
-0.102347
-0.10208
-0.0318701
-0.0434408
-0.0796728
-0.0694535
-0.0829767
-0.111986
-0.16985
-0.206223
-0.10467
-0.0786586
-0.0984
-0.0789476
-0.12026
-0.0408603
-0.0436782
-0.0702698
0.0138572
-0.02601
0.0303373
0.0371261
0.0897813
0.0361189
0.0225721
0.0150219
-0.105056
-0.0539518
-0.0320888
-0.059913
-0.113755
0.0542643
-0.0498744
-0.174466
-0.0904846
-0.0646207
-0.0865876
-0.170311
-0.145853
-0.134903
-0.0957391
-0.139246
-0.150677
-0.118239
-0.138823
-0.2496
-0.219201
-0.16248
-0.21869
-0.239367
-0.173713
-0.216806
-0.154675
-0.115735
-0.138953
-0.101354
-0.144128
-0.118257
-0.150458
-0.145892
-0.208281
-0.248281
-0.181055
-0.237738
-0.21026
-0.240883
-0.239403
-0.183437
-0.0811418
-0.050015
-0.115715
-0.0856171
-0.123318
-0.16653
-0.134592
-0.163821
-0.122849
-0.207922
-0.166518
-0.142221
-0.0134252
0.00985244
-0.0457105
-0.0171478
-0.0319804
-0.0731423
-0.117334
-0.0782337
-0.0746204
0.0378309
0.0542313
0.0126537
0.0353693
0.0434878
0.0180625
-0.0195964
-0.0434575
0.0485258
-0.0236635
0.130703
-0.00844498
-0.00113
-0.0378037
-0.0211626
-0.0179106
-0.0455707
0.00177969
-0.023892
0.00595827
-0.0135922
-0.0350595
0.102588
-0.0252285
0.0488099
-0.0725508
-0.047212
-0.0497182
-0.0787601
-0.0635392
-0.0678383
-0.0505648
0.00435127
0.0156594
-0.0480623
-0.0305443
-0.0273975
-0.0499047
-0.0657148
-0.0725554
-0.033042
0.0170955
0.0293676
-0.0273711
0.00939411
-0.00790634
0.162514
0.106247
0.0687751
0.0738355
0.109257
0.164018
-0.0419146
-0.0228729
-0.0394797
0.118653
-0.021792
-0.00282694
-0.205534
-0.202357
-0.25533
-0.255189
-0.188122
-0.190574
-0.095972
-0.0811501
-0.0991596
0.0308071
0.00546933
-0.0243036
0.000614748
-0.00803602
-0.0994418
-0.0881299
-0.123907
-0.0949634
-0.126168
-0.0956623
-0.0895028
-0.0301604
-0.00915492
-0.0389353
-0.0941017
-0.142011
-0.137338
-0.146211
-0.146344
-0.129049
-0.129802
-0.241026
-0.24078
-0.229412
-0.199859
-0.18861
-0.211151
-0.202952
-0.230345
-0.19626
-0.164578
-0.145167
-0.184514
-0.170096
-0.199628
-0.133978
-0.131717
-0.151427
-0.150572
-0.234596
-0.235923
-0.22517
-0.206075
-0.213569
-0.190937
-0.202756
-0.223644
-0.244755
-0.217148
-0.213176
-0.215349
-0.21743
-0.244875
-0.0701727
-0.0680609
-0.0705119
-0.0876849
-0.0500831
-0.0679954
-0.0635197
-0.103552
-0.0900711
-0.0989855
-0.142972
-0.14598
-0.189164
-0.173219
-0.18632
-0.154887
-0.168703
-0.18564
-0.0105965
0.00284883
-0.0329808
-0.0309496
-0.047623
-0.0132927
-0.0286764
-0.0289069
-0.028173
-0.01267
-0.049689
-0.0507602
-0.0276763
-0.0779986
-0.0537096
-0.0556395
-0.053775
0.0496547
0.0624311
0.0839909
0.031157
0.0455025
0.105842
0.0557862
0.0336092
0.233141
0.00903246
0.0224928
0.00328166
0.0182709
0.0302331
0.0127649
0.0566506
0.041441
0.0456032
0.147529
0.00732124
-0.0143028
-0.0154619
0.014044
0.0181051
0.0945305
0.0682563
0.0726429
0.0194848
0.0239195
0.0660867
0.0616184
0.100219
0.241726
0.169466
0.117653
0.149335
0.185395
0.247604
-0.125314
-0.103331
-0.112785
-0.212614
-0.196327
-0.190203
-0.146323
-0.124628
-0.122343
-0.124974
-0.126127
-0.146996
-0.253382
-0.253255
-0.178434
-0.198725
0.0418392
0.0309123
-0.00222756
0.00433029
0.0257601
0.055067
0.0469252
0.058511
0.00642322
-0.0181643
0.0962227
-0.161803
-0.183175
-0.194431
-0.126514
-0.102657
-0.0696115
-0.137771
-0.111683
-0.137465
-0.142258
-0.121261
-0.125427
-0.114087
-0.120827
-0.140739
-0.143039
-0.153761
-0.149289
-0.162064
-0.160961
-0.148776
-0.148177
-0.145787
-0.134907
-0.246992
-0.227598
-0.224355
-0.208915
-0.206957
-0.229483
-0.224655
-0.236133
-0.119845
-0.114578
-0.130236
-0.140351
-0.148468
-0.154836
-0.151714
-0.163746
-0.162493
-0.156574
-0.160805
-0.148258
-0.219139
-0.243855
-0.232978
-0.226344
-0.229598
-0.200279
-0.206875
-0.217598
-0.242991
-0.23336
-0.229655
-0.23162
-0.233257
-0.242862
-0.131959
-0.133825
-0.125876
-0.174974
-0.16527
-0.1575
-0.145908
-0.135996
-0.150148
-0.116734
-0.131097
-0.140105
-0.00280697
0.00258501
-0.0112537
0.0138934
0.00466578
0.000506095
0.0535564
0.0594401
0.0226174
0.0274461
0.0170814
0.0436926
0.0514563
0.0543552
0.0453821
0.0378635
0.179451
0.0620696
0.00440952
-0.00939209
-0.00823869
0.00525395
-0.011977
-0.0130422
0.0405037
0.0347364
0.140551
0.00772609
0.021422
-0.0607258
-0.0574253
0.0078828
0.0125939
0.00937772
0.0116599
0.00680742
0.0176506
0.0131662
0.010858
-0.0402502
-0.0374759
-0.0372558
-0.0403154
0.0221597
0.0237712
0.0191438
0.0255974
0.0313253
-0.0795738
-0.0611745
-0.0223686
-0.101948
-0.0722233
-0.0901212
-0.211154
-0.193554
-0.254362
-0.254814
-0.180869
-0.196455
-0.0941513
-0.0909114
-0.0998692
-0.0784607
-0.0876891
-0.0898497
-0.113483
-0.121876
-0.102652
-0.110558
0.0197283
0.026948
0.0384503
0.00909667
0.0224592
0.016625
0.0233651
0.00914836
-0.113577
-0.0954475
-0.107384
-0.074583
-0.0909195
-0.109787
-0.123786
-0.130312
-0.111045
-0.121261
-0.0674324
-0.0489993
-0.069107
-0.0695361
-0.0769601
-0.158646
-0.179887
-0.158373
-0.168775
-0.134779
-0.111152
-0.164886
-0.141226
-0.118213
-0.136184
-0.154145
-0.157815
-0.155103
-0.143347
-0.157432
-0.160296
-0.153307
-0.156192
-0.163772
-0.1644
-0.160541
-0.162408
-0.148771
-0.160148
-0.158289
-0.141837
-0.1462
-0.132325
-0.139729
-0.150233
-0.152225
-0.147129
-0.149782
-0.134436
-0.145081
-0.142185
-0.246289
-0.236708
-0.217399
-0.2106
-0.226341
-0.235028
-0.224105
-0.218286
-0.140661
-0.146417
-0.138282
-0.150566
-0.144476
-0.158887
-0.152809
-0.133935
-0.125844
-0.142313
-0.136022
-0.163836
-0.163743
-0.151194
-0.166527
-0.167269
-0.164861
-0.166668
-0.164317
-0.159851
-0.16668
-0.164989
-0.149531
-0.161611
-0.16344
-0.22665
-0.241095
-0.219573
-0.224052
-0.230632
-0.219026
-0.210202
-0.217109
-0.235287
-0.233046
-0.243962
-0.243778
-0.234792
-0.234387
-0.077066
-0.0774179
-0.0756335
-0.0687802
-0.0853229
-0.0780517
-0.0807955
-0.0571967
-0.0564966
-0.0507389
-0.0663578
-0.0589938
-0.0599029
-0.113871
-0.106686
-0.123183
-0.116275
-0.0970132
-0.0947206
-0.0877046
-0.104277
-0.0969963
-0.0993974
-0.145061
-0.136728
-0.135052
-0.141734
-0.149578
-0.124845
-0.138351
-0.15441
-0.154583
-0.162443
-0.149657
-0.00460224
-0.0022788
-0.00801886
0.00512069
-0.000458162
-0.0026864
0.00623223
-0.0211833
-0.010542
-0.0189219
-0.0661391
-0.0662844
-0.0754419
-0.0541362
-0.0634083
-0.0629559
-0.0651492
-0.0682739
0.0618877
0.0751405
0.033602
0.0410456
0.0752283
0.0580091
0.0118427
-0.0102792
0.0114816
-0.00151185
0.016173
0.0338559
0.321568
0.241105
0.203238
0.2508
0.27459
0.331166
0.0450803
0.0902081
0.06292
-0.0878146
-0.100955
-0.122276
-0.215352
-0.225431
-0.227139
-0.252209
-0.252384
-0.099947
-0.0907685
-0.0997743
-0.215837
-0.21319
-0.203887
-0.12319
-0.114524
-0.111573
-0.0874328
-0.0663393
-0.0839619
-0.126173
-0.118801
-0.108483
-0.104876
-0.129043
-0.112362
-0.121644
-0.135031
-0.128232
-0.24822
-0.229582
-0.231913
-0.221232
-0.239681
-0.238406
-0.238065
-0.203072
-0.198768
-0.210841
-0.126776
-0.111319
-0.103683
-0.123817
-0.130535
-0.124251
-0.21046
-0.219928
-0.217619
-0.246763
-0.236216
-0.238103
-0.239413
-0.24168
-0.241878
-0.240876
-0.240792
-0.241991
-0.241089
-0.11219
-0.115022
-0.121556
-0.200787
-0.194277
-0.198208
-0.10066
-0.0964685
-0.111482
0.0571521
0.0582434
0.0428488
0.0312228
0.0255173
0.0527817
0.0554165
0.0320296
0.0488382
0.0322311
-0.0123284
-0.0065212
-0.0653795
-0.0499297
-0.0523311
-0.0530857
-0.0455378
-0.045082
-0.0475035
-0.0305713
-0.0328654
-0.0328455
-0.0513374
-0.0482236
-0.0467164
0.0311188
0.0254763
0.0237442
0.103756
0.160866
0.135651
-0.0555512
-0.0570421
-0.0472997
-0.0319224
-0.115623
-0.106769
-0.00962232
0.02914
0.0388078
-0.209807
-0.218634
-0.208267
-0.199357
-0.200943
-0.203826
-0.256759
-0.255385
-0.18728
-0.18426
-0.1857
-0.192454
-0.199301
-0.193048
-0.0992076
-0.101744
-0.0785143
-0.0812971
-0.0839879
-0.104277
-0.107328
-0.108542
-0.111304
-0.101767
-0.103397
-0.119658
-0.115357
-0.118817
-0.0869505
-0.0925605
-0.0997351
-0.137468
-0.13969
-0.121693
-0.12666
-0.129454
-0.0194097
-0.0431252
-0.0593028
-0.0500746
-0.0540213
-0.0515052
-0.0872618
-0.133435
-0.125199
-0.14115
-0.136946
-0.123051
-0.141898
-0.143032
-0.242146
-0.240386
-0.182644
-0.176535
-0.187252
-0.208657
-0.194002
-0.188601
-0.126632
-0.132588
-0.138647
-0.232275
-0.237185
-0.245181
-0.244986
-0.244704
-0.245335
-0.245357
-0.245207
-0.0725283
-0.0730592
-0.0720516
-0.0695287
-0.0874685
-0.0849686
-0.0855203
-0.105775
-0.112698
-0.108118
-0.112057
-0.109683
-0.125392
-0.123169
-0.0924134
-0.0924302
-0.0899534
-0.107343
-0.104961
-0.183996
-0.189299
-0.198126
-0.177159
-0.173503
-0.178736
-0.0377802
-0.0369846
-0.0325412
-0.0464646
-0.0416588
-0.0402315
-0.0411845
-0.0422907
-0.0509147
-0.0302404
-0.0367938
-0.0379003
-0.0739332
-0.0730618
-0.0756715
-0.0584269
-0.0553166
-0.0762739
0.0684243
0.069826
0.0804482
0.0364414
0.0374878
0.0404151
0.0332329
0.0500032
0.0427978
0.0418191
0.0936542
0.0750056
0.0420686
0.0520371
0.0440959
0.109009
0.198659
0.0641558
0.0154102
0.0167014
0.0789321
0.0940414
0.115113
0.0208113
0.0213572
0.0204661
0.0244141
0.022852
0.0223175
0.112373
0.0906229
0.0785586
0.175843
0.247997
0.223415
-0.223858
-0.224358
-0.213893
-0.200723
-0.192976
-0.186791
-0.205436
-0.201424
-0.253344
-0.252505
-0.182017
-0.183872
-0.17512
-0.17889
-0.201233
-0.210042
-0.207184
0.0378227
0.0403492
0.0447135
0.0312334
0.0362755
0.0340823
-0.186541
-0.176344
-0.172953
-0.18362
-0.179966
-0.19036
-0.247227
-0.222946
-0.232583
-0.236491
-0.236962
-0.237263
-0.236055
-0.231738
-0.223518
-0.212745
-0.246226
-0.235132
-0.236717
-0.234967
-0.243395
-0.242583
-0.24221
-0.242229
-0.242994
-0.243643
-0.169824
-0.164242
-0.168994
-0.159114
-0.161471
-0.166911
0.0590165
0.0598944
0.045489
0.0486648
0.046345
0.0477303
0.044718
0.0574162
0.0545569
0.0512697
0.0540193
0.0566361
0.0481935
0.0509951
0.0484647
0.0306568
0.0158643
0.0140371
0.0438885
0.151852
0.131855
0.166851
0.0719016
0.0903302
0.113311
-0.00430996
-0.00386636
-0.00768758
0.0038613
7.91183e-05
-0.000135537
-0.0193848
-0.0187534
-0.0235702
-0.0114501
-0.015106
-0.0156434
0.0510889
0.0596851
0.0310094
-0.0241134
-0.0389408
0.00191338
-0.00585604
-0.0633002
-0.0554858
-0.054677
-0.0568774
0.00945691
0.0110468
0.0060453
0.00772254
0.00848609
-0.0402898
-0.042692
-0.0429459
-0.0317999
-0.0295521
-0.0337742
-0.0349315
-0.0347163
-0.0377398
-0.0369815
-0.0332098
-0.0341735
-0.0341025
-0.0380852
-0.0272943
-0.030672
-0.0435772
-0.0450643
-0.0415455
0.0273743
0.0277319
0.0260332
0.0313614
0.0295628
0.0292908
-0.0738208
-0.0611612
-0.0669518
-0.102687
-0.0981758
-0.0849452
-0.218935
-0.209456
-0.220568
-0.222746
-0.209135
-0.208013
-0.212824
-0.210712
-0.255838
-0.255796
-0.190735
-0.194189
-0.186013
-0.188341
-0.18323
-0.181613
-0.179148
-0.204635
-0.201944
-0.194439
-0.200874
-0.0914775
-0.0962629
-0.0867208
-0.0841758
-0.087252
-0.1164
-0.120674
-0.117318
-0.125676
-0.123619
-0.119241
-0.105374
-0.104255
-0.101317
-0.113759
-0.10849
-0.107967
-0.111835
0.0133509
0.0117024
0.00754446
0.0182837
0.0136009
-0.10888
-0.108563
-0.112154
-0.116682
-0.106097
-0.0988122
-0.104063
-0.134119
-0.135759
-0.135968
-0.133959
-0.128165
-0.12836
-0.132058
-0.072382
-0.0648273
-0.0611461
-0.0511596
-0.0849174
-0.0872061
-0.0795876
-0.163549
-0.159968
-0.154477
-0.170015
-0.165636
-0.171589
-0.180899
-0.172725
-0.127713
-0.136325
-0.144705
-0.117075
-0.127686
-0.120137
-0.15955
-0.150106
-0.155923
-0.150115
-0.158515
-0.159921
-0.154174
-0.156618
-0.156145
-0.157563
-0.155703
-0.164012
-0.164084
-0.16103
-0.161664
-0.143962
-0.147851
-0.145408
-0.149236
-0.148731
-0.145276
-0.134394
-0.139329
-0.137832
-0.143976
-0.141016
-0.136713
-0.144247
-0.146144
-0.150801
-0.153155
-0.152792
-0.154457
-0.153787
-0.151496
-0.147975
-0.150634
-0.150015
-0.152761
-0.152468
-0.14912
-0.243624
-0.238382
-0.14858
-0.149902
-0.151297
-0.14597
-0.148199
-0.146612
-0.157239
-0.153031
-0.154714
-0.154671
-0.131517
-0.133609
-0.135799
-0.128505
-0.131122
-0.128756
-0.140201
-0.141601
-0.143732
-0.137526
-0.139412
-0.138076
-0.166515
-0.166695
-0.165386
-0.166609
-0.162865
-0.16145
-0.165953
-0.165111
-0.229402
-0.238952
-0.244669
-0.244771
-0.244121
-0.244398
-0.24497
-0.244783
-0.0748216
-0.0766783
-0.0744954
-0.075482
-0.0834167
-0.0823354
-0.0794155
-0.117007
-0.114495
-0.111481
-0.113829
-0.116294
-0.121074
-0.123301
-0.1253
-0.1187
-0.120941
-0.118649
-0.121093
-0.119398
-0.0974172
-0.0949713
-0.0947511
-0.102822
-0.099414
-0.142194
-0.143352
-0.145899
-0.137848
-0.140685
-0.139569
-0.144721
-0.146788
-0.129258
-0.133341
-0.128681
-0.134765
-0.158997
-0.153576
-0.156412
-0.148356
-0.150738
-0.155368
-0.00415967
-0.00515373
-0.00315069
-0.00929045
-0.00716847
-0.00604764
0.00358727
0.00273013
0.00437899
-0.00114856
0.000887247
0.00147934
0.00438968
-0.0226758
-0.0204349
-0.0273111
-0.0249289
-0.012542
-0.0136379
-0.0115965
-0.0180639
-0.0152747
-0.0143639
-0.0670585
-0.0701565
-0.0695545
-0.0619233
-0.0718105
0.0615699
0.0641831
0.0359638
0.0362431
0.0334453
0.0416984
0.038704
0.0383508
0.0392087
0.0424332
0.0664793
0.0603952
0.0294913
0.0393126
0.0317356
0.0432265
0.0489856
0.0365748
0.0484299
0.0392268
0.0321333
0.034084
0.021556
0.0209867
0.0161217
0.0227111
0.0240188
0.0274115
0.0474702
0.0416957
0.057862
0.0913125
0.0545744
0.0913316
0.0529916
0.0422633
0.0404592
0.0153373
0.0197062
0.00961109
0.00156345
0.00621684
0.00571125
0.00674007
0.0202152
0.00924893
0.0253826
0.0472436
0.0554163
0.0885818
0.0779363
0.142765
0.104565
0.0845675
0.0398049
0.0227623
0.0282341
-0.0132821
-0.0139311
-0.00482225
-0.010962
-0.0214168
0.000274893
-0.00753634
-0.00879433
0.00258845
0.0074166
0.00967235
0.024697
-0.0445244
-0.0409584
-0.0143765
-0.0533242
-0.0381548
-0.0254483
-0.0251568
-0.0416035
-0.0278407
-0.0401854
-0.04953
-0.0413592
-0.0796209
-0.089765
-0.0818154
-0.141684
-0.109879
-0.0865918
-0.0849948
-0.0598216
-0.0502035
-0.0289252
-0.0426425
-0.0435864
-0.0526423
-0.0631108
-0.0626266
-0.105783
-0.117538
-0.117149
-0.170914
-0.13508
-0.130286
-0.0905375
-0.0674767
-0.0657598
-0.0220703
-0.0281324
-0.0399982
-0.0424175
-0.0486972
-0.0542244
-0.0805842
-0.0872485
-0.093256
-0.134621
-0.112561
-0.123965
-0.0720272
-0.0592502
-0.0650911
-0.00995968
-0.00860457
-0.0232734
-0.0330492
-0.0339861
-0.0409387
-0.0725634
-0.065771
-0.0845956
-0.0427518
-0.0414171
-0.0509757
0.00120969
0.00671544
-0.00413696
-0.0119439
-0.0217969
-0.0332539
-0.0165387
-0.0227249
-0.0316787
0.00761776
0.0114819
0.00900018
0.0157995
0.0264082
0.0259124
0.033479
0.0433891
0.0486328
0.062696
0.0600876
0.0651073
0.0161726
0.0012412
-0.00850849
-0.00509332
-0.0095147
-0.0152984
0.00958832
0.0130093
0.0127093
0.0155381
0.0175084
0.0248223
0.021147
0.023393
0.0365288
0.0223525
0.0160394
0.0210574
0.0102922
0.00533719
0.00250154
0.0013685
-0.00304492
-0.00563771
0.0127618
0.0141464
0.0168825
0.0168001
0.0163846
0.0208112
0.0149272
0.0130226
0.0146773
0.00872842
0.00584674
0.00579537
-0.0725835
-0.0618933
-0.0543161
-0.095393
-0.107005
-0.130852
0.0127136
-0.00606314
-0.0119649
-0.115849
-0.113647
-0.102231
-0.174846
-0.193831
-0.201216
-0.137723
-0.156594
-0.135364
-0.0989206
-0.104074
-0.0946348
-0.173348
-0.192061
-0.183343
-0.202666
-0.205645
-0.184225
-0.0479692
-0.0545336
-0.0512876
-0.118711
-0.128693
-0.114979
-0.179689
-0.167856
-0.156421
-0.0479422
-0.04844
-0.0391693
-0.106254
-0.0963807
-0.0925684
0.0468764
0.035482
0.0214199
0.107846
0.0951643
0.0871769
0.0887816
0.0863203
0.106113
-0.0296911
-0.0203715
-0.0228281
0.0609235
0.0893332
0.0522188
0.37553
0.322708
0.327204
0.0857718
0.103031
0.14155
0.378171
0.39283
0.030576
0.0424701
0.029946
0.0759633
0.0884413
0.0491123
-0.0315595
-0.0204815
-0.0166296
-0.0271531
-0.0235062
-0.0375549
0.00615111
-0.00846737
-0.0164825
-0.0617013
-0.0670179
-0.0959762
0.069958
0.0476719
0.0392392
-0.0789888
-0.0502056
-0.0595817
-0.0473971
-0.0503372
-0.0664432
-0.0187976
-0.034037
-0.0344824
-0.0602205
-0.0558325
-0.0455466
-0.0859222
-0.0672564
-0.072375
-0.0497655
-0.0597204
-0.0817511
-0.102146
-0.0964867
-0.0858824
-0.130434
-0.123137
-0.125636
-0.102111
-0.106529
-0.113709
-0.184755
-0.188452
-0.182411
-0.129087
-0.114397
-0.14901
-0.0909947
-0.104677
-0.112633
-0.0812598
-0.0941622
-0.0824195
-0.0586765
-0.0617212
-0.0519271
-0.0931518
-0.0735783
-0.06962
-0.0750953
-0.0754698
-0.0951315
-0.11512
-0.116858
-0.105126
-0.14361
-0.135558
-0.133937
-0.13854
-0.138908
-0.147084
-0.128403
-0.133067
-0.169463
-0.10434
-0.120039
-0.117255
-0.117839
-0.120317
-0.10438
-0.0355018
-0.0423601
-0.0373938
-0.0598716
-0.0489523
-0.040443
-0.0639235
-0.0569019
-0.0652602
-0.0744335
-0.0809258
-0.075112
-0.0955077
-0.0868262
-0.0767417
-0.107868
-0.104296
-0.108266
-0.173032
-0.172281
-0.169602
-0.091063
-0.106729
-0.127483
-0.0862851
-0.09682
-0.0872857
-0.11219
-0.10526
-0.0930105
-0.0847556
-0.0872489
-0.0784846
-0.12111
-0.118337
-0.117464
-0.0460705
-0.0577455
-0.0645947
-0.0525205
-0.0558018
-0.0449574
-0.0770066
-0.0663048
-0.0614415
0.00878072
0.0120481
0.0175769
-0.0248913
-0.0186182
-0.0199944
0.035596
0.0409591
0.0323283
0.051338
0.0436968
0.0357431
0.0701453
0.0609895
0.064675
0.0324082
0.0387926
0.0501113
0.0224921
0.03381
0.0288758
0.0369202
0.0351701
0.0221407
-0.0997984
-0.0918941
-0.0972939
-0.0382071
-0.0606252
-0.0802685
-0.043758
-0.0497601
-0.0361566
-0.0705451
-0.0856518
-0.0706155
0.0387299
0.0420233
0.0613662
-0.0573454
-0.0445826
-0.0379532
-0.170615
-0.177114
-0.181124
-0.0948764
-0.10354
-0.0991413
-0.0695291
-0.0881524
-0.0809619
-0.101296
-0.0941785
-0.0807492
-0.154075
-0.146582
-0.156109
-0.144856
-0.137139
-0.138011
-0.127851
-0.13
-0.137124
-0.0994601
-0.110658
-0.106813
-0.140986
-0.144083
-0.142783
-0.154636
-0.154136
-0.149722
-0.14179
-0.140661
-0.137096
-0.179973
-0.191039
-0.169212
-0.220882
-0.214457
-0.211031
-0.1844
-0.170043
-0.162634
-0.209716
-0.206981
-0.21471
-0.145658
-0.161829
-0.176124
-0.119505
-0.115055
-0.111586
-0.131918
-0.129732
-0.136221
-0.098369
-0.108603
-0.112311
-0.143296
-0.146252
-0.147772
-0.120232
-0.122133
-0.120151
-0.151332
-0.155373
-0.15494
-0.149322
-0.150532
-0.146452
-0.201369
-0.194965
-0.177634
-0.205825
-0.20888
-0.212919
-0.184547
-0.205446
-0.203208
-0.0766776
-0.0774133
-0.0843663
-0.050772
-0.0552279
-0.0543728
-0.112595
-0.11755
-0.118333
-0.0867477
-0.0937024
-0.0900166
-0.126095
-0.126709
-0.123922
-0.167386
-0.165151
-0.16331
-0.146303
-0.133138
-0.126755
-0.157548
-0.152895
-0.157772
-0.120826
-0.126212
-0.128531
-0.205717
-0.200596
-0.202854
-0.162864
-0.168161
-0.174453
-0.149524
-0.163527
-0.150824
-0.00978259
-0.00885154
-0.0125856
0.0111321
0.00803976
0.0068229
-0.0414032
-0.0416749
-0.0462623
-0.0164202
-0.0203679
-0.0209723
-0.0379447
-0.0373618
-0.0311404
-0.0754814
-0.0660451
-0.067257
-0.111815
-0.109999
-0.115426
-0.0760906
-0.091149
-0.0952074
-0.0835705
-0.0866754
-0.0770694
0.0465636
0.0579298
0.0465824
0.0669344
0.0617717
0.0479653
0.0161713
0.017644
0.0142763
0.0349269
0.0534259
0.0584053
-0.0213069
-0.00575132
-0.0062128
-0.00633481
-0.00536682
-0.0306189
0.0321644
0.0138488
0.00749012
0.147823