/*--------------------------------*- C++ -*----------------------------------*\
| =========                 |                                                 |
| \\      /  F ield         | OpenFOAM: The Open Source CFD Toolbox           |
|  \\    /   O peration     | Version:  5.x                                   |
|   \\  /    A nd           | Web:      www.OpenFOAM.org                      |
|    \\/     M anipulation  |                                                 |
\*---------------------------------------------------------------------------*/
FoamFile
{
    version     2.0;
    format      ascii;
    class       surfaceScalarField;
    location    "100";
    object      phi;
}
// * * * * * * * * * * * * * * * * * * * * * * * * * * * * * * * * * * * * * //

dimensions      [0 3 -1 0 0 0 0];

internalField   nonuniform List<scalar> 
13181
(
8.30385e-06
0.00915689
7.81441e-06
0.00916749
6.48035e-06
0.00916783
5.05078e-06
0.00916793
2.85468e-06
0.0091692
-4.85732e-06
0.00917421
-9.74774e-06
0.00917154
-1.06497e-05
0.0091676
-9.54194e-06
0.00916554
-4.68183e-06
0.00916179
4.51045e-06
0.00915751
1.63614e-05
0.0091548
2.75545e-05
0.00915546
3.47049e-05
0.00915955
3.65345e-05
0.00916482
3.38969e-05
0.00916929
2.83918e-05
0.00917221
2.13849e-05
0.00917366
1.00244e-05
0.00917786
1.60848e-07
0.00917686
-1.2536e-05
0.0091792
-1.78618e-05
0.00917183
-1.90751e-05
0.00916821
0.00914562
1.1596e-05
0.00914196
3.40878e-05
0.009145
3.40362e-05
0.00916789
3.31046e-05
0.00916886
2.6642e-05
0.00917566
6.99267e-06
0.00919386
-1.85779e-05
0.00919711
-2.69692e-05
0.00917599
-2.62044e-05
0.00916478
-1.67422e-05
0.00457606
0.00457627
1.85305e-06
0.00456941
0.0045695
2.67779e-05
0.00456474
0.00456513
5.0385e-05
0.00456546
0.00456639
6.52993e-05
0.00457173
0.0045729
6.8836e-05
0.00458006
0.00458122
5.56828e-05
0.00918244
3.44191e-05
0.00919347
1.28368e-05
0.00919524
-1.0131e-05
0.00920083
-1.83947e-05
0.00918513
-1.93213e-05
0.00918012
-2.07676e-05
0.00917327
8.06983e-07
0.00914664
0.0091419
-5.02723e-06
0.00914156
-2.404e-06
0.00914237
1.69668e-05
0.00914852
1.44903e-05
0.00917134
1.49693e-05
0.00917518
1.56404e-05
0.00919319
-1.78588e-05
0.00923061
-4.01829e-05
0.00919832
-2.1125e-05
0.0091719
-2.6186e-05
0.00457284
-1.79083e-05
0.00456408
-8.46314e-06
1.37908e-05
1.30111e-06
0.00455639
7.0455e-06
-1.62902e-05
0.00455655
2.51958e-05
-3.30165e-05
0.00456567
3.90849e-05
-4.25741e-05
0.00457939
4.32449e-05
4.59329e-05
0.00460857
-3.41875e-05
-4.52458e-05
0.00460738
8.71119e-06
0.00923069
-3.76926e-06
0.00920772
-2.60103e-06
0.00919966
-4.45409e-06
0.00918698
-6.52706e-06
0.0091822
1.02244e-05
0.00915652
1.03953e-05
0.00914647
0.00914496
-1.13265e-05
0.00914539
-1.48256e-05
0.00914587
-1.58813e-05
0.00914957
-2.80687e-06
0.00915826
-8.09146e-06
0.00918046
-8.62805e-06
0.00919373
-1.38755e-05
0.00923586
-3.51372e-05
0.00921958
-3.77353e-05
0.00461644
-4.11112e-05
0.00459917
0.00456792
-3.41797e-05
-0.00457148
0.00454994
-2.18147e-05
-0.00455758
2.94546e-05
1.01873e-05
0.00452979
5.05782e-06
-0.00454504
-2.25681e-05
0.00452698
3.97145e-05
-0.00454412
-5.29165e-05
0.00455893
5.29474e-05
-0.00455896
-3.70971e-05
0.00460798
1.6981e-05
-0.00458787
-3.86511e-06
0.00461095
1.48181e-06
3.89341e-05
0.00461119
-1.66812e-05
-4.78434e-06
0.00460204
3.23285e-05
0.00921433
2.35893e-05
0.0092084
1.21393e-05
0.00919843
2.27615e-05
0.00917157
2.10617e-05
0.00915822
1.47745e-05
0.00915275
0.00914985
-1.35739e-05
0.00914965
-1.8879e-05
0.00915118
-2.50278e-05
0.00915572
-2.77374e-05
0.00916097
-2.21202e-05
0.00917485
-2.65638e-05
0.00919817
5.61688e-06
0.00920368
1.67904e-05
0.00459197
4.37475e-06
0.00461206
0.0046441
-1.08666e-05
0.00457635
-3.80422e-05
-0.00456916
3.08454e-05
0.00454832
-4.6517e-05
-0.00454362
4.18207e-05
3.07613e-05
-4.00457e-06
-0.00450959
0.00224112
0.00224172
-2.96215e-05
6.33616e-05
-0.00450352
0.0022349
0.00223488
-7.58779e-05
4.21203e-05
-0.00457505
0.0022983
0.00231051
-5.45561e-05
0.0046054
5.73952e-05
-0.00460823
-5.0162e-05
0.00461715
5.10995e-05
-0.00461809
-4.95618e-05
0.00461202
4.8727e-05
6.07283e-05
0.00924249
-4.76764e-05
-4.12149e-05
3.99655e-05
0.00922916
4.07558e-05
0.00919764
3.41499e-05
0.00917818
2.46854e-05
0.00916768
1.75617e-05
0.00915988
0.00915548
-1.50267e-05
0.00915396
-2.06786e-05
0.00915683
-2.78543e-05
0.0091629
-3.76356e-05
0.00917075
-4.37839e-05
0.009181
-4.77344e-05
0.00920212
-2.97473e-05
0.00922411
-3.84253e-05
0.00460131
-3.90876e-05
0.0046071
-2.83214e-06
-0.0046386
3.43301e-05
0.00458438
1.47907e-05
-0.00458632
-1.2853e-05
-0.00228376
2.60963e-06
0.00228922
-8.06748e-06
-0.00222856
1.84947e-05
0.00223065
-2.05834e-05
-0.0022109
-1.71407e-05
0.00219731
3.07221e-05
-0.00228631
-2.72258e-05
0.00225704
5.64921e-05
-4.33443e-05
0.000110281
-0.00461057
-4.76171e-05
0.00229142
0.00229983
-0.000107441
0.00463159
9.38892e-05
-0.00461803
-7.83128e-05
-0.00462216
0.00463555
6.49251e-05
7.8016e-05
0.00928009
-6.04356e-05
-5.51796e-05
6.29665e-05
0.00924421
5e-05
0.00921061
3.63336e-05
0.00919185
2.65743e-05
0.00917744
1.88998e-05
0.00916755
0.00916123
-1.60064e-05
0.00915839
-2.19307e-05
0.00916276
-2.88549e-05
0.00916982
-3.80718e-05
0.00917997
-5.10674e-05
0.00919399
-6.35206e-05
0.00921457
-4.11721e-05
0.00924304
-4.12774e-05
-0.00461063
0.00462072
-5.12599e-05
-0.00460926
0.00462482
-7.95326e-05
6.39679e-05
-0.00459592
0.00462132
9.96137e-05
-5.91697e-05
-6.58399e-05
-0.0022782
6.11532e-05
0.00227972
-6.26693e-05
-0.00111225
2.32258e-05
0.0011085
-1.94731e-05
-7.69013e-06
-0.00105319
0.00104726
1.36219e-05
-4.67615e-05
-0.00227157
9.38227e-05
-3.33102e-05
0.00111596
0.00114185
-0.000109099
-0.0023046
0.00231616
9.7541e-05
-0.000150686
-0.00465498
0.00468398
0.000121685
-9.78334e-05
-0.00465122
0.00467072
7.83293e-05
9.09702e-05
0.00931406
-6.25543e-05
-6.23906e-05
6.89722e-05
0.00926621
4.86407e-05
0.00923094
3.46511e-05
0.00920584
2.48049e-05
0.00918729
1.7511e-05
0.00917485
0.00916538
-1.54471e-05
0.00916207
-2.10522e-05
0.00916836
-2.73824e-05
0.00917615
-3.66609e-05
0.00918925
-4.87641e-05
0.00920609
-6.59096e-05
0.00923172
-4.01289e-05
0.00926238
-4.51228e-05
-0.00463143
0.00464262
-5.13152e-05
-0.00464472
0.00466411
-8.5427e-05
6.60411e-05
-0.00465627
0.0046945
0.000112264
-7.38211e-05
-7.66672e-05
-0.00231698
0.000102698
0.00233779
-0.000123513
-0.00113055
0.000108417
0.00114472
-0.000122589
-0.000146902
-0.00115011
0.00116353
0.000133474
-0.000155464
-0.00236098
0.00238277
0.000133683
-0.000179561
-0.00472256
0.00476117
0.000140948
-0.000111865
-0.00469432
0.0047157
9.04871e-05
8.96182e-05
0.00936448
-6.72723e-05
-7.27588e-05
5.66852e-05
0.00929914
3.99399e-05
0.00924768
2.83049e-05
0.00921747
2.07581e-05
0.00919484
1.58201e-05
0.00917978
0.00916881
-1.44471e-05
0.00916521
-1.82222e-05
0.00917214
-2.32081e-05
0.00918114
-2.92398e-05
0.00919528
-3.72511e-05
0.0092141
-4.80672e-05
0.00924253
-3.52977e-05
0.00927928
-2.96679e-05
-0.00464583
0.00465491
-4.43795e-05
-0.00468681
0.00470184
-7.49535e-05
5.99211e-05
-0.00473148
0.00475821
9.42084e-05
-6.35761e-05
-5.73608e-05
-0.00239713
8.83581e-05
0.00241251
-0.000103735
-0.00123526
9.08124e-05
0.00124395
-9.9505e-05
-0.000129576
-0.00126318
0.00127389
0.000118863
-0.000127046
-0.0024452
0.00246397
0.000108277
-0.000135299
-0.00479825
0.00482751
0.000106033
-8.33892e-05
-0.00473532
0.00475087
6.78462e-05
7.16081e-05
0.00938983
-4.31274e-05
-5.38307e-05
4.24254e-05
0.00932833
2.55201e-05
0.00926459
1.87725e-05
0.00922422
1.42372e-05
0.00919937
1.09749e-05
0.00918305
0.00916954
-1.22717e-05
0.0091672
-1.54516e-05
0.00917532
-1.81969e-05
0.00918388
-2.18081e-05
0.00919889
-2.45778e-05
0.00921687
-2.76481e-05
0.0092456
-1.85188e-05
0.00928212
-1.19679e-05
-0.00466307
0.00467121
-2.66621e-05
-0.00471132
0.00471496
-3.38928e-05
3.02485e-05
-0.00477368
0.00477666
3.70701e-05
-2.4059e-05
-1.5991e-05
-0.00244052
3.06997e-05
0.00244322
-3.34058e-05
-0.00127442
2.37299e-05
0.00127481
-2.41177e-05
-3.7143e-05
-0.00131536
0.00131664
3.5859e-05
-4.47334e-05
-0.00249973
0.00250455
3.99047e-05
-4.83388e-05
-0.00484627
0.00485277
4.18375e-05
-3.66462e-05
-0.00476187
0.00476726
3.12554e-05
3.685e-05
0.00939315
-1.47658e-05
-2.54072e-05
3.42127e-05
0.00933096
1.40591e-05
0.00928474
6.31922e-06
0.00923196
6.51105e-06
0.00919918
5.91449e-06
0.00918364
0.00916836
-1.03015e-05
0.00916862
-1.19076e-05
0.00917692
-1.29943e-05
0.00918497
-1.28284e-05
0.00919873
-1.26965e-05
0.00921674
-7.9923e-06
0.0092409
-2.48484e-06
0.00927559
1.01915e-06
-0.00467418
0.00467516
-3.46034e-06
-0.00471299
0.0047059
7.86424e-06
-7.73431e-07
-0.00476804
0.00475074
-1.93906e-05
1.49661e-05
2.17238e-05
-0.00243334
-2.50704e-05
0.00242529
3.31213e-05
-0.00125159
-3.63888e-05
0.00124571
4.22697e-05
5.39728e-05
-0.0012929
0.00128578
-4.6852e-05
4.15989e-05
-0.0024962
0.00248759
-3.29901e-05
4.021e-05
-0.00484741
0.00483244
-2.52372e-05
1.31107e-05
-0.0047659
0.00475931
-6.52325e-06
9.97392e-07
0.00937761
1.12718e-05
3.27315e-06
1.13591e-05
0.0093206
1.62272e-05
0.00927987
-6.21407e-06
0.0092544
-2.83413e-06
0.0091958
2.55238e-07
0.00918055
0.00916534
-7.91629e-06
0.00916919
-7.74146e-06
0.00917675
-7.16278e-06
0.00918439
-5.1132e-06
0.00919668
-9.44844e-08
0.00921172
9.77021e-06
0.00923104
8.80856e-06
0.00926471
1.18481e-05
-0.00467019
0.00466477
1.42275e-05
-0.00469558
0.00468353
3.48699e-05
-2.28178e-05
-0.00472751
0.00470252
-5.23187e-05
3.77618e-05
3.95538e-05
-0.0023934
-5.52167e-05
0.00238161
6.70043e-05
-0.00119679
-6.25098e-05
0.00118926
7.00445e-05
0.000100656
-0.00122464
0.00121523
-9.12414e-05
9.38825e-05
-0.00244805
0.0024327
-7.85234e-05
9.92202e-05
-0.00480799
0.00477774
-6.89731e-05
4.91709e-05
-0.00474799
0.00473406
-3.52344e-05
-2.41811e-05
0.00934748
2.92028e-05
2.5103e-05
-6.56573e-06
0.00930298
4.5416e-06
0.00926877
8.65745e-06
0.00925028
-1.118e-05
0.00921564
-5.84612e-06
0.00917522
0.00916035
-5.92152e-06
0.00916923
-4.93162e-06
0.00917576
-3.40797e-06
0.00918287
3.20824e-07
0.00919295
6.20328e-06
0.00920584
1.71552e-05
0.00922008
1.62702e-05
0.00924866
1.69291e-05
-0.00465793
0.00465142
2.27811e-05
-0.00467094
0.00465939
4.23523e-05
-3.08072e-05
-0.0046781
0.00465752
-5.79244e-05
4.02589e-05
3.82505e-05
-0.00234798
-5.5969e-05
0.00233852
6.54288e-05
-0.00113828
-5.73996e-05
0.00113204
6.36426e-05
0.000102233
-0.00114261
0.00113213
-9.1754e-05
9.99109e-05
-0.00238561
0.0023714
-8.57051e-05
0.000109983
-0.00474385
0.00471556
-8.16956e-05
6.12818e-05
-0.0047193
0.00470484
-4.68207e-05
-3.52576e-05
0.00931535
3.3806e-05
3.35848e-05
-1.52176e-05
0.00928294
-1.88583e-06
0.00925543
-1.29662e-06
0.00924969
-1.46865e-05
0.00922903
-1.13518e-05
0.00917188
0.00915394
-3.97404e-06
0.00916856
-3.15794e-06
0.00917494
-8.94489e-07
0.0091806
2.39113e-06
0.00918966
7.89363e-06
0.00920034
1.61684e-05
0.00921181
2.71213e-05
0.00923771
2.69997e-05
0.00927874
1.76686e-05
-0.00464611
-0.00465017
-0.0046501
0.00464474
3.23657e-05
-0.00464263
0.00465211
2.31465e-05
-3.26231e-05
-0.0023259
1.98876e-06
0.00235168
-2.77673e-05
-0.00112219
3.68895e-05
0.00110167
-1.63754e-05
-0.000398064
1.07567e-05
0.000405242
-1.79341e-05
4.12673e-05
-0.0010831
0.00217916
-7.77054e-05
3.58854e-05
-0.00109552
-0.00233986
6.99381e-05
0.00233474
-6.48152e-05
8.22052e-05
-0.00469379
0.00467735
-6.57671e-05
5.21935e-05
-0.00469405
0.00469071
-4.88549e-05
-3.37358e-05
0.00929115
2.692e-05
3.10124e-05
-1.62132e-05
0.00926542
-3.98743e-06
0.00924321
-1.73579e-05
0.00926306
8.17304e-06
0.00920349
-1.34131e-05
0.00919347
0.00914916
-3.60425e-06
0.00916846
-2.8606e-06
0.0091742
-1.39613e-06
0.00917914
7.10496e-07
0.00918756
4.82758e-06
0.00919622
8.3598e-06
0.00920828
1.19066e-07
0.00924595
-1.54209e-05
0.00933186
-3.75827e-05
-0.00465629
0.00467626
-3.53941e-05
-0.00466498
0.00464732
-1.78321e-05
3.54848e-05
-0.00231699
-8.64608e-06
0.00231273
1.29139e-05
-0.00217599
-8.41437e-06
0.0021784
6.00391e-06
-0.000983186
3.76739e-05
0.0020094
-5.73959e-05
-0.0010065
-0.00219088
7.04401e-05
0.00218202
-6.15837e-05
-0.0046401
6.65083e-05
0.00464846
-0.000118158
4.32889e-05
0.000109597
-0.00466854
0.00465706
-9.81183e-05
-0.000116796
0.00929265
5.8445e-05
8.97341e-05
-0.0047066
-0.00461743
-9.05503e-05
0.00926491
-7.14082e-05
0.00924628
-5.42479e-05
0.00922605
-8.45111e-07
0.00920966
7.72629e-06
0.00919492
1.416e-05
0.00918704
0.00917515
-3.23431e-06
0.00916862
-3.33511e-06
0.0091743
-2.98222e-06
0.00917878
-1.91002e-06
0.00918648
-1.05701e-06
0.00919537
-4.50722e-06
0.00921173
-3.06548e-05
0.0092721
-3.7584e-05
0.00933818
6.07308e-07
-0.00467458
0.00464714
-1.01437e-05
-0.00463694
0.00463855
1.92459e-06
-3.53255e-06
-0.00462938
0.00463319
-5.48762e-06
1.67719e-06
-0.00218153
6.44011e-06
0.0021797
-4.60844e-06
-0.00204794
2.74438e-05
0.00205667
-3.61703e-05
-0.0021821
4.39658e-05
0.00441059
-9.09724e-05
-0.00222404
4.25542e-05
-0.00463734
9.28454e-05
0.00462878
-8.42876e-05
-0.00465007
7.95066e-05
0.00464414
-7.35767e-05
-8.55041e-05
0.00925673
5.64348e-05
6.4988e-05
-5.68205e-05
0.00923622
-4.75038e-05
0.00923696
-4.26077e-05
0.00922115
-3.75351e-05
0.00920459
-3.13447e-05
0.00918873
-2.2374e-05
0.00917807
0.00916715
-3.75315e-06
0.00916963
-3.83618e-06
0.00917438
-4.21618e-06
0.00917916
-4.764e-06
0.00918703
-6.11574e-06
0.00919672
-1.88048e-05
0.00922442
-3.67979e-05
0.00929009
-9.98196e-06
0.00931137
-5.8574e-06
0.00929416
-0.00464719
-0.00464259
-8.49685e-06
-0.00464321
0.004647
-9.64324e-06
-0.00463558
0.00463665
-1.36394e-05
1.25727e-05
-0.00433906
1.51325e-05
0.00434991
-2.59765e-05
-0.00414026
4.5376e-05
0.00416123
-6.63539e-05
-0.00441252
7.42423e-05
0.00440899
-7.07045e-05
-0.0046217
6.23572e-05
0.00461778
-5.84403e-05
-0.00464018
5.66547e-05
0.00463699
-5.34704e-05
-8.51821e-05
0.00924672
4.63991e-05
4.87932e-05
-6.90493e-05
0.00922009
-5.32107e-05
0.00922112
-3.65371e-05
0.00920448
-2.19861e-05
0.00919004
-1.62115e-05
0.00918296
-1.50006e-05
0.00917686
0.00916852
-4.03309e-06
0.00917103
-5.14201e-06
0.00917549
-6.74183e-06
0.00918076
-8.29846e-06
0.00918859
-1.35483e-05
0.00920197
-3.72508e-05
0.00924812
-3.77353e-05
0.00929058
-1.95485e-05
0.00929318
-2.76619e-05
0.00930227
-1.98977e-05
0.0093227
-0.00465219
-0.00465697
-2.13073e-05
-0.00463543
0.00463091
-1.5381e-05
-0.00436216
1.77449e-05
0.00437383
-2.94152e-05
-0.00417647
4.10964e-05
0.00418911
-5.37333e-05
-0.00440663
5.85698e-05
0.00440682
-5.87614e-05
-8.596e-05
0.0092485
-0.00461868
-0.00463162
4.33659e-05
4.43876e-05
-8.0168e-05
0.0092598
-0.00463376
-0.00463183
-7.3767e-05
0.00924032
-6.64093e-05
0.00921273
-5.25542e-05
0.00920727
-4.02502e-05
0.00919217
-3.03448e-05
0.00918013
-2.2257e-05
0.00917487
-1.07846e-05
0.00916538
0.00917547
-4.46859e-06
0.0091728
-6.57228e-06
0.00917759
-8.29186e-06
0.00918248
-1.06552e-05
0.00919095
-1.48857e-05
0.0092062
-3.322e-05
0.00926645
-2.61478e-05
0.0092835
-2.14778e-05
0.00928851
-3.24448e-05
0.00931324
-4.09951e-05
0.00933125
-4.1439e-05
0.00918224
-0.00461832
-0.00456348
-6.93692e-05
0.00885946
-0.00439165
-0.00443987
-9.3252e-05
0.008424
-0.00419797
-0.00420214
-8.09485e-05
0.00893776
-0.00442145
-0.00452861
-7.26737e-05
0.00924023
-6.92535e-05
0.00925638
-6.46164e-05
0.00923568
-5.85276e-05
0.00920664
-4.86736e-05
0.00919742
-3.98734e-05
0.00918337
-3.39903e-05
0.00917425
-2.40919e-05
0.00916497
-1.59979e-05
0.00915729
0.00917811
-4.9792e-06
0.00917491
-7.00657e-06
0.00917962
-9.73189e-06
0.00918521
-1.27014e-05
0.00919392
-1.71224e-05
0.00921062
-2.80752e-05
0.0092774
-2.46692e-05
0.0092801
-2.51781e-05
0.00928902
-3.45824e-05
0.00932265
-3.89012e-05
0.00933557
-3.65588e-05
0.0091799
-6.01865e-05
0.00888309
-8.02497e-05
0.00844406
-6.88473e-05
0.00892636
-6.22577e-05
0.00923364
-6.03971e-05
0.00925452
-5.70951e-05
0.00923238
-5.2023e-05
0.00920157
-4.49969e-05
0.00919039
-3.78322e-05
0.00917621
-3.17977e-05
0.00916821
-2.44876e-05
0.00915766
-1.77932e-05
0.00915059
0.00917947
-5.5119e-06
0.0091773
-8.3876e-06
0.0091825
-1.1502e-05
0.00918832
-1.49014e-05
0.00919732
-1.82807e-05
0.009214
-2.30335e-05
0.00928216
-2.39288e-05
0.00928099
-2.72178e-05
0.00929231
-3.57216e-05
0.00933115
-3.75137e-05
0.00933736
-3.32636e-05
0.00917565
-5.48353e-05
0.00890466
-7.29094e-05
0.00846214
-6.06938e-05
0.00891415
-5.4154e-05
0.0092271
-5.28276e-05
0.00925319
-5.04089e-05
0.00922996
-4.67894e-05
0.00919795
-4.16407e-05
0.00918524
-3.582e-05
0.00917039
-3.04449e-05
0.00916284
-2.41249e-05
0.00915134
-1.82909e-05
0.00914476
0.00918056
-6.0354e-06
0.00917991
-9.17571e-06
0.00918564
-1.20723e-05
0.00919122
-1.57567e-05
0.009201
-1.94391e-05
0.00921768
-2.18181e-05
0.00928454
-2.49371e-05
0.00928411
-3.16166e-05
0.00929899
-3.60169e-05
0.00933555
-3.59829e-05
0.00933733
-3.00901e-05
0.00916976
-5.0688e-05
0.00892525
-6.77543e-05
0.0084792
-5.47401e-05
0.00890113
-4.7557e-05
0.00921991
-4.63573e-05
0.00925199
-4.46912e-05
0.00922829
-4.22872e-05
0.00919555
-3.76784e-05
0.00918063
-3.39635e-05
0.00916667
-2.85604e-05
0.00915743
-2.36234e-05
0.0091464
-1.9078e-05
0.00914021
0.00918083
-7.03873e-06
0.00918319
-9.3636e-06
0.00918796
-1.29631e-05
0.00919482
-1.63149e-05
0.00920436
-2.01821e-05
0.00922155
-2.25827e-05
0.00928694
-2.59825e-05
0.00928751
-3.22577e-05
0.00930526
-3.55842e-05
0.00933888
-3.39274e-05
0.00933567
-2.69259e-05
0.00916276
-4.70519e-05
0.00894538
-6.38104e-05
0.00849596
-5.01583e-05
0.00888748
-4.22171e-05
0.00921197
-4.07804e-05
0.00925056
-3.95667e-05
0.00922708
-3.74301e-05
0.00919341
-3.46187e-05
0.00917782
-3.13188e-05
0.00916337
-2.67167e-05
0.00915283
-2.25574e-05
0.00914224
-1.82246e-05
0.00913588
0.00918174
-7.01409e-06
0.0091861
-1.04686e-05
0.00919141
-1.36957e-05
0.00919805
-1.71353e-05
0.0092078
-2.11024e-05
0.00922552
-2.29504e-05
0.00928879
-2.65658e-05
0.00929113
-3.2396e-05
0.00931109
-3.72002e-05
0.00934368
-3.17042e-05
0.00933018
-2.38849e-05
0.00915494
-4.37068e-05
0.0089652
-6.05973e-05
0.00851285
-4.66459e-05
0.00887353
-3.78221e-05
0.00920315
-3.59686e-05
0.0092487
-3.50205e-05
0.00922613
-3.3616e-05
0.00919201
-3.09262e-05
0.00917513
-2.83798e-05
0.00916083
-2.54473e-05
0.0091499
-2.19621e-05
0.00913876
-1.87605e-05
0.00913268
0.00918173
-7.47794e-06
0.00918908
-1.05003e-05
0.00919444
-1.43062e-05
0.00920185
-1.77726e-05
0.00921126
-2.12786e-05
0.00922902
-2.30398e-05
0.00929055
-2.68922e-05
0.00929498
-3.22436e-05
0.00931645
-3.70904e-05
0.00934853
-2.92008e-05
0.00932229
-2.09364e-05
0.00914667
-4.02835e-05
0.00898455
-5.78924e-05
0.00853046
-4.3611e-05
0.00885925
-3.40854e-05
0.00919362
-3.16877e-05
0.00924631
-3.09907e-05
0.00922543
-3.02344e-05
0.00919125
-2.8542e-05
0.00917344
-2.66306e-05
0.00915892
-2.32615e-05
0.00914653
-2.03663e-05
0.00913586
-1.77164e-05
0.00913003
0.00918225
-7.94196e-06
0.00919211
-1.09906e-05
0.00919749
-1.43244e-05
0.00920519
-1.77751e-05
0.00921471
-2.17905e-05
0.00923304
-2.34505e-05
0.0092922
-2.69674e-05
0.0092985
-3.18479e-05
0.00932133
-3.55773e-05
0.00935225
-3.23427e-05
0.00931905
-2.22951e-05
0.00913662
-4.06661e-05
0.00900292
-5.79889e-05
0.00854778
-4.40126e-05
0.00884527
-3.3208e-05
0.00918282
-3.01196e-05
0.00924322
-2.96305e-05
0.00922494
-2.96809e-05
0.0091913
-2.94028e-05
0.00917316
-2.55331e-05
0.00915505
-2.26439e-05
0.00914364
-1.97615e-05
0.00913298
-1.70956e-05
0.00912736
0.00918274
-8.42343e-06
0.00919515
-1.14628e-05
0.00920053
-1.42911e-05
0.00920801
-1.82012e-05
0.00921862
-2.16887e-05
0.00923653
-2.37483e-05
0.00929426
-2.6973e-05
0.00930172
-3.13188e-05
0.00932567
-3.63667e-05
0.0093573
-3.16543e-05
0.00931434
-2.30227e-05
0.00912799
-4.18354e-05
0.00902173
-6.08855e-05
0.00856683
-4.78844e-05
0.00883227
-3.65355e-05
0.00917147
-3.27122e-05
0.00923939
-3.18495e-05
0.00922408
-3.13979e-05
0.00919085
-3.0472e-05
0.00917223
-2.95327e-05
0.00915411
-2.75311e-05
0.00914164
-2.60773e-05
0.00913153
-2.38251e-05
0.00912511
0.00917569
-8.93808e-06
0.00919817
-1.19414e-05
0.00920353
-1.52422e-05
0.00921131
-1.80819e-05
0.00922147
-2.1525e-05
0.00923997
-2.3483e-05
0.00929622
-2.6959e-05
0.0093052
-3.31325e-05
0.00933185
-3.64811e-05
0.00936065
-2.90378e-05
0.0093069
-2.028e-05
0.00911923
-3.86918e-05
0.00904015
-5.87079e-05
0.00858685
-4.62737e-05
0.00881984
-3.41968e-05
0.00915939
-2.96068e-05
0.0092348
-2.85025e-05
0.00922298
-2.88519e-05
0.0091912
-2.77402e-05
0.00917112
-2.71876e-05
0.00915355
-2.60281e-05
0.00914048
-2.44534e-05
0.00912995
-2.30554e-05
0.00912371
0.0091685
-9.50135e-06
0.00920114
-1.19427e-05
0.00920597
-1.51876e-05
0.00921456
-1.7954e-05
0.00922423
-2.18355e-05
0.00924385
-2.37027e-05
0.00929809
-2.92783e-05
0.00931077
-3.48274e-05
0.00933739
-3.46956e-05
0.00936052
-2.63022e-05
0.00929851
-1.77602e-05
0.00911069
-3.5518e-05
0.00905791
-5.65082e-05
0.00860784
-4.50431e-05
0.00880837
-3.22991e-05
0.00914665
-2.68551e-05
0.00922936
-2.53773e-05
0.0092215
-2.59786e-05
0.0091918
-2.56389e-05
0.00917078
-2.49153e-05
0.00915283
-2.3555e-05
0.00913912
-2.32952e-05
0.00912969
-2.17072e-05
0.00912213
0.00916162
-9.6189e-06
0.00920353
-1.29913e-05
0.00920934
-1.56544e-05
0.00921722
-1.88442e-05
0.00922742
-2.16345e-05
0.00924664
-2.64458e-05
0.0093029
-3.23219e-05
0.00931665
-3.41829e-05
0.00933926
-3.27898e-05
0.00935912
-2.36765e-05
0.00928939
-1.52801e-05
0.00910229
-3.23248e-05
0.00907495
-5.42519e-05
0.00862976
-4.39328e-05
0.00879805
-3.07403e-05
0.00913345
-2.43734e-05
0.00922299
-2.24495e-05
0.00921958
-2.32481e-05
0.0091926
-2.3149e-05
0.00917068
-2.26991e-05
0.00915238
-2.20907e-05
0.00913851
-2.11023e-05
0.0091287
-2.02726e-05
0.0091213
0.009155
-1.08026e-05
0.00920632
-1.30786e-05
0.00921162
-1.56444e-05
0.00921979
-1.8748e-05
0.00923053
-2.49703e-05
0.00925286
-3.22173e-05
0.00931015
-3.23372e-05
0.00931677
-3.33606e-05
0.00934028
-3.06759e-05
0.00935644
-2.10349e-05
0.00927975
-1.30637e-05
0.00909432
-2.91352e-05
0.00909102
-5.20447e-05
0.00865267
-4.3092e-05
0.0087891
-2.93864e-05
0.00911975
-2.22575e-05
0.00921586
-1.9722e-05
0.00921704
-2.06566e-05
0.00919353
-2.02585e-05
0.00917028
-2.10266e-05
0.00915315
-2.01334e-05
0.00913762
-1.98624e-05
0.00912843
-1.92511e-05
0.00912069
0.00914808
-1.10331e-05
0.00920848
-1.37149e-05
0.0092143
-1.66647e-05
0.00922274
-1.8672e-05
0.00923253
-3.48662e-05
0.00926906
-3.19041e-05
0.00930718
-3.23308e-05
0.0093172
-3.24572e-05
0.00934041
-2.85783e-05
0.00935256
-1.84678e-05
0.00926964
-1.10067e-05
0.00908686
-2.59924e-05
0.00910601
-4.96573e-05
0.00867634
-4.23091e-05
0.00878175
-2.8406e-05
0.00910585
-2.04082e-05
0.00920787
-1.71635e-05
0.0092138
-1.82165e-05
0.00919459
-1.84713e-05
0.00917054
-1.84062e-05
0.00915308
-1.86824e-05
0.0091379
-1.80842e-05
0.00912783
-1.76523e-05
0.00912025
0.00914133
-1.23076e-05
0.009211
-1.38789e-05
0.00921587
-1.66885e-05
0.00922555
-2.76916e-05
0.00924354
-3.56344e-05
0.009277
-3.25534e-05
0.0093041
-3.21562e-05
0.0093168
-3.13441e-05
0.00933959
-2.6349e-05
0.00934757
-1.60148e-05
0.00925931
-9.15937e-06
0.00908001
-2.29476e-05
0.0091198
-4.72496e-05
0.00870064
-4.1582e-05
0.00877608
-2.76113e-05
0.00909188
-1.89458e-05
0.0091992
-1.49107e-05
0.00920976
-1.59553e-05
0.00919563
-1.63008e-05
0.00917089
-1.68442e-05
0.00915363
-1.62505e-05
0.0091373
-1.62782e-05
0.00912786
-1.54903e-05
0.00911947
0.0091352
-1.2588e-05
0.00921285
-1.50615e-05
0.00921835
-1.72047e-05
0.00922769
-3.06263e-05
0.00925696
-3.4808e-05
0.00928118
-3.20593e-05
0.00930135
-3.17992e-05
0.00931654
-3.0009e-05
0.0093378
-2.40818e-05
0.00934164
-1.38325e-05
0.00924906
-7.87376e-06
0.00907405
-2.01677e-05
0.00913209
-4.45027e-05
0.00872497
-4.06691e-05
0.00877225
-2.69579e-05
0.00907816
-1.78108e-05
0.00919005
-1.2974e-05
0.00920492
-1.39505e-05
0.00919661
-1.42822e-05
0.00917122
-1.48734e-05
0.00915422
-1.48485e-05
0.00913728
-1.44632e-05
0.00912748
-1.42739e-05
0.00911928
0.00912864
-1.33343e-05
0.00921451
-1.52159e-05
0.00922023
-1.71713e-05
0.00922965
-2.74655e-05
0.00926725
-3.33975e-05
0.00928711
-3.24802e-05
0.00930044
-3.12302e-05
0.00931529
-2.85367e-05
0.00933511
-2.17614e-05
0.00933486
-1.17562e-05
0.00923905
-6.85422e-06
0.00906914
-1.75542e-05
0.00914279
-4.17165e-05
0.00874914
-3.99159e-05
0.00877045
-2.65519e-05
0.0090648
-1.70752e-05
0.00918058
-1.13493e-05
0.0091992
-1.27034e-05
0.00919796
-1.23893e-05
0.0091709
-1.30215e-05
0.00915485
-1.24966e-05
0.00913675
-1.31694e-05
0.00912815
-1.25423e-05
0.00911865
0.00912211
-1.45487e-05
-1.63292e-05
-1.75789e-05
-2.26659e-05
-2.61919e-05
-3.18127e-05
-2.95344e-05
-2.6067e-05
-1.94182e-05
-1.13197e-05
-8.50329e-06
-1.66835e-05
-3.61783e-05
-3.64076e-05
-2.56609e-05
-1.73004e-05
-1.11211e-05
-1.11584e-05
-1.08055e-05
-1.13364e-05
-1.12248e-05
-1.09184e-05
-1.13022e-05
9.82187e-05
-0.000108021
-0.00122546
0.00126776
0.000138229
-0.00125452
-7.46187e-05
-7.68445e-05
-0.0011392
-0.00016184
0.00115414
3.26579e-05
-3.3942e-05
-0.00127313
0.00132034
4.98635e-05
-0.0013184
-2.46197e-05
-2.71889e-05
0.0012792
-6.95166e-05
-7.14987e-05
-3.05125e-05
3.60161e-05
-0.00125709
0.00129134
-4.4743e-05
-0.00129824
2.6823e-05
2.48156e-05
0.00132095
-1.75916e-05
-2.01523e-05
-6.10562e-05
6.84597e-05
-0.0012042
0.0012192
-9.77912e-05
-0.00122986
0.000108452
0.00128386
3.16492e-05
2.98001e-05
-5.92726e-05
6.61935e-05
-0.00114521
0.00112968
-0.000104624
-0.00114113
0.000116075
0.000111898
0.00120795
3.88909e-05
-5.03355e-05
-0.00111074
-1.18346e-05
0.000464572
2.58257e-06
-0.000234012
-0.000221308
-2.28499e-05
-0.00018015
-0.000206899
0.00106324
-5.91859e-05
-0.00106555
6.14942e-05
0.000112359
0.00111955
0.000102409
-0.000113378
-0.00111958
-0.0010482
4.77282e-06
0.00103573
0.000135655
-0.00112664
-0.000148212
-0.001107
-5.19995e-05
0.00111224
9.85373e-05
-0.000117089
-0.00237858
0.00122939
-0.00122061
8.94387e-05
-0.00114165
9.73807e-05
0.00115269
0.000302796
0.000124519
-0.000598342
0.000303876
-6.56685e-05
-6.71799e-05
0.000111048
-0.000529372
-0.000120117
0.000538442
0.000126176
-0.00125113
0.00245788
0.0001416
-0.00243288
-0.000166604
-0.00235333
-0.000181294
0.00237916
4.64842e-05
-5.24368e-05
-0.00243456
0.00126763
-0.00126608
3.1108e-05
8.27227e-05
0.00123748
0.00126305
6.72372e-05
-7.24874e-05
-0.0012578
0.000638449
-2.06986e-05
-0.000638323
4.01496e-05
-1.9577e-05
-0.000634451
-6.44101e-05
6.2576e-05
0.000636285
0.000311763
9.96631e-06
-0.000320255
-1.47447e-06
-0.000319639
5.04837e-05
-5.51234e-05
0.000324279
4.73967e-05
-0.00131289
0.00252153
6.7884e-05
-0.00251241
-7.70009e-05
-0.00014948
0.00248032
-1.28788e-05
1.90382e-05
-0.0024395
0.00125038
-0.00125513
-2.57659e-05
2.27805e-05
0.00126858
0.00126995
-1.97411e-06
4.42831e-06
-0.00127241
0.000635751
9.33997e-06
-0.00063802
-1.0968e-05
3.8973e-06
-0.000642487
-6.36758e-06
1.1569e-05
0.000641245
-3.96003e-06
0.000278481
3.1008e-07
-0.000278427
-3.64274e-07
-0.000285464
8.79457e-07
0.000285452
-8.67648e-07
-3.82402e-05
-0.0012994
0.00251273
-2.15721e-05
-0.00252117
3.00066e-05
-4.9283e-05
0.00252608
-5.0747e-05
6.22008e-05
-0.00240485
0.00120067
-0.00120758
-5.41407e-05
-3.12506e-05
0.00124525
0.00122586
-5.0317e-05
5.72683e-05
-0.00123281
4.46306e-05
0.000582777
-0.000585829
-4.15784e-05
-0.000607662
1.80808e-05
-3.26698e-05
0.00060357
1.86811e-05
0.000298044
-3.87153e-05
-0.000305434
4.61052e-05
-0.000284759
-8.25679e-06
1.9055e-06
0.00029111
-8.77456e-05
-0.00123469
0.00245281
-8.3483e-05
-0.00247081
0.000101478
5.29379e-05
0.0025014
0.000520296
-7.636e-05
-0.000523054
3.98922e-05
3.92258e-05
-0.000272889
-3.66305e-05
3.73173e-05
0.000272202
-9.40389e-05
-0.0011532
0.00237835
-0.000102309
-0.00239649
0.000120449
0.000112272
0.00243442
0.000475588
-6.14794e-05
-0.000477359
6.32498e-05
-0.000495674
-7.27404e-05
7.56528e-05
0.000492762
-1.52994e-05
1.24246e-05
-0.00217312
-1.98061e-05
0.00105548
-0.00104754
1.18628e-05
4.44644e-06
0.000470882
-3.13521e-05
-0.00097164
-7.70759e-05
0.00212429
-0.00213679
8.95709e-05
4.05936e-05
0.00106392
-6.64156e-05
-0.000633544
6.55091e-05
-9.22258e-05
-0.000603636
8.64501e-05
0.000609412
-0.00118893
0.000113769
0.00120196
-0.000126807
-0.000605154
0.000611761
-4.97883e-05
-4.90443e-05
0.000634271
-0.000636732
-3.23568e-05
-3.15979e-05
8.90677e-05
-0.000541001
0.000548573
-9.66403e-05
9.43296e-05
-0.000100263
-0.000599221
4.50414e-05
-0.000321939
-4.27414e-05
6.20314e-05
-6.36773e-05
0.000304442
-0.00120783
0.000156467
-0.000173058
0.00122442
-0.000604829
-6.12739e-05
0.000612006
0.000116128
0.000322485
4.55266e-05
-0.000322971
-5.20543e-06
-0.00064389
1.45518e-05
-7.94244e-06
-2.09484e-05
3.88804e-05
0.000642392
-2.1875e-05
5.86772e-05
0.00126744
-6.3062e-05
-0.000313366
0.000315448
-2.30301e-05
0.000319212
-5.19127e-06
-0.000319226
0.000318263
0.000318647
-3.23689e-05
-3.46814e-05
-2.05636e-05
-0.000313501
-6.97009e-07
-0.000287514
2.74796e-06
1.59999e-05
-5.73315e-06
0.000301496
-0.00130443
8.66126e-05
0.00131041
-4.51094e-05
-4.74814e-05
-0.000315704
0.000309019
2.2685e-05
0.000312535
2.36243e-06
-0.000315595
0.000325701
4.72677e-05
1.76786e-05
-0.000323417
9.82575e-05
-0.00129745
-5.14377e-05
-5.37986e-05
1.82301e-05
-0.000611476
-3.07199e-05
1.63033e-05
8.66969e-06
-1.56695e-05
0.000629174
1.35768e-05
-9.71637e-06
0.00126627
1.34048e-05
-0.000317109
0.000313238
1.25406e-05
0.000298801
1.97814e-05
-0.000300352
0.000317626
-4.78098e-06
8.87797e-06
-0.000316647
-1.39768e-05
-0.000277081
6.29908e-06
-3.83304e-07
0.000278258
6.06723e-07
-0.00131443
-1.25434e-05
0.00130986
9.64113e-06
7.47459e-06
-0.000304224
0.000305305
-1.4643e-06
0.000288808
-1.86155e-05
-0.000284169
0.000310742
2.67265e-06
-9.67964e-07
-0.000302946
-6.39868e-07
-0.00131789
3.17354e-06
9.22936e-07
-0.000570507
-4.52431e-05
0.000569216
2.2513e-05
2.4021e-05
0.000549839
-4.85735e-05
5.09181e-05
-0.000552184
0.000296273
2.06093e-05
-0.000572031
2.31406e-05
2.30136e-05
-3.78002e-05
-0.000274513
3.94238e-05
-4.22731e-05
5.31798e-05
0.000287137
-0.00125843
-8.28228e-05
0.00124918
4.647e-05
4.56008e-05
-0.000295585
0.000289495
-3.61828e-05
0.00055062
3.72998e-05
-7.0508e-05
-0.000555212
0.00029438
-1.38283e-05
-3.44921e-05
-0.000299808
-7.68108e-05
-0.00126732
4.35149e-05
4.21885e-05
-0.000529111
-4.69748e-05
0.000526905
4.91809e-05
0.000514682
-4.32428e-05
4.46574e-05
-0.000516097
-4.88153e-05
0.000548155
5.05e-05
-4.73895e-05
4.99101e-05
-0.000531632
-7.31e-05
-0.000498964
7.63899e-05