/*--------------------------------*- C++ -*----------------------------------*\
| =========                 |                                                 |
| \\      /  F ield         | OpenFOAM: The Open Source CFD Toolbox           |
|  \\    /   O peration     | Version:  5.x                                   |
|   \\  /    A nd           | Web:      www.OpenFOAM.org                      |
|    \\/     M anipulation  |                                                 |
\*---------------------------------------------------------------------------*/
FoamFile
{
    version     2.0;
    format      ascii;
    class       volScalarField;
    location    "100";
    object      pSat;
}
// * * * * * * * * * * * * * * * * * * * * * * * * * * * * * * * * * * * * * //

dimensions      [0 2 -2 0 0 0 0];

internalField   nonuniform List<scalar> 
6584
(
697.948
697.948
697.948
697.948
697.948
697.948
697.948
697.948
697.948
697.948
697.948
697.948
697.948
697.948
697.948
697.948
697.948
697.948
697.948
697.948
697.948
697.948
697.948
697.948
697.948
697.948
697.948
697.948
697.948
697.948
697.948
697.948
697.948
697.948
697.948
697.948
697.948
697.948
697.948
697.948
697.948
697.948
697.948
697.948
697.948
697.948
697.948
697.948
697.948
697.948
697.948
697.948
697.948
697.948
697.948
697.948
697.948
697.948
697.948
697.948
697.948
697.948
697.948
697.948
697.948
697.948
697.948
697.948
697.948
697.948
697.948
697.948
697.948
697.948
697.948
697.948
697.948
697.948
697.948
697.948
697.948
697.948
697.948
697.948
697.948
697.948
697.948
697.948
697.948
697.948
697.948
697.948
697.948
697.948
697.948
697.948
697.948
697.948
697.948
697.948
697.948
697.948
697.948
697.948
697.948
697.948
697.948
697.948
697.948
697.948
697.948
697.948
697.948
697.948
697.948
697.948
697.948
697.948
697.948
697.948
697.948
697.948
697.948
697.948
697.948
697.948
697.948
697.948
697.948
697.948
697.948
697.948
697.948
697.948
697.948
697.948
697.948
697.948
697.948
697.948
697.948
697.948
697.948
697.948
697.948
697.948
697.948
697.948
697.948
697.948
697.948
697.948
697.948
697.948
697.948
697.948
697.948
697.948
697.948
697.948
697.948
697.948
697.948
697.948
697.948
697.948
697.948
697.948
697.948
697.948
697.948
697.948
697.948
697.948
697.948
697.948
697.948
697.948
697.948
697.948
697.948
697.948
697.948
697.948
697.948
697.948
697.948
697.948
697.948
697.948
697.948
697.948
697.948
697.948
697.948
697.948
697.948
697.948
697.948
697.948
697.948
697.948
697.948
697.948
697.948
697.948
697.948
697.948
697.948
697.948
697.948
697.948
697.948
697.948
697.948
697.948
697.948
697.948
697.948
697.948
697.948
697.948
697.948
697.948
697.948
697.948
697.948
697.948
697.948
697.948
697.948
697.948
697.948
697.948
697.948
697.948
697.948
697.948
697.948
697.948
697.948
697.948
697.948
697.948
697.948
697.948
697.948
697.948
697.948
697.948
697.948
697.948
697.948
697.948
697.948
697.948
697.948
697.948
697.948
697.948
697.948
697.948
697.948
697.948
697.948
697.948
697.948
697.948
697.948
697.948
697.948
697.948
697.948
697.948
697.948
697.948
697.948
697.948
697.948
697.948
697.948
697.948
697.948
697.948
697.948
697.948
697.948
697.948
697.948
697.948
697.948
697.948
697.948
697.948
697.948
697.948
697.948
697.948
697.948
697.948
697.948
697.948
697.948
697.948
697.948
697.948
697.948
697.948
697.948
697.948
697.948
697.948
697.948
697.948
697.948
697.948
697.948
697.948
608.039
697.948
697.948
697.948
697.948
697.948
697.948
697.948
697.948
697.948
697.948
697.948
697.948
697.948
697.948
697.948
697.948
697.948
697.948
697.948
697.948
697.948
697.948
697.948
676.751
697.948
697.948
697.948
697.948
697.948
697.948
697.948
697.948
697.948
697.948
697.948
697.948
697.948
697.948
697.948
697.948
697.948
697.948
697.948
697.948
697.948
697.948
697.948
678.82
697.948
697.948
697.948
697.948
697.948
697.948
697.948
697.948
697.948
697.948
697.948
697.948
697.948
697.948
697.948
697.948
697.948
697.948
697.948
697.948
697.948
697.948
697.816
688.84
697.948
697.948
697.948
697.948
697.948
697.948
697.948
697.948
697.948
697.948
697.948
697.948
697.948
697.948
697.948
697.948
697.948
697.948
697.948
697.948
697.948
697.948
697.683
689.186
697.948
697.948
697.948
697.948
697.948
697.948
697.948
697.948
697.948
697.948
697.948
697.948
697.948
697.948
697.948
697.948
697.948
697.948
697.948
697.948
697.948
697.924
693.015
693.695
697.948
697.948
697.948
697.948
697.948
697.948
697.948
697.948
697.948
697.948
697.948
697.948
697.948
697.948
697.948
697.948
697.948
697.948
697.948
697.948
697.948
697.905
693.043
693.761
697.947
697.948
697.948
697.948
697.948
697.948
697.948
697.948
697.948
697.948
697.948
697.948
697.948
697.948
697.948
697.948
697.948
697.948
697.948
697.948
697.948
697.887
693.07
693.822
697.947
697.948
697.948
697.948
697.948
697.948
697.948
697.948
697.948
697.948
697.948
697.948
697.948
697.948
697.948
697.948
697.948
697.948
697.948
697.948
697.948
697.872
693.098
693.88
697.946
697.948
697.948
697.948
697.948
697.948
697.948
697.948
697.948
697.948
697.948
697.948
697.948
697.948
697.948
697.948
697.948
697.948
697.948
697.948
697.947
697.86
693.125
693.936
697.946
697.948
697.948
697.948
697.948
697.948
697.948
697.948
697.948
697.948
697.948
697.948
697.948
697.948
697.948
697.948
697.948
697.948
697.948
697.948
697.947
697.849
693.153
693.989
697.945
697.948
697.948
697.948
697.948
697.948
697.948
697.948
697.948
697.948
697.948
697.948
697.948
697.948
697.948
697.948
697.948
697.948
697.948
697.948
697.947
697.84
693.18
694.041
697.945
697.948
697.948
697.948
697.948
697.948
697.948
697.948
697.948
697.948
697.948
697.948
697.948
697.948
697.948
697.948
697.948
697.948
697.948
697.948
697.946
697.831
693.208
694.092
697.944
697.948
697.948
697.948
697.948
697.948
697.948
697.948
697.948
697.948
697.948
697.948
697.948
697.948
697.948
697.948
697.948
697.948
697.948
697.948
697.946
697.823
693.237
694.144
697.944
697.948
697.948
697.948
697.948
697.948
697.948
697.948
697.948
697.948
697.948
697.948
697.948
697.948
697.948
697.948
697.948
697.948
697.948
697.948
697.946
697.816
693.265
694.194
697.943
697.948
697.948
697.948
697.948
697.948
697.948
697.948
697.948
697.948
697.948
697.948
697.948
697.948
697.948
697.948
697.948
697.948
697.948
697.948
697.946
697.811
693.294
694.242
697.943
697.948
697.948
697.948
697.948
697.948
697.948
697.948
697.948
697.948
697.948
697.948
697.948
697.948
697.948
697.948
697.948
697.948
697.948
697.948
697.945
697.808
693.322
694.287
697.943
697.948
697.948
697.948
697.948
697.948
697.948
697.948
697.948
697.948
697.948
697.948
697.948
697.948
697.948
697.948
697.948
697.948
697.948
697.948
697.945
697.806
693.351
694.331
697.942
697.948
697.948
697.948
697.948
697.948
697.948
697.948
697.948
697.948
697.948
697.948
697.948
697.948
697.948
697.948
697.948
697.948
697.948
697.948
697.945
697.806
693.381
694.372
697.942
697.948
697.948
697.948
697.948
697.948
697.948
697.948
697.948
697.948
697.948
697.948
697.948
697.948
697.948
697.948
697.948
697.948
697.948
697.948
697.945
697.807
693.41
694.412
697.941
697.948
697.948
697.948
697.948
697.948
697.948
697.948
697.948
697.948
697.948
697.948
697.948
697.948
697.948
697.948
697.948
697.948
697.948
697.948
697.945
697.809
693.44
694.449
697.941
697.948
697.948
697.948
697.948
697.948
697.948
697.948
697.948
697.948
697.948
697.948
697.948
697.948
697.948
697.948
697.948
697.948
697.948
697.948
697.945
697.813
693.471
694.483
697.941
697.948
697.948
697.948
697.948
697.948
697.948
697.948
697.948
697.948
697.948
697.948
697.948
697.948
697.948
697.948
697.948
697.948
697.948
697.948
697.945
697.815
693.502
694.514
697.94
697.948
697.948
697.948
697.948
697.948
697.948
697.948
697.948
697.948
697.948
697.948
697.948
697.948
697.948
697.948
697.948
697.948
697.948
697.948
697.948
697.948
697.948
697.948
697.948
697.948
697.948
640.991
604.713
697.948
697.948
697.948
697.948
697.948
697.948
697.948
697.948
697.948
697.948
697.948
697.948
697.948
697.948
697.948
697.948
697.948
697.948
697.875
697.923
697.522
697.884
697.948
697.948
697.948
697.948
697.948
697.948
697.948
697.855
697.831
693.023
695.375
697.948
697.948
697.948
697.948
697.948
697.948
697.948
697.922
697.898
697.284
695.106
697.948
697.948
697.948
697.917
697.883
697.948
697.948
697.948
697.946
697.941
697.948
663.863
640.581
657.588
697.948
697.948
697.93
697.948
697.948
697.947
697.875
697.948
697.948
697.896
697.948
697.948
697.948
697.929
697.831
697.866
697.948
697.718
697.595
697.848
697.73
695.567
697.506
697.948
697.724
697.282
697.923
697.734
697.948
697.894
697.86
697.948
697.736
697.864
697.598
697.725
694.974
692.926
697.948
697.156
697.495
697.274
697.157
697.948
697.89
697.922
697.87
697.883
697.873
697.373
697.948
697.848
697.926
697.516
697.835
697.948
697.94
697.945
697.924
697.938
697.94
697.922
697.929
697.941
697.948
697.947
697.947
697.945
697.947
697.948
697.947
697.948
697.948
697.948
697.934
697.948
697.948
697.948
697.948
697.948
697.944
697.939
697.22
696.246
697.948
697.948
697.948
697.948
697.937
697.948
697.948
697.948
697.937
697.925
697.948
663.339
675.582
695.775
696.905
676.591
686.416
696.024
693.511
697.948
697.942
697.946
697.011
697.478
697.946
697.948
697.948
697.948
697.948
697.948
697.948
697.948
697.948
697.927
697.948
697.939
697.948
697.942
697.948
697.646
697.742
694.369
694.48
696.594
696.379
697.898
692.652
697.922
697.685
697.306
697.187
697.631
697.944
695.909
697.938
692.268
697.238
691.281
697.928
697.39
697.936
697.948
697.903
696.46
697.937
697.94
697.603
697.598
697.802
697.792
696.387
696.489
697.299
697.942
697.945
697.94
697.942
697.297
697.852
697.947
697.948
697.945
697.947
697.821
697.808
697.816
697.645
697.654
691.777
691.924
697.144
697.94
697.939
697.941
697.94
697.158
697.238
697.938
697.939
697.939
697.938
697.233
663.82
697.906
675.073
662.087
686.463
676.194
697.911
697.851
662.449
697.86
697.753
697.723
697.693
697.943
697.941
697.944
697.943
697.721
693.017
695.506
697.932
692.583
687.229
695.629
693.08
697.934
687.289
692.532
697.935
695.91
697.084
693.066
695.636
697.932
692.84
697.556
697.658
671.921
697.521
697.514
638.888
697.726
697.713
697.946
697.948
697.948
697.948
697.948
697.948
697.948
651.592
697.928
697.947
697.947
697.947
697.945
697.948
675.647
678.532
629.205
697.565
697.593
680.63
684.388
697.243
697.731
563.77
697.948
697.948
697.948
697.948
697.948
697.948
697.895
697.947
697.947
697.531
697.32
697.821
697.842
697.945
697.945
697.945
697.945
697.838
693.647
695.031
697.018
695.456
690.978
688.537
697.945
697.668
697.825
697.944
697.945
663.613
697.948
697.945
697.948
697.914
697.574
697.389
697.946
697.948
697.948
697.948
697.948
697.945
697.837
697.945
697.945
697.946
697.946
697.842
697.656
693.262
695.798
692.85
692.914
697.59
695.972
696.015
697.756
695.898
696.841
697.476
697.906
697.909
697.878
697.882
697.287
697.946
697.946
697.876
697.771
693.874
692.508
697.613
692.738
692.863
692.197
692.019
697.693
693.747
692.228
697.124
697.892
697.885
697.903
697.913
697.368
697.262
697.874
697.876
697.883
697.878
697.194
697.835
695.343
696.158
693.169
692.93
697.56
697.911
697.945
697.944
697.946
697.946
697.916
697.942
696.959
695.86
697.508
697.326
697.943
692.73
693.687
697.946
697.676
697.558
691.215
692.393
693.52
691.585
697.946
697.947
697.948
688.07
696.901
689.146
690.547
689.694
696.773
697.948
697.942
697.948
697.925
697.947
665.958
669.404
675.365
675.532
696.366
682.967
680.44
686.77
683.707
696.516
680.189
681.959
695.176
694.775
697.259
690.381
687.992
685.012
687.124
697.905
697.945
697.948
697.932
697.944
697.89
697.536
697.809
693.756
694.91
696.937
695.619
692.582
696.937
696.497
697.334
697.06
692.612
695.325
694.647
696.338
695.615
697.568
693.782
694.921
691.472
693.212
697.515
687.229
687.645
694.612
697.757
697.585
697.913
697.807
695.256
696.612
696.4
697.453
696.733
697.84
697.945
697.926
697.771
697.638
697.821
697.614
697.921
697.664
697.876
697.925
697.705
697.854
697.945
697.904
697.836
692.874
692.971
697.635
688.351
685.974
693.512
688.56
682.961
680.895
685.298
684.131
697.591
692.951
692.884
694.068
693.802
696.299
694.654
694.034
693.987
693.868
694.004
697.765
696.007
695.991
696.008
696.786
697.893
697.903
697.374
697.292
697.884
697.891
694.525
694.14
697.781
680.646
682.009
670.038
679.145
683.586
686.633
682.251
683.149
692.533
692.705
697.62
677.785
675.633
680.653
678.362
671.13
669.403
674.676
672.475
697.684
692.182
692.431
692.939
692.095
697.901
697.894
697.126
697.296
697.91
697.903
697.873
697.873
697.258
697.198
697.877
697.874
664.546
668.489
696.329
696.811
695.467
696.126
664.754
682.752
697.315
696.749
696.929
697.233
680.838
690.901
691.976
688.046
690.496
664.292
694.351
695.24
692.389
693.905
664.018
694.367
695.098
697.818
692.744
693.319
694.341
692.844
693.245
697.604
692.753
693.863
694.192
671
670.239
679.003
672.063
694.55
675.113
689.605
670.022
690.438
694.455
697.588
697.409
697.748
697.637
694.716
691.505
691.732
694.026
694.8
688.131
690.704
694.824
693.955
697.948
697.948
697.948
697.948
697.948
697.948
697.948
697.948
697.948
697.948
697.948
697.948
697.948
697.948
697.948
697.948
697.948
697.902
697.526
696.842
696.755
693.167
695.258
697.947
697.947
697.91
692.749
692.494
695.217
696.341
696.755
697.904
697.944
697.948
697.948
697.25
697.417
697.896
697.938
697.916
697.946
697.841
696.575
697.182
695.677
696.664
696.563
697.449
697.632
697.633
697.284
697.916
697.921
697.749
697.88
697.946
697.947
695.611
695.058
697.845
694.78
693.069
693.001
692.833
697.155
697.672
697.665
697.268
697.629
697.63
697.66
697.655
697.163
697.833
696.309
695.832
697.575
697.909
697.906
697.935
697.947
697.947
678.93
679.116
697.779
697.707
697.947
678.619
678.773
697.841
697.874
697.947
697.938
697.929
663.286
664.597
665.289
674.356
677.587
663.427
663.932
675.581
673.729
685.285
691.651
691.36
693.959
692.318
690.876
697.323
697.948
697.948
697.948
697.905
697.925
697.939
697.944
697.866
697.882
697.948
697.948
697.948
697.266
697.224
697.581
697.781
697.613
697.53
694.061
694.594
694.316
694.634
696.743
696.11
693.093
693.744
692.889
692.811
695.076
694.797
692.481
692.829
692.853
697.91
696.892
697.232
695.413
693.403
696.291
695.968
697.67
697.527
696.911
689.571
688.984
695.145
692.89
689.597
697.947
697.946
697.888
697.867
697.716
697.791
696.891
697.76
697.827
695.996
696.282
697.833
688.142
687.584
696.284
696.588
697.936
697.939
697.888
697.757
697.925
697.931
697.838
694.935
694.623
691.876
691.973
697.632
697.63
697.242
697.216
697.636
697.634
664.433
673.777
686.16
687.048
676.943
678.093
661.802
696.7
696.415
697.842
661.171
660.566
666.319
666.834
663.045
674.997
675.977
660.625
661.899
697.916
697.913
697.6
697.778
697.921
697.919
690.402
697.129
697.234
696.886
697.012
689.536
696.511
697.718
697.775
697.782
697.752
696.685
693.633
695.698
695.39
692.083
691.66
692.182
682.088
683.817
684.32
677.278
697.624
694.196
692.847
695.255
694.512
697.467
687.392
687.715
695.209
696
697.778
697.946
697.946
697.941
675.984
676.898
693.211
692.746
621.153
682.509
678.581
678.546
677.646
678.183
683.629
565.965
693.144
694.832
697.948
697.948
697.948
697.009
696.927
697.528
697.142
697.457
697.664
697.37
697.422
693.433
695.143
692.536
692.756
693.163
692.665
695.329
692.347
692.31
690.409
687.34
687.324
687.421
687.558
689.697
697.524
697.76
697.769
697.73
697.752
697.469
695.787
697.283
696.453
696.168
697.285
697.634
697.636
692.884
693.075
694.435
692.461
697.685
697.678
697.136
697.629
697.628
697.265
697.181
697.65
697.646
693.271
694.335
693.786
694.883
694.658
693.243
679.351
679.788
678.442
678.489
691.645
685.227
684.558
688.217
688.132
692.951
689.278
690.183
687.602
688.3
692.274
697.942
697.939
697.944
697.937
697.946
697.948
697.948
697.944
697.945
697.942
689.026
693.876
693.515
694.713
694.295
689.501
690.838
692.13
691.407
693.184
692.776
690.341
697.945
697.947
697.946
697.88
697.827
697.937
697.926
663.803
672.525
665.785
665.508
675.442
675.48
688.055
688.793
681.429
664.489
663.375
678.73
667.854
667.548
667.418
683.765
670.592
667.072
692.447
693.121
695.517
690.986
690.995
690.951
690.858
694.357
691.329
691.708
685.615
676.667
677.114
676.863
676.503
686.288
697.931
697.935
697.916
697.847
697.892
697.924
696.861
697.55
697.163
697.089
697.238
697.306
697.08
697.164
693.872
694.714
692.921
692.921
692.805
692.866
696.85
694.839
695.003
692.361
692.63
695.84
692.793
693.711
693.151
692.521
694.535
694.212
695.078
692.532
692.602
693.151
692.763
694.867
696.149
694.192
694.534
693.034
693.649
695.904
692.758
692.081
695.364
695.075
686.751
687.003
694.268
696.569
696.429
693.997
695.814
697.143
696.798
690.642
689.983
694.594
694.675
696.468
692.453
691.506
697.313
697.504
697.822
697.62
697.073
696.293
697.025
697.787
697.87
697.888
697.787
697.822
697.642
697.423
697.613
697.891
697.825
697.787
697.896
697.841
697.906
697.739
697.752
697.66
697.776
687.922
686.842
692.128
685.121
685.909
683.584
688.781
682.049
681.362
684.815
684.53
693.812
689.907
690.435
689.311
689.513
693.765
696.099
694.02
694.427
690.568
692.971
695.616
687.263
686.622
694.063
687.184
687.428
686.839
687.018
694.073
693.94
689.075
689.197
687.816
688.364
693.976
696.18
696.708
681.385
670.63
672.086
667.563
668.936
681.759
672.358
672.523
672.267
675.983
684.251
661.778
662.643
665.608
662.657
685.27
682.525
665.626
666.467
664.076
665.029
682.833
677.465
676.913
680.34
679.204
670.1
669.369
674.012
673.613
692.281
692.026
697.247
697.629
697.629
697.642
697.638
697.203
664.88
683.386
684.992
671.843
662.369
679.592
681.465
663.246
662.095
691.259
677.562
676.962
689.197
673.323
669.69
676.251
675.203
689.973
666.297
664.659
671.827
673.771
663.747
664.352
668.303
694.671
696.372
696.188
696.65
696.518
694.889
692.93
693.27
693.839
693.126
693.204
693.273
692.867
695.348
695.096
695.942
695.646
693.298
670.617
680.486
681.527
678.597
679.557
670.404
676.64
685.804
687.093
682.789
684.289
674.04
674.296
666.871
667.844
667.048
666.814
670.331
675.803
677.451
670.017
673.063
670.029
696.162
695.959
694.135
691.592
692.03
680.737
682.236
689.158
680.457
678.174
683.736
682.519
690.039
678.16
678.392
687.865
687.803
697.948
697.948
697.948
697.948
697.948
697.948
697.948
697.948
697.948
697.948
697.948
697.948
697.948
697.948
697.948
697.948
697.948
697.948
697.948
697.948
697.948
697.948
697.948
697.948
697.948
697.948
697.948
697.948
697.948
697.948
697.948
697.948
697.948
697.948
697.948
697.948
697.948
697.948
697.948
697.948
697.948
697.948
697.948
697.948
697.948
697.948
697.948
697.948
697.948
697.948
697.948
697.948
697.948
697.948
697.948
697.948
697.948
697.948
697.948
697.948
697.948
697.948
697.948
697.948
697.948
697.948
697.948
697.948
697.948
697.948
697.948
697.948
697.948
697.948
697.948
697.948
697.948
697.948
697.948
697.948
697.948
697.948
697.948
697.948
697.948
697.948
697.948
697.948
697.948
697.948
697.948
697.948
697.948
697.948
697.948
697.948
697.948
697.948
697.948
697.948
697.948
697.948
697.948
697.948
697.948
697.948
697.948
697.948
697.948
697.948
697.948
697.948
697.948
697.948
697.948
697.948
697.948
697.948
697.948
697.948
697.948
697.948
697.948
697.948
697.948
697.948
697.948
697.948
697.948
697.948
697.948
697.948
697.948
697.948
697.948
697.948
697.948
697.948
618.535
696.292
696.56
697.948
697.948
697.948
697.948
697.948
697.948
697.948
697.948
697.948
697.948
697.948
697.948
697.948
679.513
679.241
678.379
697.948
697.948
697.948
697.948
697.948
697.948
697.948
697.948
697.948
697.948
697.948
697.877
688.216
679.614
688.642
697.946
697.948
697.948
697.948
697.948
697.948
697.948
697.948
697.948
697.948
697.948
697.948
697.948
697.948
697.948
697.948
697.948
697.948
697.946
697.946
697.948
697.948
697.948
697.948
697.948
697.948
697.948
697.946
697.946
697.945
697.945
697.948
697.948
697.948
697.948
697.948
697.947
697.948
697.946
697.946
697.948
697.948
697.948
697.948
697.948
697.948
697.948
697.948
697.948
697.948
620.108
689.011
688.868
673.75
673.761
566.939
697.948
697.948
697.948
697.948
697.948
697.948
697.948
697.948
697.948
697.948
697.948
697.948
697.948
697.948
697.948
697.948
697.948
697.948
697.948
697.948
697.948
697.948
697.948
697.948
697.948
697.948
697.948
697.948
697.948
697.948
697.947
697.941
697.948
697.948
697.948
697.948
697.948
697.948
697.948
697.948
697.948
697.948
697.948
697.948
697.948
697.948
697.948
697.948
697.948
697.948
697.948
697.948
697.948
697.948
697.948
697.948
697.882
697.927
697.925
697.942
697.94
697.916
697.813
697.74
697.861
697.948
697.948
697.948
697.948
697.948
697.948
697.948
697.948
697.948
697.948
697.948
697.948
697.948
697.948
697.948
697.948
697.948
697.948
697.948
697.948
697.948
697.851
697.917
697.918
697.91
697.911
697.833
697.948
697.948
697.948
697.948
697.948
697.948
697.948
697.948
697.948
697.948
697.948
697.948
697.948
697.948
697.948
697.948
697.948
697.948
697.948
697.948
697.948
697.913
697.947
697.948
697.932
697.933
697.902
697.19
695.573
695.856
697.948
697.948
697.948
697.948
697.948
697.948
697.948
697.948
697.948
697.912
697.578
697.703
697.706
697.737
697.891
697.948
697.948
697.948
697.948
697.948
697.948
697.948
697.948
697.948
697.946
697.937
697.939
697.918
697.923
697.942
697.948
697.948
697.948
663.621
697.945
697.945
697.613
697.653
639.925
697.932
697.929
653.287
697.948
697.948
697.948
697.948
697.948
697.948
697.936
697.946
697.944
697.948
697.948
697.946
697.948
697.948
697.948
697.946
697.905
697.94
697.948
697.948
697.948
697.945
697.947
697.948
697.903
697.853
697.841
697.947
697.946
697.947
697.948
697.948
697.948
697.948
697.948
697.948
697.945
697.946
697.938
697.832
697.911
697.91
697.922
697.919
697.857
697.948
697.948
697.948
697.701
697.392
697.446
697.073
697.066
697.592
697.479
697.499
697.74
697.947
697.947
697.948
697.7
697.823
697.835
697.896
697.941
697.943
697.842
697.848
697.739
697.948
697.948
697.948
697.89
697.929
697.931
697.92
697.921
697.866
697.948
697.948
697.948
697.749
697.419
697.385
697.736
697.718
697.858
697.603
697.092
697.082
697.354
697.326
697.714
697.945
697.945
697.948
697.82
697.81
697.468
697.948
697.945
697.945
697.896
697.57
697.429
697.842
697.829
697.918
697.875
697.769
697.753
697.376
697.179
697.876
697.862
697.628
697.671
696.139
696.373
697.45
697.947
697.947
697.948
697.878
697.93
697.928
697.939
697.938
697.923
697.535
697.837
697.829
697.926
697.924
697.793
697.948
697.946
697.947
697.941
697.917
697.912
697.933
697.931
697.944
697.927
697.864
697.854
697.908
697.902
697.937
697.939
697.906
697.913
697.735
697.809
697.926
697.931
697.941
697.94
697.948
697.947
697.937
697.948
697.948
697.948
697.948
697.84
697.798
697.821
697.835
697.948
697.946
697.937
697.935
697.947
697.881
697.893
697.948
697.948
697.948
697.948
697.948
697.948
697.948
697.948
697.948
697.948
697.948
697.948
697.948
697.948
697.948
697.948
697.948
697.948
697.948
697.948
697.948
697.942
697.948
697.948
697.948
697.948
697.942
697.123
696.149
696.357
694.436
694.855
696.45
697.948
697.948
697.948
697.948
697.948
697.948
697.912
697.932
697.943
697.948
697.948
697.948
697.948
697.948
697.948
697.948
697.948
697.948
697.933
697.948
697.948
697.948
697.948
697.931
697.948
697.948
697.948
696.001
693.429
692.988
695.365
695.074
696.785
695.788
693.583
693.998
697.948
697.948
697.948
697.944
697.948
697.948
697.948
697.948
697.945
697.105
695.876
695.635
696.817
696.695
697.432
697.947
697.948
697.948
697.948
697.948
697.947
697.948
697.948
697.948
697.948
697.948
697.948
697.948
697.948
697.948
697.948
697.948
697.948
697.948
697.948
697.948
697.948
697.948
697.948
697.948
697.948
697.948
697.948
697.947
697.948
697.948
697.948
697.948
697.946
697.947
697.944
697.948
697.948
697.948
697.315
697.522
697.905
697.918
697.844
697.858
697.652
697.262
697.338
696.541
696.697
697.381
697.428
697.828
697.807
697.862
697.847
697.488
697.943
697.927
697.93
697.805
697.885
697.943
697.914
697.488
697.755
697.519
697.804
697.743
697.945
697.941
697.923
697.948
697.948
697.948
697.921
697.913
697.933
697.942
697.932
697.927
697.067
697.08
697.61
697.594
697.057
697.06
697.624
697.652
697.812
697.783
697.58
697.601
697.654
697.663
697.306
697.943
697.931
697.929
697.936
697.934
697.944
697.94
697.924
697.923
697.928
697.926
697.941
697.297
697.645
697.649
697.905
697.913
697.87
697.948
697.946
697.945
697.947
697.946
697.948
697.946
697.94
697.938
697.943
697.942
697.946
697.789
697.882
697.894
697.582
697.561
697.799
697.824
697.623
697.603
697.176
697.16
697.636
697.664
697.213
697.194
697.716
697.707
697.136
697.939
697.923
697.924
697.922
697.922
697.939
697.941
697.927
697.928
697.925
697.926
697.94
697.183
697.737
697.726
697.939
697.921
697.92
697.922
697.921
697.939
697.939
697.921
697.921
697.92
697.92
697.938
697.778
697.611
697.901
685.556
692.521
693.049
687.818
688.584
677.42
697.915
697.814
697.797
697.868
697.092
696.795
697.258
697.341
697.779
697.687
697.038
697.156
697.883
697.875
697.661
697.942
697.932
697.933
697.93
697.931
697.942
697.944
697.936
697.937
697.934
697.935
697.943
697.744
697.894
697.889
693.439
688.242
687.523
692.456
691.812
695.218
697.882
697.873
697.93
691.981
695.645
695.891
693.485
693.901
687.961
694.696
697.472
697.534
697.323
697.402
694.317
697.935
697.896
697.889
688.055
677.957
676.851
686.676
685.577
691.949
697.89
697.899
697.937
696.129
697.073
696.957
697.568
697.515
696.97
696.819
696.664
695.317
697.929
697.868
697.88
697.595
696.004
695.46
696.539
696.17
697.629
697.559
697.032
696.93
697.701
696.197
696.616
697.404
697.464
697.738
697.948
697.948
697.948
697.948
697.948
697.948
697.948
697.948
697.948
697.948
697.948
697.948
694.083
693.934
649.668
697.928
697.698
697.706
697.792
697.698
697.929
697.946
697.948
697.948
697.948
697.948
697.946
697.948
697.948
697.948
673.268
665.913
622.844
697.555
696.263
695.82
696.384
696.32
697.573
697.601
692.287
691.204
696.58
696.983
697.743
564.412
635.199
653.594
697.948
697.948
697.948
697.948
697.948
697.948
697.948
697.948
697.948
697.948
697.948
697.948
697.948
697.948
697.948
697.948
697.948
697.948
697.933
697.93
697.888
697.947
697.943
697.944
697.942
697.943
697.947
697.837
697.69
697.663
697.914
697.915
697.846
697.945
697.938
697.937
697.939
697.938
697.945
697.945
697.936
697.936
697.937
697.937
697.945
697.835
697.911
697.912
695.161
695.341
697.1
697.933
697.935
697.945
697.788
697.886
697.875
697.903
697.895
697.808
697.945
697.883
697.83
697.88
697.885
697.945
663.656
696.613
696.18
697.948
697.948
697.948
697.948
697.948
697.948
697.948
697.948
697.948
697.868
697.86
697.909
697.948
697.948
697.947
697.948
697.948
697.948
697.948
697.948
697.948
697.948
697.948
697.947
697.948
697.948
697.948
697.942
697.947
697.947
697.913
697.912
697.834
697.945
697.937
697.938
697.936
697.937
697.945
697.946
697.94
697.941
697.938
697.939
697.946
697.848
697.917
697.915
697.214
697.306
697.679
694.013
696.361
696.04
696.876
696.701
695.242
692.853
695.807
695.826
695.784
695.794
692.876
697.591
697.061
697.059
696.017
696.981
696.949
697.008
696.997
696.022
697.748
697.514
697.529
697.752
697.798
697.633
697.908
697.897
697.881
697.879
697.807
697.805
697.813
697.81
697.881
697.946
697.94
697.939
697.941
697.94
697.946
697.871
697.923
697.924
697.485
697.453
697.76
693.462
696.591
696.691
696.372
696.48
692.964
697.115
697.103
697.607
692.797
695.884
695.902
695.848
695.868
692.863
692.02
696.212
696.283
696.111
696.157
691.922
697.704
697.301
697.278
697.889
697.827
697.832
697.82
697.824
697.887
697.877
697.883
697.915
697.427
697.797
697.783
697.874
697.799
697.799
697.802
697.801
697.875
697.881
697.813
697.816
697.808
697.81
697.88
697.527
697.58
697.849
695.631
696.92
696.784
697.161
697.049
695.918
697.511
696.543
696.674
697.934
697.932
697.907
697.945
697.94
697.941
697.938
697.939
697.945
697.946
697.943
697.943
697.941
697.942
697.946
697.919
697.937
697.935
697.924
697.92
697.942
696.571
697.674
697.71
697.587
697.633
696.416
697.453
697.79
697.81
697.74
697.767
697.393
697.944
697.929
697.927
693.051
687.487
686.963
688.611
688.019
693.365
697.939
697.938
697.946
697.641
697.856
697.868
697.827
697.843
697.602
686.419
685.843
692.034
697.948
697.947
697.946
695.709
695.93
697.016
696.626
695.207
695.479
697.947
697.948
697.948
697.948
697.948
697.948
697.946
697.941
697.945
694.15
693.808
696.194
682.232
689.407
689.964
685.559
691.644
692.261
690.502
691.055
684.539
696.658
694.775
694.468
696.263
696.084
697.188
689.795
693.81
694.166
692.855
693.379
689.026
697.946
697.943
697.941
697.947
697.945
697.947
697.936
697.919
697.911
697.938
697.927
697.94
697.651
697.64
697.799
696.797
695.416
695.731
694.808
695.095
696.648
697.253
696.376
696.54
695.997
696.203
697.163
697.075
697.176
697.614
694.258
696.301
696.098
696.617
696.47
694.619
695.868
695.622
692.626
697.453
696.835
696.962
697.709
697.327
697.414
697.092
697.239
697.657
697.893
697.789
697.846
697.529
697.67
697.856
696.532
694.735
694.825
697.195
695.925
696.748
694.996
695.346
696.928
697.912
697.864
697.666
697.941
697.924
697.937
697.879
697.904
697.935
697.927
697.897
697.88
697.941
697.937
697.944
697.876
697.919
697.929
697.898
697.908
697.851
692.877
695.742
695.734
695.854
695.773
692.9
697.62
697.103
697.144
697.058
697.057
697.592
692.936
695.762
695.775
695.738
695.748
692.906
697.544
697.561
697.773
696
697.033
697.019
697.07
697.05
695.996
697.896
697.841
697.834
697.865
697.851
697.899
697.326
697.678
697.707
697.639
697.643
697.297
697.886
697.82
697.816
697.829
697.824
697.889
694.424
696.886
696.934
696.771
696.833
694.305
697.791
697.538
697.513
692.649
695.97
695.988
695.923
695.947
692.692
697.628
697.144
697.129
697.256
697.234
697.673
692.313
696.059
696.083
696.007
696.032
692.363
697.898
697.845
697.85
697.836
697.84
697.896
697.13
697.699
697.692
697.767
697.751
697.229
697.908
697.865
697.871
697.854
697.86
697.906
697.873
697.798
697.799
697.798
697.798
697.873
697.876
697.803
697.805
697.8
697.801
697.875
696.511
692.867
692.231
693.807
693.382
696.672
695.688
690.061
689.436
691.503
690.754
695.908
691.117
691.856
684.362