/*--------------------------------*- C++ -*----------------------------------*\
| =========                 |                                                 |
| \\      /  F ield         | OpenFOAM: The Open Source CFD Toolbox           |
|  \\    /   O peration     | Version:  5.x                                   |
|   \\  /    A nd           | Web:      www.OpenFOAM.org                      |
|    \\/     M anipulation  |                                                 |
\*---------------------------------------------------------------------------*/
FoamFile
{
    version     2.0;
    format      ascii;
    class       volVectorField;
    location    "100";
    object      U;
}
// * * * * * * * * * * * * * * * * * * * * * * * * * * * * * * * * * * * * * //

dimensions      [0 1 -1 0 0 0 0];

internalField   nonuniform List<vector> 
6584
(
(1.00008 -0.000217121 5.11606e-27)
(1.00006 -0.000475366 2.48271e-25)
(1.00007 -0.000642477 2.2043e-30)
(1.00008 -0.00087123 -4.41611e-25)
(1.00009 -0.00110966 0)
(1.00009 -0.00137222 0)
(1.00008 -0.00163207 0)
(1.00003 -0.00181013 4.54446e-25)
(0.999962 -0.00184179 4.66535e-25)
(0.999842 -0.00156547 0)
(0.999718 -0.00077043 2.30663e-25)
(0.999629 0.000493327 -1.26098e-25)
(0.999646 0.00192392 -1.11945e-26)
(0.999768 0.00306489 2.93458e-26)
(0.999916 0.00362171 1.06981e-26)
(1.00007 0.00359207 8.99356e-25)
(1.00015 0.00321847 8.13222e-25)
(1.00018 0.00270946 6.51213e-26)
(1.00017 0.00217519 5.8429e-25)
(1.00015 0.00168869 4.27437e-25)
(1.00013 0.00128247 0)
(1.00011 0.000919601 0)
(1.00009 0.000663487 6.71384e-25)
(1.00011 0.000298164 4.15028e-25)
(1.00034 -0.000457152 -2.42522e-25)
(1.00028 -0.000959309 -9.49016e-25)
(1.00034 -0.00127016 -1.26564e-24)
(1.00037 -0.00173256 0)
(1.00042 -0.00221288 -1.65452e-25)
(1.00042 -0.00275652 -1.39772e-24)
(1.00038 -0.00331976 -8.5078e-25)
(1.00017 -0.00373273 1.43806e-24)
(0.999871 -0.00386621 -4.63934e-26)
(0.999079 -0.00336308 -3.57645e-25)
(0.998117 -0.00174567 -1.31111e-28)
(0.997484 0.000915944 0)
(0.997598 0.00397102 4.56615e-25)
(0.998446 0.00637408 3.3274e-25)
(0.999595 0.00752149 -1.9647e-24)
(1.0004 0.00740515 -5.21626e-25)
(1.00073 0.00654718 -1.25484e-24)
(1.00087 0.0054491 -1.63973e-24)
(1.00083 0.00433169 -4.34644e-24)
(1.00073 0.00333891 -3.61976e-24)
(1.00061 0.00253108 -2.41507e-25)
(1.00053 0.00180469 -1.04727e-25)
(1.00042 0.00132982 0)
(1.00047 0.000623626 3.59729e-25)
(1.00074 -0.000704726 -6.13481e-25)
(1.0007 -0.00142498 0)
(1.00082 -0.00185487 -2.44208e-25)
(1.00091 -0.00255159 -1.64904e-24)
(1.00104 -0.00328497 -2.47539e-24)
(1.00109 -0.00415779 0)
(1.00102 -0.00514802 0)
(1.00055 -0.00592294 -3.8563e-25)
(0.999662 -0.00675159 -1.03266e-25)
(0.998277 -0.00482517 1.01791e-25)
(0.996686 -0.00285072 -1.81287e-25)
(0.995428 0.000628187 -2.60663e-25)
(0.995506 0.00491556 0)
(0.997027 0.00838544 0)
(0.999041 0.0101074 4.18588e-26)
(1.001 0.0119899 -2.26916e-24)
(1.00195 0.0101201 0)
(1.00223 0.00823169 -6.91746e-25)
(1.00209 0.00640721 0)
(1.00181 0.00486738 -5.4436e-25)
(1.00149 0.00366625 -1.58657e-24)
(1.00126 0.00259132 -9.74906e-25)
(1.00102 0.0019434 0)
(1.00103 0.000946716 2.81042e-25)
(1.00124 -0.000939263 -3.77613e-25)
(1.00125 -0.00183787 0)
(1.00148 -0.00236258 -3.28113e-25)
(1.00168 -0.00328078 0)
(1.00196 -0.00426955 0)
(1.00216 -0.00553315 0)
(1.00214 -0.00710463 -5.61819e-25)
(1.00152 -0.00864286 4.46878e-24)
(0.999835 -0.0105584 -2.68535e-25)
(0.997171 -0.00862235 3.20999e-25)
(0.993746 -0.00635371 -1.88055e-25)
(0.990251 -0.000817564 5.55385e-26)
(0.989802 0.00731363 4.97202e-26)
(0.993389 0.0138624 0)
(0.998055 0.0161234 -3.29583e-24)
(1.00149 0.0150775 0)
(1.00432 0.0139969 0)
(1.00444 0.0110226 5.55542e-24)
(1.004 0.00829984 3.75379e-24)
(1.00333 0.00617062 -1.29318e-24)
(1.00271 0.00460154 -9.28669e-25)
(1.00224 0.00321892 0)
(1.00181 0.00244451 3.97344e-25)
(1.0017 0.00123203 3.37312e-25)
(1.0018 -0.00114033 -1.47721e-25)
(1.0019 -0.00216291 -1.0104e-26)
(1.00226 -0.00274741 -4.75619e-26)
(1.00265 -0.0038553 -7.11814e-26)
(1.00318 -0.00506375 1.71363e-25)
(1.00374 -0.00674354 3.59728e-24)
(1.00401 -0.00901582 -5.54163e-24)
(1.00381 -0.0115346 5.17649e-24)
(1.00041 -0.0125175 2.75025e-25)
(0.99697 -0.0140111 1.50669e-24)
(0.990312 -0.012731 -1.91371e-25)
(0.981014 -0.00465017 2.92223e-25)
(0.978771 0.0109364 4.59471e-27)
(0.987867 0.0229404 4.51049e-24)
(0.998046 0.0249872 0)
(1.00404 0.0215631 3.32998e-24)
(1.00618 0.0166226 -8.11961e-25)
(1.0076 0.013036 -4.87312e-24)
(1.00659 0.00974863 -2.81078e-24)
(1.00528 0.00705604 9.7716e-25)
(1.00421 0.00522668 -7.5814e-26)
(1.00339 0.00361078 -4.71178e-26)
(1.00273 0.00277533 4.59148e-25)
(1.00243 0.00144639 -1.82473e-25)
(1.00239 -0.00128788 7.4044e-26)
(1.00262 -0.00236463 -1.93803e-25)
(1.00315 -0.00295615 -1.25183e-26)
(1.0038 -0.00418427 0)
(1.00466 -0.00549501 -7.44083e-25)
(1.00579 -0.0075239 -2.78609e-25)
(1.00664 -0.00997949 -2.18612e-24)
(1.00554 -0.0126355 -5.4167e-25)
(1.00358 -0.0166669 2.15022e-24)
(0.999838 -0.0219376 8.4405e-24)
(0.987327 -0.0224149 1.79882e-24)
(0.969694 -0.0146792 2.79681e-28)
(0.960776 0.0134588 -6.2488e-26)
(0.980441 0.0359308 7.8737e-25)
(1.0016 0.0385225 -7.47573e-24)
(1.0099 0.0292178 0)
(1.01136 0.0211003 4.14399e-28)
(1.01177 0.0143013 1.15973e-24)
(1.00974 0.0105066 3.42749e-25)
(1.00755 0.00735655 1.00774e-24)
(1.0059 0.00542483 -4.22559e-25)
(1.00464 0.00369393 0)
(1.0037 0.00288305 -2.43615e-25)
(1.00315 0.00155854 -3.62083e-25)
(1.00296 -0.00136551 1.13836e-27)
(1.00336 -0.00241667 -8.8137e-26)
(1.00405 -0.00294873 1.1292e-25)
(1.00501 -0.00419796 6.46457e-28)
(1.00628 -0.00544055 1.02456e-26)
(1.00811 -0.00765299 -1.20192e-24)
(1.00988 -0.0100711 -1.63509e-24)
(1.00947 -0.0138284 -7.47963e-26)
(1.00994 -0.0200743 -3.22477e-25)
(1.00831 -0.0300123 1.27082e-24)
(0.993806 -0.0406236 0)
(0.955421 -0.0440603 1.14594e-24)
(0.908143 0.017733 4.41726e-26)
(0.975678 0.0741265 3.26702e-24)
(1.01024 0.0540541 -7.29437e-26)
(1.02105 0.0357016 0)
(1.01912 0.0234915 2.26248e-24)
(1.01681 0.013955 2.36718e-25)
(1.01326 0.0101661 2.10332e-25)
(1.00997 0.00687838 -6.71337e-26)
(1.00763 0.00508998 -9.05938e-25)
(1.00585 0.00341231 0)
(1.00463 0.00272871 -2.30598e-25)
(1.00379 0.00154344 -2.38421e-25)
(1.00347 -0.00136463 -9.52869e-26)
(1.00403 -0.00231094 8.22939e-26)
(1.00488 -0.0027136 4.39048e-26)
(1.00614 -0.00386385 3.70962e-26)
(1.00782 -0.00483504 -3.98898e-26)
(1.01036 -0.00690309 5.57103e-25)
(1.01325 -0.00875539 1.3017e-28)
(1.01439 -0.0130133 -2.13075e-25)
(1.0185 -0.0199227 2.11339e-28)
(1.02344 -0.0322035 -3.06828e-24)
(1.01979 -0.0551199 -1.23973e-25)
(0.997882 -0.110287 5.24013e-26)
(1.01434 0.132454 5.88562e-25)
(1.03881 0.0670273 -5.42515e-25)
(1.03766 0.0363126 1.16358e-24)
(1.0289 0.0220346 -1.97117e-25)
(1.02192 0.0113931 6.73545e-25)
(1.01662 0.00843897 6.77206e-25)
(1.0122 0.00550853 5.4454e-25)
(1.00917 0.00417144 -3.2205e-25)
(1.0069 0.00274908 0)
(1.0054 0.00230074 0)
(1.00428 0.00138883 -1.73368e-30)
(1.00388 -0.00128817 -1.88912e-26)
(1.00458 -0.00206451 -4.52473e-27)
(1.00555 -0.00228127 -1.67923e-26)
(1.00704 -0.00321773 6.59148e-26)
(1.00903 -0.0037393 7.06978e-26)
(1.01207 -0.00530636 4.08409e-25)
(1.01588 -0.00609222 1.12911e-24)
(1.01894 -0.0097913 0)
(1.02658 -0.0147256 0)
(1.03887 -0.023217 0)
(1.05415 -0.0434176 -1.03843e-25)
(1.08926 -0.0890932 1.47743e-26)
(1.11546 0.115835 0)
(1.07698 0.0529561 0)
(1.05407 0.0264258 0)
(1.03801 0.0154831 2.57188e-25)
(1.02588 0.00668925 0)
(1.01911 0.00537037 -7.86094e-25)
(1.01385 0.00333581 -4.78555e-25)
(1.01029 0.00272759 -4.66016e-26)
(1.00762 0.00175188 0)
(1.00593 0.00162697 1.58473e-26)
(1.00455 0.00110011 3.86508e-26)
(1.00416 -0.00115135 4.29333e-27)
(1.00497 -0.00172062 -5.89141e-27)
(1.00598 -0.00172766 6.55182e-27)
(1.00758 -0.00237967 3.2859e-26)
(1.0097 -0.00237589 -8.09358e-26)
(1.01287 -0.00322184 -5.99708e-27)
(1.01704 -0.00279241 -1.05322e-25)
(1.02153 -0.00494867 -7.01974e-27)
(1.03064 -0.00608996 0)
(1.04566 -0.00705791 -2.68801e-25)
(1.07079 -0.0129321 1.07499e-30)
(1.12091 -0.0214801 -3.53718e-26)
(1.15916 0.0330056 -8.7526e-26)
(1.09876 0.0164697 -3.20684e-25)
(1.06236 0.00837837 -2.48509e-24)
(1.04306 0.00510418 0)
(1.02758 0.000827697 -1.70004e-24)
(1.02014 0.00145897 0)
(1.01459 0.000683713 -2.16461e-26)
(1.01077 0.000943757 0)
(1.0079 0.000538432 -3.16209e-26)
(1.00612 0.000776991 5.27595e-27)
(1.00455 0.000702724 -3.17953e-27)
(1.00432 -0.000978741 0)
(1.00518 -0.00133918 -3.6128e-26)
(1.00616 -0.00115422 -3.84533e-26)
(1.00773 -0.00151767 2.41552e-26)
(1.00978 -0.00104722 -5.44459e-27)
(1.01269 -0.00117806 5.63064e-26)
(1.01656 0.000204563 3.24501e-25)
(1.02148 -8.00079e-05 1.63536e-25)
(1.02947 0.00239935 0)
(1.04167 0.00808012 1.32135e-24)
(1.06502 0.0158371 3.96688e-25)
(1.09874 0.0394244 -1.72784e-26)
(1.13738 -0.0479323 -3.77143e-26)
(1.09455 -0.0217752 5.67595e-25)
(1.05959 -0.0104916 8.50585e-26)
(1.04245 -0.00583437 1.46245e-24)
(1.02665 -0.00479722 7.3335e-24)
(1.01954 -0.00251103 4.07227e-24)
(1.01431 -0.00198869 -2.74329e-24)
(1.01057 -0.000920363 -1.91331e-24)
(1.0077 -0.000728981 5.9467e-26)
(1.00596 -0.000151382 2.5071e-26)
(1.00429 0.000237622 -7.39513e-26)
(1.00436 -0.000797816 2.94317e-27)
(1.00522 -0.00098043 -2.78413e-27)
(1.00611 -0.000656342 1.69359e-28)
(1.00756 -0.00078768 2.15525e-26)
(1.00936 -1.2265e-05 -3.39719e-34)
(1.01177 0.000370686 1.42102e-25)
(1.0149 0.00220597 5.2022e-25)
(1.0193 0.00340026 1.89261e-25)
(1.02462 0.00785002 0)
(1.03106 0.0164775 -3.68318e-25)
(1.04598 0.0303523 -8.76783e-26)
(1.04973 0.0649378 -2.20246e-26)
(1.07782 -0.0947735 1.0789e-26)
(1.07168 -0.0458799 0)
(1.04871 -0.0238105 -2.55642e-24)
(1.03713 -0.0142458 1.97607e-24)
(1.02363 -0.00907271 1.09883e-23)
(1.01761 -0.00582038 7.05523e-24)
(1.01312 -0.00426624 0)
(1.00974 -0.0026099 -1.74035e-24)
(1.00706 -0.00189641 -1.03242e-24)
(1.00546 -0.00105561 5.34627e-26)
(1.00379 -0.000248965 -7.5952e-26)
(1.00433 -0.000632165 0)
(1.00514 -0.000688984 4.76494e-27)
(1.00592 -0.000295034 -5.89254e-27)
(1.00718 -0.000284057 -1.65066e-26)
(1.00868 0.000604108 0)
(1.01054 0.0012128 -5.51044e-26)
(1.01277 0.0030311 8.26565e-26)
(1.01623 0.00489743 -3.09157e-26)
(1.01882 0.00938132 -4.66258e-26)
(1.01995 0.0170079 1.92453e-25)
(1.02567 0.0293669 3.77002e-26)
(0.99807 0.0588993 0)
(1.00692 -0.0985121 2.05378e-26)
(1.04326 -0.051469 -3.24555e-26)
(1.03525 -0.0290056 1.31778e-24)
(1.02958 -0.0186341 1.23327e-25)
(1.01953 -0.0115501 5.1507e-24)
(1.01493 -0.0080561 5.14452e-24)
(1.01135 -0.00590134 0)
(1.00847 -0.00394869 -2.09009e-26)
(1.00609 -0.00284936 3.73561e-25)
(1.00469 -0.00185565 2.1993e-25)
(1.00309 -0.000715166 7.53194e-27)
(1.00426 -0.000497322 0)
(1.005 -0.00048693 0)
(1.00567 -8.88114e-05 0)
(1.00674 -2.76859e-05 0)
(1.00796 0.000812152 -1.44779e-26)
(1.00936 0.0013825 -1.26116e-26)
(1.01088 0.00286004 -1.56932e-25)
(1.01305 0.00474197 2.59865e-24)
(1.01438 0.0079096 0)
(1.01288 0.0120665 0)
(1.01311 0.0183904 5.70099e-25)
(0.958831 0.02835 2.20031e-24)
(0.692519 -0.0264637 -6.40643e-26)
(0.958028 -0.0611387 -4.17029e-24)
(1.02147 -0.043044 -6.63423e-25)
(1.02403 -0.0275634 -5.1868e-27)
(1.02223 -0.0193548 -2.84324e-26)
(1.01539 -0.0124151 -1.87424e-24)
(1.01211 -0.00918222 1.78278e-25)
(1.00933 -0.00685061 2.93414e-27)
(1.00697 -0.00486467 -1.93787e-24)
(1.00494 -0.00353888 0)
(1.00374 -0.00250313 8.38191e-26)
(1.00227 -0.00113003 -1.63939e-25)
(1.00419 -0.000399751 0)
(1.00485 -0.000374958 -1.88421e-26)
(1.00542 -2.05941e-05 2.46709e-27)
(1.00634 2.00521e-05 0)
(1.00735 0.000719217 0)
(1.00847 0.00110233 -8.99245e-25)
(1.00958 0.00218093 1.62323e-25)
(1.01143 0.00315358 3.33724e-24)
(1.01215 0.005106 3.6708e-24)
(1.01071 0.00614591 2.28509e-24)
(1.0094 0.00735861 0)
(0.949535 0.00526813 -2.31959e-25)
(0.86948 -0.021466 4.22271e-25)
(0.947502 -0.0359865 -3.91593e-25)
(1.01062 -0.0281063 3.93683e-25)
(1.01705 -0.0230089 -3.87588e-25)
(1.01442 -0.015923 5.55411e-25)
(1.01184 -0.0120783 -7.44122e-26)
(1.00951 -0.00939455 -3.82749e-27)
(1.00733 -0.00721331 -6.1012e-27)
(1.00544 -0.0053855 0)
(1.00371 -0.00397006 -9.08169e-25)
(1.00271 -0.00298011 -9.99054e-25)
(1.00139 -0.0014791 -2.33264e-25)
(1.00413 -0.000338727 1.00174e-27)
(1.00473 -0.00033966 -2.17599e-26)
(1.00523 -5.58028e-05 3.35593e-26)
(1.00605 -7.80213e-05 4.95444e-30)
(1.00694 0.000441995 -1.51985e-25)
(1.00791 0.000595558 -6.30295e-25)
(1.00888 0.00121954 -1.86147e-24)
(1.0107 0.00163846 -2.61155e-24)
(1.01166 0.00229171 -8.57722e-25)
(1.01146 0.00144804 -1.23109e-25)
(1.0101 -0.000724997 0)
(0.950576 -0.00276904 -6.50489e-26)
(0.893648 -0.0157181 -2.94486e-25)
(0.960529 -0.0227182 -1.66609e-25)
(1.00746 -0.0208463 -1.04161e-25)
(1.0134 -0.0184362 -2.02918e-25)
(1.01142 -0.0139445 -3.08505e-24)
(1.00916 -0.0112639 0)
(1.00736 -0.00907188 -3.01094e-25)
(1.00554 -0.00717558 -1.61894e-26)
(1.00399 -0.00558231 -5.45763e-26)
(1.0025 -0.00417933 1.02417e-25)
(1.00167 -0.00329229 0)
(1.0005 -0.00175226 0)
(1.00411 -0.000309167 -9.78917e-28)
(1.00465 -0.000361472 4.74608e-28)
(1.00512 -0.000156963 1.90788e-26)
(1.00588 -0.000259891 0)
(1.00672 7.95604e-05 -7.02831e-26)
(1.00767 1.92538e-05 0)
(1.00867 0.000246571 -1.24862e-24)
(1.01082 0.000161002 1.59115e-25)
(1.01286 -0.00045476 -2.10284e-26)
(1.01329 -0.00137972 -7.17987e-26)
(1.0111 -0.00303679 2.63528e-25)
(0.947088 -0.00338296 -6.8925e-25)
(0.904523 -0.0125522 -6.495e-25)
(0.960007 -0.0172272 8.42421e-26)
(1.00657 -0.0156232 2.3687e-25)
(1.01159 -0.014799 1.11484e-25)
(1.00929 -0.0119812 -1.47138e-24)
(1.00717 -0.0101198 1.59795e-24)
(1.00564 -0.00843826 0)
(1.00401 -0.006877 6.52632e-25)
(1.00269 -0.00554773 -8.73388e-27)
(1.00138 -0.00422206 1.47832e-25)
(1.00067 -0.00346714 0)
(0.999642 -0.00195624 0)
(1.00413 -0.000304117 9.71241e-28)
(1.00463 -0.000420294 1.67929e-27)
(1.0051 -0.000290847 -1.60841e-26)
(1.00584 -0.00047479 -5.59268e-28)
(1.00668 -0.000287464 0)
(1.0077 -0.000523931 0)
(1.00879 -0.00051401 5.04231e-26)
(1.01145 -0.00104313 -2.02291e-25)
(1.01392 -0.00157702 1.21109e-25)
(1.01632 -0.00434271 -7.7384e-25)
(1.01047 -0.00404981 0)
(0.952249 -0.00444052 6.0032e-25)
(0.911751 -0.0107829 -8.8328e-25)
(0.960309 -0.0148769 1.05184e-24)
(1.00853 -0.0098033 1.52395e-24)
(1.00985 -0.0110738 1.73965e-24)
(1.00815 -0.0100375 1.39581e-24)
(1.00578 -0.00891171 1.38973e-24)
(1.00433 -0.00767035 -1.90163e-25)
(1.00276 -0.00643367 -1.08953e-25)
(1.00158 -0.0053588 -2.94353e-25)
(1.00038 -0.00414775 -1.06222e-24)
(0.99975 -0.00353117 3.95348e-26)
(0.998839 -0.00209806 -3.25304e-26)
(1.0042 -0.000316583 -7.52014e-27)
(1.00467 -0.000499191 2.34429e-27)
(1.00514 -0.000432652 -1.71753e-26)
(1.00589 -0.000689615 -2.55716e-26)
(1.00676 -0.000612417 0)
(1.00789 -0.000989839 0)
(1.00909 -0.00105667 9.70543e-25)
(1.01221 -0.00189649 1.7115e-25)
(1.01512 -0.00216895 -1.62401e-25)
(1.01739 -0.00514075 -1.04595e-24)
(1.00112 -0.00249378 0)
(0.964718 -0.0065423 -2.27877e-24)
(0.917425 -0.00905055 3.40346e-25)
(0.97505 -0.0125129 2.32261e-25)
(1.00811 -0.00793847 2.44788e-25)
(1.00957 -0.00972443 -4.20361e-25)
(1.00758 -0.00845363 -4.40893e-25)
(1.00481 -0.007914 2.53862e-25)
(1.00336 -0.00690191 -6.6484e-26)
(1.00176 -0.0059451 -1.06234e-24)
(1.00064 -0.00508234 -3.14118e-25)
(0.999505 -0.00400128 -1.397e-24)
(0.998925 -0.00351234 0)
(0.998109 -0.00218846 -1.9676e-25)
(1.0043 -0.000340648 -9.36672e-27)
(1.00476 -0.000585996 -8.82092e-27)
(1.00525 -0.000567326 0)
(1.00602 -0.00088779 -1.83953e-26)
(1.00694 -0.000880937 0)
(1.00817 -0.00137298 -7.9763e-25)
(1.00949 -0.00143839 -8.66311e-26)
(1.01297 -0.00250527 9.60975e-26)
(1.01623 -0.00254876 -1.80592e-25)
(1.01796 -0.00554935 -2.09256e-25)
(1.0012 -0.00265011 -3.61892e-25)
(0.96737 -0.00596388 -1.31937e-24)
(0.919705 -0.00812947 5.61168e-25)
(0.974012 -0.0108714 -2.36386e-25)
(1.00739 -0.00651388 -2.19653e-25)
(1.00938 -0.00852086 -4.90531e-26)
(1.00715 -0.00713727 -2.71222e-25)
(1.0041 -0.00707147 -2.09528e-25)
(1.00262 -0.00616826 -5.74895e-25)
(1.00095 -0.00546156 -1.18308e-25)
(0.99986 -0.00476181 -7.56448e-26)
(0.998757 -0.00381517 -4.47003e-25)
(0.9982 -0.00343532 -1.9606e-25)
(0.997459 -0.00223775 -8.87775e-26)
(1.00444 -0.000371899 0)
(1.0049 -0.000672892 -2.27655e-26)
(1.00541 -0.000687159 -1.43624e-26)
(1.00621 -0.00106191 -1.06404e-26)
(1.00718 -0.00109264 9.8542e-26)
(1.00851 -0.00167792 -9.15514e-25)
(1.00994 -0.00170108 0)
(1.01371 -0.00292931 -2.32427e-25)
(1.01726 -0.00278762 0)
(1.01829 -0.00567224 0)
(1.00096 -0.00257284 1.30857e-27)
(0.969953 -0.00543254 -8.82923e-27)
(0.921904 -0.00750824 2.53501e-25)
(0.972853 -0.00973817 -1.70222e-25)
(1.00673 -0.00545005 -1.32982e-25)
(1.00927 -0.00749942 -4.09258e-26)
(1.00684 -0.00604255 4.5979e-26)
(1.00357 -0.00633959 -8.99282e-26)
(1.00205 -0.00548395 -1.53535e-25)
(1.0003 -0.00500346 2.94501e-25)
(0.999216 -0.0044223 -7.91913e-26)
(0.998124 -0.00361061 0)
(0.997572 -0.00331872 2.62775e-30)
(0.996889 -0.00225468 0)
(1.0046 -0.000407407 0)
(1.00506 -0.000755352 -3.09465e-26)
(1.0056 -0.000789322 -1.74672e-26)
(1.00644 -0.00120968 4.11786e-26)
(1.00746 -0.00125343 0)
(1.00887 -0.00191324 5.8455e-26)
(1.01041 -0.00187608 -6.18909e-25)
(1.01443 -0.00321243 -4.61201e-25)
(1.01819 -0.00292114 -1.02854e-26)
(1.01843 -0.00564098 -3.21772e-28)
(1.00045 -0.00237812 4.00766e-25)
(0.972329 -0.00491031 -2.0755e-25)
(0.92389 -0.00705547 3.6734e-25)
(0.971548 -0.00892394 -1.23014e-25)
(1.00605 -0.00464456 1.08075e-25)
(1.00918 -0.00665357 -3.13688e-27)
(1.00663 -0.00513251 -1.10371e-25)
(1.0032 -0.00570467 5.07216e-26)
(1.0016 -0.00485986 2.09344e-25)
(0.999788 -0.0045801 -4.11365e-30)
(0.998686 -0.00408014 -3.90654e-26)
(0.997594 -0.00340077 -2.96032e-25)
(0.997035 -0.00317598 1.49486e-25)
(0.996395 -0.0022462 1.40328e-25)
(1.00479 -0.000445659 -1.8264e-26)
(1.00525 -0.000831365 -3.70701e-26)
(1.00582 -0.000874474 -4.26492e-34)
(1.00669 -0.00133213 9.39744e-26)
(1.00776 -0.00137236 2.14712e-25)
(1.00925 -0.0020901 4.40393e-26)
(1.01089 -0.00198958 -6.30373e-25)
(1.01511 -0.00339512 -3.84417e-25)
(1.019 -0.0029839 2.51191e-25)
(1.01838 -0.00550949 0)
(0.999782 -0.00213819 7.88645e-26)
(0.974588 -0.00441376 -5.86546e-26)
(0.925763 -0.00668773 1.22849e-25)
(0.970132 -0.00831398 -9.66478e-26)
(1.00526 -0.00402294 -1.72895e-31)
(1.00908 -0.0059448 -1.30199e-25)
(1.0065 -0.00436489 -8.97108e-26)
(1.00293 -0.00515063 -1.90745e-26)
(1.00126 -0.00429632 1.13123e-25)
(0.999383 -0.0041933 -1.86481e-25)
(0.998253 -0.00374514 -2.43068e-25)
(0.997155 -0.00319313 -1.26153e-25)
(0.99658 -0.00301678 -1.29381e-25)
(0.995974 -0.00221738 1.23628e-25)
(1.00499 -0.000486314 -1.1573e-34)
(1.00546 -0.000900769 -2.07054e-26)
(1.00606 -0.000945315 2.24786e-26)
(1.00695 -0.00143224 5.02445e-26)
(1.00808 -0.00145945 1.05315e-29)
(1.00961 -0.00222005 0)
(1.01137 -0.00206253 -3.895e-27)
(1.01576 -0.00350687 -3.5571e-25)
(1.01969 -0.00300043 2.1736e-25)
(1.01815 -0.00530543 0)
(0.999005 -0.00187838 -6.51337e-31)
(0.976797 -0.00394159 4.3882e-26)
(0.927618 -0.00636499 -1.13775e-25)
(0.968651 -0.00785026 0)
(1.00437 -0.00353803 2.20148e-26)
(1.00893 -0.00534413 2.88525e-26)
(1.0064 -0.00370581 0)
(1.00274 -0.00466026 2.70635e-26)
(1.00099 -0.00378775 3.78986e-26)
(0.999068 -0.00384 -4.13673e-25)
(0.997899 -0.00342207 -1.01796e-25)
(0.996795 -0.00299084 1.07472e-25)
(0.996198 -0.00284722 -1.27427e-25)
(0.995619 -0.0021716 0)
(1.0052 -0.000530025 2.14098e-26)
(1.00568 -0.000964585 -2.21503e-26)
(1.00631 -0.00100567 0)
(1.00722 -0.00151379 1.91891e-26)
(1.00841 -0.0015242 1.88726e-26)
(1.00998 -0.00231336 2.32222e-26)
(1.01184 -0.00211122 0)
(1.01635 -0.00356855 6.77871e-27)
(1.02025 -0.00298724 1.83475e-25)
(1.01776 -0.0050491 0)
(0.998152 -0.00161247 5.19923e-26)
(0.978976 -0.00348681 2.21101e-26)
(0.929503 -0.00605818 -8.43824e-26)
(0.967137 -0.00749422 1.56821e-26)
(1.00338 -0.00315684 -1.47365e-26)
(1.00872 -0.00483113 -3.86102e-27)
(1.00633 -0.00312987 2.98396e-26)
(1.00262 -0.00421893 -1.10844e-26)
(1.00078 -0.00332691 -7.78833e-28)
(0.998828 -0.00351494 -1.54043e-25)
(0.997612 -0.00311276 5.47788e-26)
(0.996503 -0.00279428 7.39449e-26)
(0.995881 -0.00267112 -1.51619e-26)
(0.995325 -0.00211072 -2.17422e-27)
(1.00542 -0.000578039 -7.89308e-28)
(1.0059 -0.00102453 -2.71719e-26)
(1.00656 -0.00105969 -1.85577e-27)
(1.00749 -0.00158076 0)
(1.00874 -0.00157524 4.53513e-25)
(1.01033 -0.0023788 0)
(1.01231 -0.00214783 -2.78166e-25)
(1.0169 -0.00359414 0)
(1.0207 -0.00295209 1.59212e-25)
(1.01723 -0.00474954 5.80328e-26)
(0.997242 -0.00134958 0)
(0.981111 -0.00304838 1.7919e-26)
(0.931453 -0.00575334 0)
(0.965629 -0.00721978 1.23778e-26)
(1.00228 -0.00285489 -4.12763e-27)
(1.00843 -0.00438876 0)
(1.00627 -0.00261804 0)
(1.00256 -0.00381415 -8.57922e-27)
(1.00062 -0.00290698 1.28828e-26)
(0.99865 -0.00321242 0)
(0.997381 -0.00281701 0)
(0.996271 -0.00260205 4.67481e-26)
(0.99562 -0.00249034 7.06384e-27)
(0.995084 -0.00203544 -4.16924e-26)
(1.00565 -0.000631962 7.01059e-28)
(1.00613 -0.00108265 1.14832e-27)
(1.00682 -0.00111156 0)
(1.00775 -0.00163694 -5.75826e-27)
(1.00907 -0.00161974 2.22933e-25)
(1.01067 -0.00242341 1.08285e-26)
(1.01277 -0.00218127 -2.64199e-25)
(1.0174 -0.00359324 -3.91464e-29)
(1.02101 -0.00290019 0)
(1.01656 -0.00441853 6.96668e-26)
(0.996295 -0.00109493 0)
(0.983188 -0.00262882 0)
(0.933491 -0.00544439 0)
(0.964175 -0.0070021 8.35538e-26)
(1.0011 -0.00261175 6.86874e-26)
(1.00808 -0.00400305 0)
(1.0062 -0.00215672 -4.33156e-27)
(1.00254 -0.0034358 0)
(1.0005 -0.00252169 0)
(0.998525 -0.00292631 0)
(0.997197 -0.00253364 0)
(0.99609 -0.00241202 -2.5573e-26)
(0.995407 -0.00230558 -2.55711e-26)
(0.994892 -0.00194589 1.12228e-31)
(1.00587 -0.00069348 0)
(1.00635 -0.00114098 1.17631e-26)
(1.00707 -0.00116502 -1.3827e-26)
(1.00801 -0.00168567 2.51154e-26)
(1.00939 -0.00166345 2.15859e-25)
(1.011 -0.00245263 4.31992e-25)
(1.01321 -0.00221808 0)
(1.01783 -0.00357237 0)
(1.02119 -0.00283492 1.63669e-26)
(1.01578 -0.0040646 -1.88461e-26)
(0.995337 -0.00085228 -3.08968e-33)
(0.98522 -0.00222733 1.0259e-25)
(0.93562 -0.00511527 5.54715e-26)
(0.962786 -0.00682022 6.9833e-26)
(0.999832 -0.00241723 1.7904e-27)
(1.00763 -0.00367139 0)
(1.00612 -0.00173767 -6.83392e-26)
(1.00256 -0.00307674 -6.24957e-26)
(1.00042 -0.00216496 0)
(0.998445 -0.00265137 -5.9177e-26)
(0.997053 -0.00226093 -6.84934e-41)
(0.995954 -0.00222148 7.08658e-26)
(0.995237 -0.00211691 4.52477e-26)
(0.994741 -0.00184147 3.55922e-26)
(1.00609 -0.000764027 -2.35901e-26)
(1.00656 -0.00120125 1.09098e-26)
(1.00732 -0.00122295 -1.21212e-26)
(1.00827 -0.00172971 4.88827e-26)
(1.00971 -0.00171069 2.09827e-25)
(1.01131 -0.0024705 8.14888e-25)
(1.01364 -0.00226247 0)
(1.01819 -0.00353487 0)
(1.02124 -0.00275768 1.48074e-26)
(1.0149 -0.00369248 0)
(0.994384 -0.000622234 0)
(0.987194 -0.00184327 0)
(0.937854 -0.0047627 0)
(0.961484 -0.00666513 -5.80108e-26)
(0.998487 -0.00226379 -4.25874e-26)
(1.0071 -0.00338684 -5.54552e-26)
(1.006 -0.00135536 -1.04915e-25)
(1.00261 -0.00273174 -5.07263e-26)
(1.00037 -0.00183288 0)
(0.998404 -0.00238346 -1.86975e-26)
(0.996944 -0.00199734 0)
(0.995855 -0.00202803 0)
(0.995102 -0.001924 1.95756e-26)
(0.994627 -0.00172158 2.58788e-27)
(1.0063 -0.000844499 -2.25795e-26)
(1.00677 -0.00126472 -1.25076e-26)
(1.00756 -0.00128742 -2.5914e-28)
(1.00851 -0.00177094 2.41041e-27)
(1.01002 -0.00176398 -5.98829e-34)
(1.01162 -0.00247972 3.84468e-25)
(1.01406 -0.0023155 0)
(1.01848 -0.00348123 -1.7809e-26)
(1.02114 -0.00266855 1.21502e-26)
(1.01394 -0.0033064 1.63514e-26)
(0.993451 -0.000406265 2.45319e-26)
(0.989095 -0.00147846 6.88736e-26)
(0.940198 -0.00438673 1.62501e-26)
(0.960295 -0.00652904 0)
(0.997074 -0.00214577 0)
(1.00647 -0.00314445 -8.09403e-28)
(1.00583 -0.00100764 4.20697e-26)
(1.0027 -0.00239779 1.66135e-31)
(1.00035 -0.00152305 -3.99368e-26)
(0.998396 -0.00211962 0)
(0.996865 -0.00174168 0)
(0.995788 -0.00182987 1.0956e-26)
(0.994999 -0.00172655 0)
(0.994543 -0.00158589 0)
(1.0065 -0.000935031 0)
(1.00697 -0.0013318 -2.26445e-26)
(1.00779 -0.00135933 -1.17928e-26)
(1.00874 -0.00181031 -2.38425e-26)
(1.01032 -0.0018246 0)
(1.01192 -0.00248132 0)
(1.01446 -0.00237521 0)
(1.01868 -0.00341048 -2.21718e-26)
(1.02091 -0.00256688 0)
(1.01291 -0.00291034 -2.47251e-27)
(0.992552 -0.000206586 8.11827e-27)
(0.990903 -0.00113647 2.67156e-26)
(0.942647 -0.00398867 1.13334e-26)
(0.959243 -0.00640326 7.80478e-26)
(0.995608 -0.00205882 2.58502e-26)
(1.00574 -0.00294094 0)
(1.0056 -0.000695373 -3.30988e-26)
(1.00281 -0.00207424 -2.58626e-26)
(1.00035 -0.00123452 0)
(0.998415 -0.00185822 0)
(0.996811 -0.00149351 0)
(0.995748 -0.00162595 9.67861e-27)
(0.994921 -0.00152471 0)
(0.994484 -0.00143458 0)
(1.00669 -0.00103467 2.50603e-28)
(1.00716 -0.00140211 -2.10544e-26)
(1.00801 -0.00143825 7.79314e-29)
(1.00897 -0.00184798 0)
(1.01061 -0.00189179 -7.24822e-27)
(1.01222 -0.002474 -5.63234e-28)
(1.01484 -0.00243781 0)
(1.01878 -0.00332039 -1.06785e-26)
(1.02054 -0.00245167 7.43671e-27)
(1.01182 -0.00250931 1.04493e-26)
(0.991701 -2.738e-05 -2.48799e-27)
(0.992603 -0.000823449 1.86376e-26)
(0.945196 -0.00357132 1.39495e-26)
(0.958352 -0.0062774 1.13837e-27)
(0.994105 -0.00199807 -5.60329e-28)
(1.00492 -0.00277335 2.80699e-26)
(1.0053 -0.000421779 4.24979e-28)
(1.00294 -0.00176318 -1.22336e-27)
(1.00037 -0.000968324 0)
(0.998454 -0.00159951 -9.24653e-27)
(0.996778 -0.00125332 -1.9692e-26)
(0.995729 -0.0014162 0)
(0.994865 -0.00131917 1.56825e-26)
(0.994445 -0.0012685 -1.03475e-26)
(1.00686 -0.00114131 0)
(1.00734 -0.00147422 -1.11759e-26)
(1.00822 -0.00152261 -9.74473e-29)
(1.00918 -0.0018833 -4.33179e-28)
(1.01088 -0.00196215 0)
(1.0125 -0.00245603 1.70536e-25)
(1.01519 -0.0024979 -4.04423e-26)
(1.01879 -0.00320748 -1.05565e-26)
(1.02006 -0.00232116 -5.12547e-27)
(1.01069 -0.00210779 -5.56917e-27)
(0.990913 0.000126831 -5.5864e-27)
(0.994171 -0.000546539 1.97084e-26)
(0.947814 -0.00313885 3.17906e-27)
(0.957638 -0.00614164 9.45289e-28)
(0.992587 -0.00195945 -1.59592e-26)
(1.00402 -0.00263944 -2.10911e-26)
(1.00492 -0.000191855 5.35228e-28)
(1.00307 -0.00146846 -9.74984e-28)
(1.0004 -0.000726418 0)
(0.998509 -0.0013446 -3.51206e-27)
(0.996762 -0.00102243 -1.51651e-26)
(0.995726 -0.00120156 0)
(0.994827 -0.00111146 6.60734e-27)
(0.994422 -0.00108932 -9.14864e-27)
(1.00702 -0.0012517 -1.05455e-26)
(1.0075 -0.00154584 1.07778e-26)
(1.00841 -0.00160952 -2.17666e-26)
(1.00939 -0.00191369 -2.68126e-28)
(1.01113 -0.00203059 -6.96972e-27)
(1.01276 -0.00242255 1.61565e-25)
(1.01549 -0.00254149 -2.24149e-26)
(1.01867 -0.00306043 -5.15691e-27)
(1.01943 -0.00217198 -3.73069e-27)
(1.00954 -0.00171982 7.40174e-28)
(0.990205 0.000235148 1.48248e-26)
(0.99561 -0.000332091 4.75316e-27)
(0.950517 -0.00269497 -8.86227e-28)
(0.95713 -0.00596097 0)
(0.991058 -0.00192355 -1.63643e-26)
(1.00303 -0.0025353 -1.46308e-26)
(1.00443 -1.80762e-05 4.78337e-28)
(1.0032 -0.00120257 0)
(1.00044 -0.000514477 1.32933e-27)
(0.998573 -0.00109721 1.26162e-27)
(0.996757 -0.000803566 -1.09287e-26)
(0.995734 -0.00098394 -1.41579e-27)
(0.994801 -0.000903801 4.12036e-27)
(0.994408 -0.000899377 0)
(1.00715 -0.00135966 -9.32415e-27)
(1.00765 -0.00161276 9.80037e-27)
(1.00857 -0.00169465 -9.59928e-27)
(1.00957 -0.00193743 0)
(1.01134 -0.00209558 0)
(1.013 -0.00237694 -3.64458e-26)
(1.01576 -0.00257294 1.43689e-26)
(1.01851 -0.00288753 -1.43628e-26)
(1.0188 -0.00200129 -5.58781e-27)
(1.00849 -0.00133141 -4.38746e-27)
(0.989611 0.000317064 -2.15327e-26)
(0.996807 -0.000163605 0)
(0.953011 -0.00224935 0)
(0.956796 -0.00576925 0)
(0.989663 -0.001912 0)
(1.00209 -0.00246327 2.62983e-27)
(1.00393 0.00010383 0)
(1.00334 -0.000958323 0)
(1.00048 -0.0003314 1.36735e-27)
(0.998637 -0.000856829 0)
(0.996757 -0.000599776 0)
(0.99575 -0.000765431 0)
(0.994786 -0.000700271 3.92293e-27)
(0.994402 -0.000702192 0)
(1.0073 -0.00146361 0)
(1.00784 -0.00167444 -5.27723e-28)
(1.00876 -0.00177579 -6.59682e-28)
(1.00981 -0.00195077 -2.3453e-28)
(1.01158 -0.00214507 -2.65996e-27)
(1.01327 -0.00229317 -5.73759e-26)
(1.01596 -0.00249478 -2.6043e-26)
(1.01806 -0.00256981 7.31941e-31)
(1.01774 -0.00176291 -4.99701e-35)
(1.00714 -0.00105189 3.34062e-32)
(0.989077 0.000139914 -9.06424e-26)
(0.998155 -0.00033871 0)
(0.956279 -0.0017536 1.86841e-26)
(0.95678 -0.00514918 1.24482e-25)
(0.987889 -0.00172925 -4.88301e-26)
(1.00075 -0.00243747 5.90281e-27)
(1.003 5.00426e-05 0)
(1.00343 -0.000843264 0)
(1.00046 -0.00020198 0)
(0.998722 -0.00063638 0)
(0.996747 -0.000415265 0)
(0.995777 -0.000548891 0)
(0.99477 -0.000502313 2.04699e-27)
(0.994392 -0.000499753 0)
(1.08103 -0.0963038 2.02854e-26)
(1.1095 0.134672 7.39496e-26)
(1.00459 0.147249 3.41696e-25)
(1.12005 -0.0304302 -3.47587e-26)
(1.16239 0.0465103 -1.40175e-26)
(1.12049 0.125617 -6.15375e-26)
(1.10369 0.0336505 -1.57574e-26)
(1.1427 -0.050976 -1.60182e-25)
(1.16383 0.0336613 -4.39198e-26)
(1.05633 0.0635952 -7.41862e-26)
(1.08292 -0.100186 2.49067e-25)
(1.13663 -0.0598768 0)
(1.00419 0.0610786 6.91027e-30)
(1.00631 -0.110667 -1.42034e-25)
(1.07352 -0.104019 1.24856e-25)
(0.962599 0.0327726 0)
(0.80334 0.00640911 -8.00827e-26)
(0.671695 -0.0299051 1.31483e-25)
(0.943396 -0.0747774 9.51543e-25)
(0.996719 -0.108579 -2.10874e-25)
(0.986147 -0.104321 1.7643e-25)
(0.908717 -0.0028034 4.36366e-26)
(0.990324 0.138904 4.77815e-25)
(0.956618 0.0650014 1.03578e-24)
(1.04655 -0.0489521 -1.25689e-25)
(1.07578 -0.0861451 5.8365e-27)
(1.00597 -0.0989947 -2.3658e-25)
(1.05556 0.240087 0)
(0.934368 0.221939 -2.70707e-25)
(1.10528 0.123598 0)
(1.07323 0.0715064 1.08509e-26)
(1.03683 0.0786235 -1.38035e-24)
(1.06887 -0.0211714 1.28245e-25)
(1.11343 -0.0283467 -3.26152e-26)
(1.08335 -0.079832 6.71877e-27)
(1.10786 -0.0651056 -6.15412e-27)
(1.12633 -0.0739021 5.54424e-27)
(1.11686 -0.118554 -6.98657e-27)
(1.13487 0.0992783 7.40594e-26)
(1.12514 0.168593 2.84534e-26)
(1.15726 0.0444745 6.17322e-27)
(1.10585 0.0325661 -3.85322e-25)
(1.08397 0.064114 1.54421e-25)
(1.06819 0.00970067 2.63661e-25)
(1.10157 0.0279898 1.38568e-26)
(1.1146 -0.0202415 -1.98352e-28)
(1.11807 0.00460625 2.21517e-30)
(1.10407 0.0203619 -3.40304e-26)
(1.12039 -0.021946 -6.09493e-28)
(1.0965 -0.0207581 1.96579e-27)
(1.12705 0.0441125 -3.92026e-26)