/*--------------------------------*- C++ -*----------------------------------*\
| =========                 |                                                 |
| \\      /  F ield         | OpenFOAM: The Open Source CFD Toolbox           |
|  \\    /   O peration     | Version:  5.x                                   |
|   \\  /    A nd           | Web:      www.OpenFOAM.org                      |
|    \\/     M anipulation  |                                                 |
\*---------------------------------------------------------------------------*/
FoamFile
{
    version     2.0;
    format      ascii;
    class       volScalarField;
    location    "100";
    object      xf;
}
// * * * * * * * * * * * * * * * * * * * * * * * * * * * * * * * * * * * * * //

dimensions      [0 0 0 0 0 0 0];

internalField   nonuniform List<scalar> 
6584
(
0.0538327
0.0538326
0.0538327
0.0538327
0.0538327
0.0538327
0.0538327
0.0538328
0.0538328
0.0538328
0.0538329
0.0538329
0.0538329
0.0538328
0.0538328
0.0538328
0.0538328
0.0538327
0.0538327
0.0538327
0.0538326
0.0538326
0.0538326
0.0538326
0.0537739
0.053774
0.0537739
0.053774
0.053774
0.0537741
0.0537742
0.0537743
0.0537744
0.0537745
0.0537745
0.0537745
0.0537745
0.0537745
0.0537745
0.0537744
0.0537743
0.0537743
0.0537742
0.0537741
0.053774
0.0537739
0.0537739
0.0537738
0.0537151
0.0537152
0.0537153
0.0537152
0.0537153
0.0537154
0.0537156
0.0537159
0.0537161
0.0537452
0.0537452
0.0537452
0.0537452
0.0537452
0.0537452
0.053716
0.0537158
0.0537157
0.0537155
0.0537154
0.0537153
0.0537153
0.0537152
0.0537151
0.0536565
0.0536565
0.0536566
0.0536566
0.0536567
0.0536568
0.053657
0.0536573
0.0536576
0.0536867
0.0536865
0.0536864
0.0536864
0.0536865
0.0536866
0.0536867
0.0536572
0.0536571
0.0536569
0.0536568
0.0536567
0.0536566
0.0536565
0.0536565
0.0535978
0.0535979
0.053598
0.0535981
0.0535982
0.0535982
0.0535983
0.0535984
0.0536281
0.053628
0.0536276
0.0536272
0.0536271
0.0536272
0.0536277
0.0536279
0.0536279
0.0535988
0.0535985
0.0535983
0.0535982
0.0535981
0.0535979
0.0535979
0.0535392
0.0535393
0.0535394
0.0535395
0.0535397
0.0535398
0.0535401
0.0535691
0.053569
0.0535686
0.0535831
0.0535822
0.0535818
0.0535824
0.0535686
0.0535693
0.0535695
0.0535407
0.0535402
0.05354
0.0535397
0.0535395
0.0535394
0.0535393
0.0534807
0.0534807
0.0534809
0.053481
0.0534813
0.0534815
0.053482
0.0535108
0.0535105
0.05351
0.0535228
0.0535286
0.0535272
0.0535214
0.0535243
0.053511
0.0535114
0.053483
0.0534821
0.0534817
0.0534814
0.0534811
0.0534809
0.0534808
0.0534222
0.0534223
0.0534224
0.0534227
0.0534229
0.0534233
0.0534241
0.0534527
0.0534525
0.0534525
0.0534639
0.0534662
0.0534671
0.0534658
0.0534536
0.0534538
0.0534255
0.0534242
0.0534236
0.0534231
0.0534228
0.0534225
0.0534224
0.0533637
0.0533638
0.0533641
0.0533644
0.0533648
0.0533653
0.0533665
0.0533949
0.0533951
0.0533958
0.053407
0.0534092
0.0534094
0.0534092
0.0533971
0.0533967
0.0533682
0.0533664
0.0533656
0.053365
0.0533645
0.0533641
0.053364
0.0533053
0.0533055
0.0533058
0.0533061
0.0533067
0.0533074
0.0533088
0.0533373
0.053338
0.0533397
0.0533516
0.0533553
0.0533563
0.0533545
0.0533413
0.05334
0.053311
0.0533087
0.0533076
0.0533068
0.0533062
0.0533058
0.0533056
0.0532469
0.0532471
0.0532474
0.0532479
0.0532486
0.0532495
0.0532512
0.0532798
0.0532811
0.0532836
0.0532964
0.0533014
0.0533038
0.0533002
0.0532857
0.0532835
0.0532539
0.0532512
0.0532497
0.0532487
0.053248
0.0532475
0.0532472
0.0531885
0.0531887
0.0531891
0.0531897
0.0531905
0.0531916
0.0531936
0.0532223
0.053224
0.053227
0.0532404
0.0532452
0.053249
0.0532449
0.0532297
0.0532268
0.0531966
0.0531936
0.0531919
0.0531906
0.0531897
0.0531892
0.0531887
0.0531301
0.0531304
0.0531309
0.0531315
0.0531325
0.0531337
0.0531359
0.0531646
0.0531666
0.0531698
0.053183
0.0531862
0.0531902
0.053188
0.053173
0.0531697
0.0531392
0.0531358
0.0531339
0.0531324
0.0531314
0.0531308
0.0531303
0.0530717
0.053072
0.0530726
0.0530733
0.0530744
0.0530757
0.0530779
0.0530784
0.0531085
0.0531114
0.0531231
0.0531226
0.0190631
0.0531202
0.0531293
0.0531155
0.0531121
0.0530816
0.053078
0.0530759
0.0530742
0.0530731
0.0530723
0.0530718
0.0530133
0.0530137
0.0530143
0.0530151
0.0530162
0.0530176
0.0530196
0.0530195
0.0530495
0.0530523
0.0530632
0.0530526
0.0412783
0.0530574
0.0530542
0.0530571
0.0530236
0.0530232
0.0530196
0.0530176
0.053016
0.0530148
0.0530139
0.0530132
0.0529549
0.0529553
0.0529559
0.0529568
0.052958
0.0529593
0.0529612
0.0529611
0.0529909
0.052994
0.0529892
0.0529913
0.0415134
0.0529826
0.0529945
0.0529984
0.0529652
0.0529649
0.0529612
0.052959
0.0529574
0.052956
0.0529553
0.0529547
0.0528964
0.0528969
0.0528975
0.0528985
0.0528997
0.0529009
0.0529028
0.0529028
0.0529044
0.0529354
0.0529298
0.0528465
0.0464899
0.0529209
0.0529347
0.0529394
0.0529065
0.0529065
0.0529027
0.0529005
0.0528987
0.0528974
0.0528965
0.0528958
0.052838
0.0528385
0.0528392
0.0528401
0.0528413
0.0528425
0.0528445
0.0528445
0.052846
0.0528449
0.0528703
0.0527339
0.0464611
0.0528593
0.0528484
0.0528493
0.0528477
0.052848
0.0528442
0.0528418
0.0528401
0.0528387
0.0528378
0.052837
0.0527795
0.0527801
0.0527808
0.0527818
0.052783
0.0527841
0.0527863
0.0527863
0.0527877
0.0527861
0.0527715
0.0484987
0.0495059
0.0527734
0.0527888
0.0527903
0.0527888
0.0527894
0.0527856
0.0527832
0.0527813
0.0527799
0.052779
0.0527781
0.052721
0.0527216
0.0527224
0.0527234
0.0527246
0.0527258
0.0527281
0.052728
0.0527293
0.0527274
0.0527069
0.0484474
0.0494525
0.0527116
0.0527293
0.0527312
0.0527299
0.0527307
0.0527269
0.0527245
0.0527226
0.0527212
0.0527202
0.0527192
0.0526626
0.0526632
0.0526639
0.052665
0.0526663
0.0526675
0.05267
0.0526697
0.0526709
0.0526686
0.0526432
0.0483952
0.0493977
0.0526496
0.0526697
0.0526722
0.052671
0.0526721
0.0526683
0.0526658
0.0526639
0.0526624
0.0526614
0.0526604
0.0526041
0.0526047
0.0526055
0.0526066
0.052608
0.0526093
0.0526118
0.0526115
0.0526125
0.0526098
0.0525803
0.0483424
0.0493418
0.0525875
0.0526102
0.0526132
0.0526121
0.0526134
0.0526096
0.052607
0.0526051
0.0526035
0.0526025
0.0526015
0.0525456
0.0525462
0.0525471
0.0525482
0.0525496
0.052551
0.0525536
0.0525532
0.0525542
0.052551
0.0525181
0.0482893
0.0492851
0.0525251
0.0525507
0.0525541
0.0525532
0.0525548
0.0525509
0.0525483
0.0525463
0.0525447
0.0525437
0.0525426
0.0524871
0.0524878
0.0524886
0.0524898
0.0524913
0.0524927
0.0524954
0.0524949
0.0524958
0.0524922
0.0524564
0.0482358
0.0492276
0.0524627
0.0524912
0.0524951
0.0524943
0.0524961
0.0524921
0.0524895
0.0524875
0.0524859
0.0524848
0.0524837
0.0524286
0.0524293
0.0524302
0.0524314
0.0524329
0.0524345
0.0524372
0.0524366
0.0524374
0.0524335
0.0523952
0.0481822
0.0491694
0.0524001
0.0524317
0.052436
0.0524354
0.0524374
0.0524334
0.0524307
0.0524287
0.052427
0.0524259
0.0524248
0.0523701
0.0523708
0.0523717
0.052373
0.0523745
0.0523762
0.052379
0.0523783
0.052379
0.0523747
0.0523337
0.0481276
0.0491113
0.0523381
0.0523723
0.052377
0.0523765
0.0523788
0.0523747
0.052372
0.0523699
0.0523682
0.0523671
0.0523659
0.0523116
0.0523123
0.0523133
0.0523146
0.0523162
0.0523179
0.0523208
0.0523199
0.0523206
0.052316
0.052272
0.0480721
0.0490541
0.052277
0.052313
0.052318
0.0523177
0.0523202
0.0523161
0.0523133
0.0523112
0.0523094
0.0523083
0.0523071
0.0522531
0.0522539
0.0522548
0.0522561
0.0522578
0.0522596
0.0522625
0.0522616
0.0522623
0.0522572
0.0522107
0.0480166
0.0489966
0.0522158
0.0522536
0.0522591
0.0522588
0.0522616
0.0522575
0.0522546
0.0522524
0.0522507
0.0522495
0.0522484
0.0521946
0.0521954
0.0521963
0.0521977
0.0521994
0.0522013
0.0522043
0.0522033
0.0522039
0.0521985
0.0521496
0.0479609
0.0489387
0.0521546
0.0521943
0.0522001
0.0522
0.052203
0.0521988
0.052196
0.0521937
0.0521919
0.0521908
0.0521896
0.0521361
0.0521369
0.0521379
0.0521393
0.052141
0.0521429
0.0521461
0.0521449
0.0521455
0.0521398
0.0520888
0.0479052
0.0488804
0.0520935
0.052135
0.0521412
0.0521412
0.0521444
0.0521402
0.0521373
0.052135
0.0521332
0.052132
0.0521309
0.0520776
0.0520784
0.0520794
0.0520808
0.0520826
0.0520846
0.0520879
0.0520866
0.052087
0.052081
0.0520282
0.0478495
0.048822
0.0520323
0.0520757
0.0520822
0.0520823
0.0520858
0.0520815
0.0520786
0.0520763
0.0520744
0.0520732
0.0520721
0.0520191
0.0520199
0.0520209
0.0520224
0.0520242
0.0520263
0.0520297
0.0520283
0.0520286
0.0520223
0.0519677
0.0477936
0.0487634
0.0519713
0.0520163
0.0520232
0.0520235
0.0520272
0.0520229
0.0520199
0.0520175
0.0520157
0.0520144
0.0520133
0.0519606
0.0519614
0.0519624
0.0519639
0.0519658
0.051968
0.0519714
0.0519699
0.0519701
0.0519635
0.0519072
0.0477378
0.0487046
0.0519103
0.051957
0.0519642
0.0519646
0.0519685
0.0519642
0.0519612
0.0519588
0.0519569
0.0519556
0.0519545
0.051902
0.0519029
0.0519039
0.0519054
0.0519074
0.0519097
0.0519132
0.0519115
0.0519116
0.0519048
0.0518468
0.0476818
0.0486458
0.0518493
0.0518978
0.0519052
0.0519057
0.0519099
0.0519055
0.0519025
0.0519
0.0518981
0.0518968
0.0518958
0.0518435
0.0518444
0.0518454
0.0518469
0.0518489
0.0518514
0.051855
0.0518531
0.0518531
0.051846
0.0517865
0.0476258
0.048587
0.0517885
0.0518385
0.0518462
0.0518468
0.0518513
0.0518469
0.0518437
0.0518413
0.0518394
0.0518381
0.051837
0.051785
0.0517859
0.051787
0.0517885
0.0517905
0.0517931
0.0517967
0.0517947
0.0517946
0.0517873
0.051726
0.0475697
0.0485283
0.0517279
0.0517792
0.0517873
0.051788
0.0517926
0.0517882
0.051785
0.0517825
0.0517806
0.0517793
0.0517782
0.053416
0.0534155
0.0534656
0.053362
0.0533623
0.0534088
0.0533082
0.0533098
0.0533557
0.0532524
0.0532556
0.0533032
0.0531938
0.0531974
0.0532486
0.0531306
0.0182739
0.0184313
0.0531349
0.0531899
0.0534738
0.0535274
0.0534732
0.0535284
0.053421
0.053417
0.0534677
0.0534358
0.0534638
0.0534163
0.053422
0.0534644
0.0533654
0.0533625
0.05341
0.0533888
0.0533712
0.0534046
0.0532962
0.0533933
0.0533629
0.0533675
0.0534082
0.0533102
0.0533084
0.0533558
0.0533352
0.0532905
0.0533173
0.0522543
0.0528205
0.0533104
0.0533137
0.053354
0.0532545
0.0532526
0.0533016
0.0532807
0.0532502
0.053267
0.0526793
0.0523451
0.0532561
0.0532593
0.0533002
0.0526931
0.0528737
0.0531978
0.0532029
0.0532454
0.0526177
0.052664
0.053068
0.028514
0.0183558
0.0332347
0.0530641
0.0531263
0.0534089
0.0534355
0.053437
0.0534345
0.0534024
0.0534653
0.0534381
0.0533971
0.0534339
0.0534362
0.0534333
0.0534043
0.0533224
0.0533652
0.0533821
0.0533331
0.0532277
0.0533957
0.0533394
0.052857
0.0532905
0.0533821
0.053332
0.0532002
0.0534013
0.0533363
0.0533887
0.0532693
0.0532876
0.0533285
0.0531902
0.0532103
0.0532229
0.0531896
0.0523464
0.0522146
0.0533296
0.053114
0.0531054
0.0531957
0.0531195
0.0533361
0.0531763
0.0531825
0.0532116
0.0531742
0.0528706
0.0527124
0.0532763
0.0531099
0.0531586
0.0530995
0.0531055
0.0532831
0.0531732
0.0531565
0.0531822
0.053175
0.052669
0.052693
0.0531559
0.0531295
0.0532271
0.0531273
0.0530305
0.0531535
0.053131
0.0524587
0.0526107
0.0534441
0.0534392
0.0534666
0.0534425
0.0534611
0.0531975
0.0531943
0.0532454
0.0532234
0.0532053
0.0532264
0.0506216
0.0500997
0.0531357
0.0531445
0.0531885
0.0534632
0.0534457
0.0534652
0.0534369
0.0534433
0.0532292
0.0532477
0.0532737
0.0389293
0.0412024
0.0482609
0.0493144
0.0413217
0.0440585
0.050002
0.0491532
0.0532198
0.0531246
0.0530838
0.049442
0.0500695
0.0530775
0.053027
0.0531667
0.0534977
0.0534948
0.0534694
0.0534682
0.0534943
0.0534975
0.05344
0.0534475
0.0534416
0.0534624
0.053444
0.0534513
0.0533367
0.0533554
0.052564
0.0525958
0.0525896
0.0525283
0.0526885
0.0490797
0.0528796
0.051021
0.0506809
0.0507092
0.0510456
0.0526451
0.053261
0.053423
0.0529942
0.0533668
0.0529197
0.0534185
0.0533811
0.0534446
0.0534494
0.0534399
0.0533041
0.0534166
0.053419
0.053274
0.0532674
0.053376
0.0533719
0.0530495
0.0530738
0.0532297
0.0533689
0.0533795
0.053355
0.0533654
0.0532262
0.0533752
0.0533971
0.0534076
0.053383
0.0533936
0.0533674
0.0532006
0.0532016
0.0531988
0.0531963
0.0517701
0.0518304
0.0530637
0.0533149
0.0533248
0.0533018
0.0533116
0.0530565
0.0531638
0.0533414
0.0533515
0.0533281
0.053338
0.053159
0.0392304
0.0531808
0.0424281
0.0400472
0.0452905
0.0425753
0.0531815
0.0531637
0.0403161
0.0531664
0.0528327
0.0528189
0.053097
0.0532886
0.0532985
0.0532752
0.0532852
0.0531049
0.0466293
0.0480346
0.0531804
0.0474912
0.045472
0.0490719
0.047704
0.0531793
0.0443147
0.0464088
0.0526818
0.0500637
0.0506438
0.0491756
0.049953
0.0526849
0.0489609
0.0498375
0.0500201
0.0279065
0.0501378
0.0497601
0.0291026
0.0510171
0.0510514
0.0534574
0.0531388
0.0531335
0.0531868
0.0531635
0.0531522
0.0531745
0.0322014
0.0520125
0.0521726
0.0534585
0.0531786
0.0532021
0.0532161
0.0356206
0.0362529
0.0118938
0.0495194
0.049383
0.0369908
0.0382362
0.0506947
0.0510056
0.00922201
0.0534787
0.05348
0.0534656
0.0534639
0.0534794
0.0534784
0.0533866
0.0533962
0.0533858
0.053306
0.0533116
0.0533771
0.0533006
0.0533409
0.0533307
0.0533546
0.0533443
0.0533043
0.0523968
0.0527305
0.0526242
0.0523223
0.0476347
0.046957
0.0526383
0.0510804
0.051314
0.0529007
0.0528652
0.0281182
0.0534533
0.0534477
0.0534645
0.0534055
0.0533569
0.0533247
0.053422
0.0534256
0.0534368
0.0534112
0.053422
0.053418
0.0533395
0.0533684
0.053358
0.0533823
0.0533719
0.0533455
0.0533065
0.0524082
0.0529661
0.0520153
0.0521043
0.0532434
0.0530165
0.053071
0.0533545
0.0529398
0.0531549
0.0532764
0.0533658
0.0533701
0.0533372
0.053344
0.0532117
0.0533273
0.0533171
0.0532794
0.0531959
0.0518102
0.0515072
0.0532106
0.0518894
0.0519923
0.0514574
0.0515036
0.0531898
0.0521079
0.0520284
0.0530931
0.0533008
0.0533052
0.0532775
0.0532898
0.0530879
0.0531828
0.0533286
0.053335
0.0533068
0.0533117
0.0531373
0.0528528
0.0507941
0.051077
0.050608
0.0503596
0.052767
0.053166
0.0532618
0.0532719
0.0532481
0.0532584
0.0531652
0.0531669
0.050046
0.0492171
0.0510132
0.0507948
0.0531645
0.0415972
0.042068
0.0531445
0.0512488
0.0510815
0.0410067
0.0414628
0.0484664
0.0478107
0.0534503
0.0534573
0.0534531
0.0470717
0.0504271
0.047461
0.0477932
0.0476453
0.0503595
0.0534557
0.0534525
0.0534601
0.0534489
0.0534532
0.0391228
0.0399083
0.0363433
0.0357842
0.0487649
0.038932
0.0384684
0.0401605
0.0390718
0.048899
0.0420151
0.0425553
0.0496726
0.0495284
0.0497621
0.0418463
0.0407455
0.038356
0.038977
0.0534319
0.0534393
0.0534462
0.0534293
0.053437
0.0534282
0.0533098
0.0533733
0.0524318
0.0526988
0.0526279
0.052333
0.0492167
0.0510544
0.0508671
0.0512495
0.0511153
0.0491912
0.0504535
0.0503176
0.050815
0.0505501
0.0509039
0.0487534
0.0491524
0.0480558
0.0485606
0.0508536
0.0465912
0.046908
0.0531639
0.0534082
0.0533871
0.0534301
0.0534145
0.0532093
0.0532916
0.0532582
0.0533737
0.0533058
0.0534271
0.0534411
0.0534333
0.0534213
0.0534072
0.0533982
0.0533651
0.0534083
0.0533776
0.0534143
0.0534264
0.0533852
0.0534096
0.0534257
0.0534167
0.053402
0.0522248
0.0523236
0.053297
0.0514401
0.0509056
0.0525475
0.0515177
0.0501189
0.0495628
0.0507415
0.0503854
0.0532492
0.0521368
0.0522008
0.0529569
0.0528559
0.0532429
0.0530417
0.052758
0.0526642
0.0528401
0.0527809
0.053359
0.0530841
0.0531221
0.0529671
0.0531408
0.0533557
0.0533633
0.0532536
0.0532156
0.0533463
0.0533533
0.0518941
0.0518631
0.0531975
0.0484046
0.0485052
0.0461839
0.0481163
0.0484948
0.0491359
0.0484879
0.0484703
0.051743
0.0518566
0.0532071
0.0486274
0.0479842
0.0494503
0.0488099
0.046672
0.0460929
0.0477171
0.0470352
0.0531915
0.0515649
0.0516956
0.0519268
0.0519768
0.0532954
0.0532994
0.053086
0.0530723
0.0532909
0.0532941
0.0533206
0.0533265
0.0531782
0.0531424
0.0533133
0.0533188
0.0399524
0.0410686
0.0516999
0.0519351
0.0513663
0.0516092
0.0402237
0.044222
0.0522198
0.0516155
0.0519928
0.0521661
0.0436407
0.0501648
0.0503174
0.0495086
0.0501046
0.0413038
0.0510308
0.0513027
0.0504057
0.0508773
0.0414097
0.0506255
0.0507382
0.0528487
0.0498785
0.0501668
0.0502525
0.0498672
0.0502057
0.0527728
0.0502661
0.0504844
0.0471875
0.0359082
0.0363886
0.0380784
0.0360522
0.0473914
0.0364492
0.0450673
0.0365644
0.0454219
0.0495677
0.0514078
0.0512926
0.0515419
0.0514451
0.0496342
0.048641
0.0487328
0.0423028
0.0428161
0.0394492
0.0407852
0.0489121
0.0486187
0.0534747
0.0534789
0.0535232
0.0531589
0.053071
0.0529901
0.0534701
0.0534711
0.053462
0.0534596
0.05347
0.0534696
0.0534967
0.0534954
0.0534696
0.0534103
0.0533997
0.0533913
0.0532996
0.0531779
0.0531579
0.0522962
0.0527902
0.0533002
0.0532901
0.0532598
0.0515862
0.0514759
0.0523363
0.0511294
0.0512412
0.0528747
0.0534208
0.0534244
0.0534138
0.0533372
0.0533621
0.0534082
0.0534292
0.0534202
0.0534279
0.0533905
0.0532459
0.0533268
0.0528848
0.053137
0.0531137
0.0532769
0.0532783
0.053281
0.0532041
0.0533751
0.0533795
0.0533459
0.0532767
0.0533137
0.0533036
0.0520433
0.0519145
0.0532059
0.0523283
0.0517722
0.0516925
0.0521742
0.0531083
0.0532367
0.0532385
0.0531914
0.0532727
0.0532755
0.0532403
0.0532422
0.0531252
0.0531587
0.0522469
0.0521102
0.0530766
0.0532725
0.053275
0.0531473
0.0532343
0.0532445
0.0334794
0.0333476
0.0514103
0.0512969
0.0531411
0.033766
0.0336207
0.0513334
0.0513723
0.0525797
0.0534447
0.053444
0.0387463
0.0380411
0.038398
0.041022
0.0414501
0.0373691
0.0376861
0.0399042
0.0395004
0.043693
0.048569
0.0484572
0.0492763
0.0427013
0.0420346
0.0498463
0.0534812
0.0534801
0.0534651
0.0534354
0.0534376
0.0534403
0.0534431
0.0534193
0.0534232
0.0534485
0.0534555
0.0534517
0.0532732
0.053263
0.053323
0.0533645
0.0533368
0.0533203
0.0525076
0.0526276
0.0516528
0.0517038
0.0526236
0.0524506
0.0513247
0.0514998
0.0493415
0.0493463
0.0499317
0.0498524
0.0490733
0.0494002
0.0494583
0.0528764
0.0512988
0.0514586
0.0532238
0.0530825
0.0532826
0.0532563
0.0534051
0.0533908
0.0533389
0.0527264
0.0526556
0.0531925
0.0530242
0.0528014
0.0534472
0.0534433
0.0534337
0.0534342
0.0534184
0.0534272
0.0533391
0.053403
0.0534136
0.0531352
0.0532035
0.0533873
0.052543
0.0524494
0.0530248
0.0530974
0.053393
0.0533971
0.0533875
0.0533494
0.0533839
0.0533884
0.0532049
0.0519034
0.0518947
0.0517468
0.0518806
0.0532575
0.0532599
0.0531685
0.0531531
0.0532528
0.0532552
0.0395661
0.042238
0.0464984
0.0467083
0.0441272
0.0443011
0.0397993
0.0523308
0.05227
0.0531612
0.0415337
0.0412247
0.0436662
0.043643
0.0406455
0.0439262
0.044024
0.0410773
0.0412254
0.0532679
0.0532701
0.0530741
0.0531059
0.0532633
0.0532657
0.0465121
0.0518467
0.0519223
0.0516891
0.0517655
0.0461625
0.0503257
0.0514373
0.0515675
0.0515008
0.051471
0.0504161
0.0493348
0.0501535
0.0500383
0.0487576
0.0486014
0.0489092
0.0332891
0.0347976
0.0348374
0.0343735
0.0503165
0.0439766
0.0430339
0.0446916
0.04419
0.0496747
0.0456509
0.0458282
0.0492612
0.049606
0.0511245
0.0534566
0.0534587
0.0534543
0.0355497
0.0357332
0.0413821
0.040691
0.0112638
0.0376994
0.0361004
0.0361938
0.0355305
0.0358463
0.0380546
0.008948
0.0480373
0.048861
0.0534719
0.0534709
0.0534609
0.0532154
0.053197
0.0533027
0.0532821
0.0533266
0.0533601
0.0533075
0.0533186
0.0523513
0.0527602
0.050645
0.0507547
0.0507207
0.0506234
0.0523268
0.0513803
0.0512963
0.0474842
0.0462724
0.0462236
0.0465222
0.0464559
0.0472923
0.0533473
0.0533802
0.0533835
0.0533718
0.0533771
0.0533368
0.0529122
0.0532426
0.0530889
0.0530314
0.0532079
0.0532837
0.0532866
0.0518532
0.0518389
0.0522643
0.0520903
0.0532332
0.0532349
0.0531005
0.0532676
0.0532701
0.0531871
0.0531315
0.0532442
0.0532463
0.0505672
0.051056
0.0508995
0.0511345
0.0511132
0.0504877
0.0332474
0.0332545
0.0341437
0.0339163
0.0411755
0.0372766
0.0371506
0.0463477
0.0463691
0.0482653
0.0467862
0.0470783
0.0462789
0.0464824
0.0480326
0.053449
0.053447
0.0534478
0.0534487
0.0534553
0.0534561
0.0534588
0.0534512
0.0534531
0.0534531
0.0473988
0.0489136
0.0488082
0.0492083
0.0490548
0.0475106
0.0480243
0.0484303
0.048234
0.0487232
0.0486158
0.0478557
0.0534544
0.0534558
0.0534533
0.05344
0.0534325
0.0534499
0.0534469
0.0387088
0.0406589
0.0386975
0.0388006
0.0361665
0.0359734
0.0422042
0.0424584
0.0386765
0.0372939
0.0371725
0.0416539
0.0376603
0.0373951
0.0377213
0.0431665
0.0386924
0.0378383
0.0487016
0.0488929
0.0498016
0.0482173
0.0482576
0.0481282
0.04814
0.0493914
0.0484203
0.0485056
0.0384777
0.0348998
0.0352038
0.0346795
0.0346881
0.0386611
0.0534354
0.0534377
0.0534349
0.0534207
0.0534263
0.0534326
0.0532083
0.0533148
0.0532492
0.0532329
0.0532803
0.0532944
0.0532479
0.0532651
0.0524675
0.0526605
0.0510314
0.0511166
0.050844
0.0509374
0.0526308
0.0517141
0.0517109
0.0512341
0.0512308
0.0523792
0.0511536
0.0495617
0.0494069
0.0491279
0.0497887
0.049707
0.0503908
0.0495151
0.0495067
0.0497384
0.0496058
0.0503532
0.0507511
0.049927
0.0500096
0.0496053
0.049773
0.0506584
0.0494787
0.048222
0.0494573
0.0493462
0.0465272
0.0466689
0.0531414
0.0533082
0.0532953
0.053123
0.0532533
0.053358
0.0533283
0.0528361
0.0527766
0.0531026
0.0531186
0.0532698
0.0529907
0.0529099
0.0533784
0.0533969
0.0534279
0.0534099
0.0533551
0.0532885
0.0533521
0.0533917
0.0534033
0.0534077
0.0533881
0.0533948
0.0533712
0.053345
0.0533685
0.0534179
0.053409
0.0534032
0.053422
0.0534128
0.0534219
0.0533918
0.0533968
0.0533825
0.0533971
0.0513264
0.0510985
0.0522584
0.0509889
0.0511768
0.0506756
0.0515979
0.0498978
0.0497122
0.0506076
0.0505051
0.0529046
0.0524499
0.0525638
0.0522533
0.0523434
0.0528754
0.0532168
0.0530263
0.0530773
0.0526191
0.0529051
0.0531591
0.0523705
0.052231
0.0527348
0.0515576
0.0516651
0.0513912
0.051474
0.0527083
0.052825
0.052118
0.0521827
0.0517935
0.0519435
0.0528037
0.0529998
0.0531219
0.0485028
0.0459635
0.0463756
0.0450616
0.0454811
0.0485195
0.0466635
0.0465545
0.0465814
0.0474303
0.0485847
0.0429886
0.0433059
0.043671
0.0430762
0.0487995
0.0484764
0.0443754
0.0446933
0.0437611
0.0441102
0.0484715
0.0484955
0.0483166
0.0493284
0.0490406
0.0463709
0.0461447
0.0475063
0.0473514
0.0517955
0.0519282
0.0531732
0.0532624
0.053265
0.0532484
0.0532506
0.0531475
0.0398568
0.0457018
0.0461801
0.0418625
0.0397659
0.0446292
0.0451345
0.0423568
0.0419193
0.0502108
0.0459471
0.0459242
0.0498132
0.0453862
0.0445652
0.0458755
0.0457425
0.0500033
0.0433758
0.0428433
0.0433936
0.0437612
0.0409967
0.041692
0.0425758
0.0506828
0.0515421
0.0514948
0.0515931
0.0515681
0.0507094
0.0499658
0.0500919
0.050111
0.0498384
0.0498065
0.0499545
0.0502457
0.0512096
0.0511569
0.0514086
0.0513025
0.050327
0.0360126
0.0396012
0.0398178
0.0393091
0.0394525
0.0361928
0.0373235
0.0413109
0.0418347
0.0401804
0.0407117
0.0365459
0.0363464
0.0366308
0.0367258
0.0370664
0.0368071
0.0368634
0.0387275
0.0391053
0.0371988
0.0379787
0.0369647
0.0503282
0.0502536
0.0494833
0.0486385
0.0488416
0.0335447
0.0341314
0.0399856
0.0358241
0.0350412
0.036956
0.036577
0.0404564
0.0344598
0.0343786
0.0460011
0.0461063
0.053598
0.0535977
0.0536275
0.0535972
0.053597
0.0536271
0.053597
0.053597
0.0536271
0.0535974
0.0535979
0.0536275
0.0535391
0.0535385
0.0535683
0.0535378
0.0535371
0.0535827
0.0535363
0.0535354
0.0535818
0.0535353
0.0535362
0.0535819
0.0535369
0.0535381
0.0535829
0.0535391
0.0535397
0.0535688
0.0534812
0.0534796
0.0535237
0.0534785
0.0534753
0.0535217
0.0535049
0.0535041
0.0535283
0.0535019
0.0535027
0.0535271
0.0535059
0.053507
0.0535218
0.0534803
0.0534821
0.0535108
0.0534241
0.0534221
0.053465
0.0534495
0.053449
0.0534635
0.0534587
0.053458
0.0534656
0.0534447
0.0534481
0.05347
0.0534232
0.0534258
0.0534538
0.0533678
0.053366
0.0534079
0.053393
0.053393
0.0534068
0.0534024
0.0534022
0.053409
0.0533892
0.0533922
0.0534128
0.0533681
0.0533704
0.053398
0.0533117
0.0533105
0.0533521
0.0533378
0.0533383
0.0533519
0.0533486
0.0533482
0.0533549
0.0533367
0.0533385
0.0533585
0.0533138
0.0533154
0.0533429
0.0532553
0.0532544
0.0532965
0.0532825
0.0532833
0.0532972
0.0532945
0.0532941
0.053301
0.0532837
0.0532846
0.0533048
0.0532589
0.0532601
0.0532878
0.0531985
0.0531973
0.0532403
0.053238
0.0532376
0.0532448
0.0532275
0.0532287
0.0532497
0.0532024
0.053204
0.0532322
0.0531409
0.0531388
0.0531828
0.0531671
0.0531707
0.0531854
0.0531441
0.0531468
0.0531755
0.0530816
0.0530781
0.053108
0.0530782
0.0530722
0.0531177
0.0530994
0.0530754
0.0531011
0.0210443
0.050097
0.050316
0.0530733
0.0530845
0.0531297
0.0530844
0.0530889
0.0531179
0.0530232
0.0530192
0.0530487
0.0530189
0.0530117
0.0530571
0.0530067
0.0375659
0.03744
0.04148
0.0529992
0.0530481
0.0530102
0.0530231
0.0530686
0.0530243
0.0530297
0.0530592
0.0529595
0.0529551
0.0529852
0.0529004
0.0445232
0.0375949
0.0464944
0.0528331
0.0529828
0.0529517
0.0529625
0.0529928
0.0534159
0.0534228
0.0534229
0.0534223
0.0534246
0.0534134
0.053465
0.0534576
0.0534581
0.0533616
0.0533683
0.0533687
0.0533688
0.0533677
0.0533575
0.0534097
0.053399
0.0534021
0.0533078
0.0533146
0.053315
0.0533164
0.0533142
0.0533042
0.0533541
0.0533441
0.0533492
0.053252
0.0532591
0.0532596
0.0532625
0.0532607
0.0532516
0.0533009
0.0532909
0.0532966
0.053205
0.0532023
0.0531949
0.0532448
0.0532379
0.0532415
0.0531097
0.0531446
0.0531555
0.0111645
0.0378945
0.0377291
0.0410545
0.0411459
0.00889337
0.0531874
0.0531799
0.0531822
0.0534707
0.0534959
0.053497
0.0534628
0.0534629
0.0534606
0.0535275
0.0535031
0.0535021
0.0534619
0.0534625
0.053481
0.0534805
0.0534726
0.0535281
0.0535038
0.0535045
0.0534207
0.0534348
0.0534352
0.0534382
0.0534344
0.0534204
0.0534628
0.0534485
0.0534454
0.0534397
0.0534387
0.0534317
0.0534631
0.0534587
0.0534596
0.0534198
0.053441
0.0534374
0.053436
0.0534358
0.053422
0.053464
0.0534498
0.0534501
0.0533656
0.0533792
0.0533792
0.0533827
0.0533794
0.0533658
0.0534066
0.053393
0.0533895
0.0533886
0.0533954
0.0533956
0.0533766
0.0533846
0.0533806
0.0534075
0.0534038
0.0534003
0.0533819
0.0533687
0.0533877
0.0533652
0.0533854
0.0533826
0.053381
0.0533814
0.053368
0.0534084
0.0533948
0.0533945
0.0533109
0.0533246
0.0533241
0.0533288
0.0533252
0.0533116
0.0533523
0.0533388
0.0533356
0.0533348
0.0533415
0.0533419
0.0532937
0.0533225
0.0533191
0.0533437
0.0533399
0.0533126
0.0533117
0.0533318
0.0533302
0.0533272
0.0533281
0.0533148
0.0533547
0.0533414
0.0533406
0.0532554
0.0532694
0.0532686
0.0532738
0.0532703
0.0532563
0.0532979
0.0532842
0.0532808
0.0532803
0.0532872
0.0532876
0.0532574
0.0532866
0.0532765
0.05329
0.0532868
0.0532646
0.0526484
0.0517603
0.0518469
0.0532569
0.0532775
0.0532768
0.053273
0.0532742
0.0532604
0.0533013
0.0532878
0.0532867
0.052693
0.0516431
0.051723
0.052426
0.0524355
0.0528743
0.0531999
0.0532143
0.0532202
0.0532172
0.0532183
0.053204
0.0532466
0.0532325
0.0532314
0.0526247
0.0520464
0.0520449
0.0520442
0.0520465
0.0526578
0.0530517
0.0530668
0.0530834
0.0282278
0.0528526
0.0528087
0.0493911
0.0493421
0.0186389
0.0519949
0.052006
0.0325286
0.05308
0.0527656
0.0528706
0.0529554
0.0527784
0.0531017
0.053413
0.0534149
0.0534112
0.0534389
0.053428
0.0534246
0.0534299
0.0534297
0.0534367
0.0534308
0.053425
0.0534344
0.0534612
0.0534605
0.0534646
0.053437
0.0534409
0.0534418
0.0534001
0.0533919
0.0533882
0.0534335
0.0534312
0.0534319
0.0534356
0.0534284
0.0534291
0.0534296
0.0534306
0.0534343
0.0534084
0.053412
0.0534097
0.0533278
0.0533515
0.0533476
0.0533765
0.0533723
0.0533585
0.0533754
0.0533751
0.0533818
0.0533255
0.0532602
0.053278
0.0530686
0.0530761
0.0532326
0.0532904
0.0532998
0.0533449
0.0533815
0.0533711
0.0533754
0.053325
0.0533497
0.0533543
0.0533908
0.053401
0.0534047
0.0533578
0.0533609
0.0533396
0.0533954
0.0533954
0.0533849
0.0532717
0.0532964
0.0532932
0.0533158
0.0533125
0.0532848
0.0533217
0.0533214
0.0533281
0.0531922
0.0530224
0.0530163
0.0530859
0.0530799
0.0532086
0.0532186
0.0530549
0.0530616
0.0530123
0.0530104
0.0531887
0.0533275
0.0533175
0.053323
0.0532332
0.0532328
0.0531067
0.0533426
0.0533407
0.0533308
0.0531781
0.052695
0.0526214
0.0529702
0.0529608
0.0531825
0.053213
0.0530979
0.053092
0.0525994
0.0525148
0.0531719
0.0528652
0.0523887
0.0524104
0.0519459
0.0520254
0.0527406
0.0532742
0.0532641
0.0532695
0.0531159
0.0532533
0.0532559
0.0532355
0.0532386
0.05316
0.0530916
0.0532312
0.0532325
0.0532583
0.0532608
0.0531013
0.0532899
0.0532876
0.0532775
0.0531713
0.0530294
0.0530268
0.0530349
0.053035
0.0531593
0.0531817
0.0529851
0.0529772
0.0530234
0.0530187
0.0531766
0.0526738
0.0520352
0.0520403
0.0517468
0.0518064
0.0526914
0.0531527
0.0532289
0.0532323
0.0532203
0.0532306
0.0531424
0.0532343
0.0532309
0.0532239
0.0531148
0.0514994
0.0514391
0.0510329
0.0513674
0.0531023
0.0531507
0.0530334
0.0530346
0.0525594
0.0513718
0.0513591
0.0534437
0.0534509
0.0534513
0.0534506
0.0534537
0.0534426
0.0534649
0.0534574
0.0534545
0.0534602
0.0534574
0.0534585
0.0532164
0.0532136
0.0531991
0.0532422
0.0532279
0.0532237
0.0532229
0.0532303
0.0532308
0.0532146
0.0532261
0.0532189
0.0532403
0.0532332
0.0532176
0.0505579
0.0499247
0.0500242
0.0492801
0.0494274
0.0501962
0.0531407
0.0531558
0.0531593
0.0534607
0.0534598
0.0534625
0.0534422
0.0534463
0.0534485
0.0534526
0.053456
0.0534678
0.0534405
0.0534521
0.0534486
0.0534507
0.0534502
0.0534428
0.0532374
0.053259
0.0532473
0.0532729
0.0532626
0.0532401
0.0532666
0.0532662
0.0532733
0.048452
0.0457659
0.0455343
0.0469712
0.0467374
0.0491726
0.049906
0.0490191
0.0491387
0.0532168
0.0532096
0.0532124
0.0531079
0.053206
0.0532165
0.05319
0.0532022
0.053102
0.0495642
0.0474231
0.0472041
0.0483382
0.0482011
0.0499977
0.0530562
0.053175
0.0531826
0.0531595
0.0531673
0.0530492
0.0531745
0.0531722
0.0531645
0.0534982
0.0534847
0.0534838
0.0534863
0.0534856
0.0534988
0.053467
0.053481
0.0534821
0.0534725
0.053472
0.0534675
0.0534983
0.0534849
0.0534857
0.0534835
0.0534842
0.0534977
0.053448
0.053441
0.0534436
0.0534544
0.0534577
0.0534622
0.0534455
0.0534479
0.0534464
0.0534554
0.0534546
0.0534504
0.0514945
0.051608
0.0526909
0.0528795
0.0524873
0.0524956
0.0509872
0.0505524
0.0506076
0.0501167
0.0501979
0.0507345
0.0508787
0.0515495
0.051527
0.0515857
0.0515688
0.0509244
0.0526518
0.0520479
0.0520485
0.053408
0.0534212
0.053427
0.0534135
0.0533712
0.0534014
0.053394
0.053421
0.0534135
0.0534467
0.0534442
0.0534412
0.0534456
0.0534447
0.0534485
0.0534133
0.0534101
0.0534141
0.0534213
0.0534187
0.053416
0.0531405
0.0531523
0.0532809
0.0532612
0.0531202
0.05313
0.0533506
0.0533579
0.0533799
0.0533677
0.0533365
0.0533436
0.0533021
0.0533062
0.0532342
0.0533724
0.053369
0.0533652
0.0533767
0.0533728
0.0533759
0.0533584
0.0533539
0.0533502
0.0533614
0.0533576
0.0533619
0.0532229
0.0532956
0.0532987
0.0533854
0.0533887
0.0533804
0.0534006
0.0533992
0.0533955
0.0534063