/*--------------------------------*- C++ -*----------------------------------*\
| =========                 |                                                 |
| \\      /  F ield         | OpenFOAM: The Open Source CFD Toolbox           |
|  \\    /   O peration     | Version:  5.x                                   |
|   \\  /    A nd           | Web:      www.OpenFOAM.org                      |
|    \\/     M anipulation  |                                                 |
\*---------------------------------------------------------------------------*/
FoamFile
{
    version     2.0;
    format      ascii;
    class       volScalarField;
    location    "100";
    object      Y;
}
// * * * * * * * * * * * * * * * * * * * * * * * * * * * * * * * * * * * * * //

dimensions      [0 0 0 0 0 0 0];

internalField   nonuniform List<scalar> 
6584
(
0.00632781
0.00632781
0.00632781
0.00632781
0.00632781
0.00632781
0.00632781
0.00632782
0.00632782
0.00632782
0.00632782
0.00632782
0.00632782
0.00632782
0.00632782
0.00632782
0.00632782
0.00632781
0.00632781
0.00632781
0.00632781
0.00632781
0.00632781
0.00632781
0.00632561
0.00632561
0.00632561
0.00632562
0.00632562
0.00632562
0.00632562
0.00632563
0.00632563
0.00632563
0.00632563
0.00632563
0.00632563
0.00632563
0.00632563
0.00632563
0.00632563
0.00632563
0.00632562
0.00632562
0.00632562
0.00632561
0.00632561
0.00632561
0.00632341
0.00632342
0.00632342
0.00632342
0.00632342
0.00632342
0.00632343
0.00632344
0.00632345
0.00632454
0.00632454
0.00632454
0.00632454
0.00632454
0.00632454
0.00632345
0.00632344
0.00632344
0.00632343
0.00632343
0.00632342
0.00632342
0.00632342
0.00632341
0.00632122
0.00632122
0.00632122
0.00632123
0.00632123
0.00632123
0.00632124
0.00632125
0.00632126
0.00632235
0.00632235
0.00632234
0.00632234
0.00632235
0.00632235
0.00632235
0.00632125
0.00632124
0.00632124
0.00632123
0.00632123
0.00632123
0.00632122
0.00632122
0.00631902
0.00631903
0.00631903
0.00631903
0.00631904
0.00631904
0.00631904
0.00631904
0.00632015
0.00632016
0.00632014
0.00632013
0.00632013
0.00632013
0.00632015
0.00632016
0.00632015
0.00631906
0.00631905
0.00631904
0.00631904
0.00631903
0.00631903
0.00631903
0.00631683
0.00631683
0.00631684
0.00631684
0.00631685
0.00631685
0.00631686
0.00631795
0.00631794
0.00631793
0.00631848
0.00631845
0.00631844
0.00631846
0.00631794
0.00631797
0.00631797
0.00631689
0.00631687
0.00631686
0.00631685
0.00631684
0.00631684
0.00631683
0.00631464
0.00631464
0.00631465
0.00631465
0.00631466
0.00631466
0.00631468
0.00631576
0.00631575
0.00631574
0.00631622
0.00631645
0.00631641
0.00631619
0.0063163
0.00631579
0.0063158
0.00631473
0.00631469
0.00631468
0.00631467
0.00631466
0.00631465
0.00631464
0.00631245
0.00631245
0.00631246
0.00631246
0.00631247
0.00631248
0.00631251
0.00631358
0.00631358
0.00631358
0.00631402
0.00631411
0.00631418
0.00631412
0.00631365
0.00631365
0.00631257
0.00631253
0.0063125
0.00631249
0.00631247
0.00631246
0.00631246
0.00631026
0.00631026
0.00631027
0.00631028
0.00631029
0.00631031
0.00631034
0.00631142
0.00631143
0.00631145
0.00631189
0.00631199
0.00631206
0.00631203
0.00631155
0.00631152
0.00631043
0.00631036
0.00631033
0.00631031
0.00631029
0.00631028
0.00631027
0.00630807
0.00630807
0.00630808
0.0063081
0.00630811
0.00630814
0.00630818
0.00630926
0.00630928
0.00630935
0.00630982
0.00631
0.00631012
0.00631
0.00630946
0.0063094
0.00630829
0.0063082
0.00630816
0.00630813
0.00630811
0.00630809
0.00630808
0.00630588
0.00630589
0.0063059
0.00630591
0.00630593
0.00630596
0.00630602
0.0063071
0.00630715
0.00630724
0.00630776
0.00630802
0.00630821
0.00630799
0.00630739
0.00630729
0.00630615
0.00630605
0.00630599
0.00630595
0.00630592
0.00630591
0.00630589
0.00630369
0.0063037
0.00630371
0.00630373
0.00630376
0.00630379
0.00630385
0.00630495
0.00630501
0.00630512
0.00630567
0.00630598
0.00630622
0.00630595
0.0063053
0.00630517
0.006304
0.00630389
0.00630382
0.00630377
0.00630374
0.00630372
0.0063037
0.0063015
0.00630151
0.00630153
0.00630155
0.00630158
0.00630162
0.00630168
0.00630278
0.00630286
0.00630297
0.00630355
0.00630383
0.00630411
0.00630387
0.00630319
0.00630305
0.00630185
0.00630173
0.00630165
0.0063016
0.00630155
0.00630153
0.00630151
0.00629932
0.00629933
0.00629934
0.00629937
0.0062994
0.00629944
0.00629951
0.00629956
0.00630068
0.00630079
0.00630136
0.0063015
0.00482872
0.00630156
0.00630172
0.00630105
0.0063009
0.00629969
0.00629956
0.00629948
0.00629941
0.00629937
0.00629934
0.00629932
0.00629713
0.00629714
0.00629716
0.00629718
0.00629722
0.00629726
0.00629732
0.00629736
0.00629848
0.00629859
0.00629917
0.00629888
0.00590608
0.00629927
0.00629896
0.00629889
0.0062976
0.00629751
0.00629737
0.00629729
0.00629723
0.00629718
0.00629715
0.00629712
0.00629494
0.00629495
0.00629497
0.006295
0.00629503
0.00629508
0.00629513
0.00629518
0.0062963
0.00629641
0.00629646
0.00629657
0.00593476
0.0062965
0.00629678
0.00629672
0.00629543
0.00629533
0.00629518
0.0062951
0.00629504
0.00629498
0.00629495
0.00629493
0.00629275
0.00629277
0.00629278
0.00629281
0.00629285
0.00629289
0.00629294
0.006293
0.00629308
0.00629425
0.00629429
0.00628839
0.00611685
0.00629422
0.00629459
0.00629454
0.00629325
0.00629314
0.006293
0.00629291
0.00629284
0.00629278
0.00629275
0.00629272
0.00629056
0.00629058
0.0062906
0.00629063
0.00629067
0.0062907
0.00629076
0.00629083
0.00629091
0.00629101
0.00629211
0.00628141
0.00611935
0.00629194
0.00629133
0.0062912
0.00629106
0.00629095
0.00629081
0.00629071
0.00629064
0.00629058
0.00629055
0.00629051
0.00628837
0.00628839
0.00628841
0.00628844
0.00628848
0.00628852
0.00628858
0.00628866
0.00628875
0.00628885
0.00628783
0.0061106
0.00620351
0.00628877
0.00628915
0.00628901
0.00628888
0.00628876
0.00628861
0.00628851
0.00628844
0.00628838
0.00628835
0.00628831
0.00628618
0.0062862
0.00628623
0.00628626
0.0062863
0.00628634
0.00628641
0.00628649
0.00628659
0.00628668
0.00628491
0.00610922
0.00620203
0.0062865
0.00628696
0.00628683
0.00628669
0.00628657
0.00628642
0.00628631
0.00628624
0.00628618
0.00628614
0.0062861
0.006284
0.00628402
0.00628404
0.00628408
0.00628412
0.00628416
0.00628423
0.00628433
0.00628443
0.00628451
0.00628207
0.00610778
0.00620047
0.00628423
0.00628478
0.00628465
0.00628451
0.00628438
0.00628422
0.00628412
0.00628404
0.00628397
0.00628393
0.00628389
0.00628181
0.00628183
0.00628185
0.00628189
0.00628194
0.00628198
0.00628206
0.00628216
0.00628227
0.00628234
0.0062793
0.00610631
0.00619885
0.00628196
0.00628259
0.00628247
0.00628232
0.00628219
0.00628203
0.00628192
0.00628184
0.00628177
0.00628173
0.00628168
0.00627962
0.00627964
0.00627967
0.00627971
0.00627975
0.0062798
0.00627989
0.00628
0.00628011
0.00628017
0.00627658
0.00610479
0.0061972
0.00627969
0.0062804
0.00628029
0.00628014
0.00627999
0.00627983
0.00627972
0.00627963
0.00627956
0.00627952
0.00627947
0.00627743
0.00627746
0.00627748
0.00627753
0.00627757
0.00627763
0.00627771
0.00627784
0.00627796
0.006278
0.00627393
0.00610325
0.00619551
0.00627741
0.00627821
0.00627811
0.00627795
0.0062778
0.00627763
0.00627751
0.00627743
0.00627736
0.00627731
0.00627726
0.00627525
0.00627527
0.0062753
0.00627534
0.0062754
0.00627545
0.00627554
0.00627568
0.00627581
0.00627583
0.00627134
0.00610167
0.00619379
0.00627513
0.00627602
0.00627593
0.00627577
0.00627561
0.00627544
0.00627531
0.00627522
0.00627515
0.0062751
0.00627505
0.00627306
0.00627309
0.00627312
0.00627316
0.00627322
0.00627328
0.00627338
0.00627352
0.00627366
0.00627365
0.00626872
0.00610009
0.00619207
0.00627285
0.00627383
0.00627375
0.00627358
0.00627341
0.00627324
0.00627311
0.00627302
0.00627294
0.0062729
0.00627284
0.00627087
0.0062709
0.00627093
0.00627098
0.00627104
0.0062711
0.00627121
0.00627136
0.00627151
0.00627147
0.00626609
0.00609853
0.00619038
0.00627057
0.00627164
0.00627158
0.0062714
0.00627123
0.00627105
0.00627092
0.00627082
0.00627074
0.00627069
0.00627064
0.00626869
0.00626872
0.00626875
0.0062688
0.00626886
0.00626893
0.00626904
0.0062692
0.00626936
0.0062693
0.00626352
0.00609694
0.00618867
0.00626829
0.00626944
0.0062694
0.00626922
0.00626904
0.00626886
0.00626872
0.00626862
0.00626854
0.00626849
0.00626843
0.0062665
0.00626653
0.00626657
0.00626662
0.00626668
0.00626676
0.00626687
0.00626705
0.00626721
0.00626712
0.00626099
0.00609532
0.00618694
0.006266
0.00626725
0.00626722
0.00626704
0.00626685
0.00626666
0.00626652
0.00626642
0.00626634
0.00626628
0.00626623
0.00626432
0.00626435
0.00626439
0.00626444
0.00626451
0.00626459
0.00626471
0.00626489
0.00626506
0.00626494
0.00625851
0.00609367
0.00618519
0.00626372
0.00626505
0.00626504
0.00626486
0.00626466
0.00626447
0.00626432
0.00626422
0.00626413
0.00626408
0.00626402
0.00626214
0.00626217
0.00626221
0.00626226
0.00626233
0.00626242
0.00626255
0.00626274
0.00626291
0.00626276
0.00625606
0.00609199
0.00618342
0.00626143
0.00626284
0.00626286
0.00626268
0.00626247
0.00626228
0.00626213
0.00626202
0.00626193
0.00626187
0.00626182
0.00625995
0.00625998
0.00626003
0.00626008
0.00626016
0.00626025
0.00626039
0.00626059
0.00626076
0.00626058
0.00625365
0.00609027
0.00618162
0.00625914
0.00626064
0.00626068
0.0062605
0.00626029
0.00626008
0.00625993
0.00625982
0.00625973
0.00625967
0.00625961
0.00625777
0.0062578
0.00625785
0.00625791
0.00625798
0.00625808
0.00625823
0.00625844
0.00625861
0.0062584
0.00625128
0.00608853
0.00617981
0.00625684
0.00625843
0.00625849
0.00625831
0.0062581
0.00625789
0.00625773
0.00625762
0.00625752
0.00625746
0.00625741
0.00625559
0.00625562
0.00625567
0.00625573
0.00625581
0.00625592
0.00625607
0.00625628
0.00625646
0.00625621
0.00624893
0.00608676
0.00617797
0.00625455
0.00625622
0.00625631
0.00625613
0.00625591
0.0062557
0.00625554
0.00625542
0.00625532
0.00625526
0.0062552
0.00625341
0.00625344
0.00625349
0.00625355
0.00625364
0.00625375
0.00625391
0.00625413
0.0062543
0.00625403
0.00624659
0.00608497
0.00617611
0.00625226
0.006254
0.00625412
0.00625395
0.00625373
0.00625351
0.00625334
0.00625322
0.00625312
0.00625305
0.006253
0.00625122
0.00625126
0.00625131
0.00625138
0.00625147
0.00625158
0.00625175
0.00625198
0.00625215
0.00625184
0.00624422
0.00608317
0.00617421
0.00624996
0.00625178
0.00625193
0.00625176
0.00625154
0.00625131
0.00625114
0.00625102
0.00625091
0.00625085
0.00625079
0.00631225
0.00631229
0.00631412
0.00631025
0.00631035
0.00631204
0.00630827
0.00630844
0.00631011
0.00630624
0.00630647
0.0063082
0.0063041
0.00630437
0.00630621
0.00630179
0.00482234
0.00478092
0.00630211
0.0063041
0.0063144
0.00631641
0.00631441
0.00631645
0.00631242
0.00631228
0.00631417
0.00631302
0.00631405
0.00631232
0.0063125
0.00631407
0.00631033
0.00631026
0.00631202
0.00631124
0.00630995
0.00631167
0.00630585
0.00631114
0.00631036
0.00631049
0.00631199
0.00630827
0.00630828
0.00631002
0.00630926
0.00630578
0.00630688
0.006247
0.00627919
0.00630845
0.0063085
0.00630999
0.0063062
0.00630624
0.00630803
0.00630727
0.00630504
0.00630529
0.00628931
0.00626251
0.00630648
0.00630649
0.006308
0.00630179
0.00630169
0.00630438
0.00630442
0.00630597
0.00630196
0.00630238
0.00629946
0.00526267
0.00482434
0.00558416
0.00629967
0.0063018
0.00631188
0.00631298
0.00631303
0.00631293
0.00631125
0.00631408
0.00631307
0.00631135
0.00631295
0.00631304
0.00631293
0.00631178
0.00630715
0.0063096
0.00631099
0.00630667
0.0062994
0.0063108
0.00630713
0.00628156
0.00630558
0.00631107
0.00630816
0.00630161
0.00631164
0.00630836
0.00631131
0.00630532
0.0063057
0.00630902
0.00629782
0.00630052
0.00629912
0.0062977
0.00626151
0.00624525
0.00630916
0.00629766
0.00629897
0.00630141
0.00629788
0.0063094
0.00629921
0.00630083
0.00630071
0.0062989
0.00630141
0.00629087
0.00630722
0.00630274
0.00630451
0.00629905
0.00630251
0.00630746
0.00630169
0.00630167
0.00630099
0.00630165
0.00630239
0.00630195
0.00630451
0.00630422
0.00630544
0.00630111
0.00629924
0.00630163
0.00630121
0.00630093
0.00630186
0.00631329
0.00631312
0.00631414
0.00631319
0.00631395
0.00630409
0.0063041
0.00630598
0.00630518
0.00630401
0.00630457
0.00624863
0.00621825
0.00630214
0.00630229
0.00630389
0.00631401
0.00631329
0.00631411
0.00631306
0.00631331
0.00630464
0.006305
0.00630701
0.00547907
0.00563484
0.00607433
0.00613922
0.00564417
0.00581587
0.00621247
0.00615986
0.00630517
0.00630415
0.0063035
0.00614695
0.00618594
0.00630339
0.00630254
0.00630326
0.0063153
0.00631519
0.00631424
0.00631421
0.00631518
0.0063153
0.00631305
0.00631345
0.00631318
0.006314
0.00631328
0.00631359
0.00630786
0.00630903
0.00626577
0.00626735
0.00627999
0.00627687
0.00630109
0.00615417
0.00630294
0.00627133
0.00625202
0.00625189
0.00627093
0.00630226
0.0062916
0.00631245
0.00625251
0.00630551
0.00624169
0.00631223
0.00630714
0.00631324
0.00631349
0.00631286
0.00629741
0.00631227
0.00631237
0.00630235
0.00630191
0.00630959
0.00630932
0.00629193
0.00629321
0.00630259
0.00631057
0.00631097
0.00631006
0.00631044
0.00630247
0.00631033
0.00631162
0.006312
0.0063111
0.00631149
0.00630989
0.00629917
0.00629932
0.00629778
0.00629768
0.00622447
0.00622734
0.00629578
0.00630861
0.00630897
0.00630815
0.0063085
0.00629567
0.00630016
0.00630956
0.00630993
0.00630908
0.00630944
0.00629997
0.00549645
0.00630003
0.00569026
0.00552434
0.00587385
0.00570172
0.00630025
0.00629751
0.00553968
0.00629786
0.00629832
0.0062976
0.00630065
0.00630768
0.00630803
0.0063072
0.00630756
0.00630104
0.00597406
0.00606051
0.00630137
0.00601055
0.00588611
0.00610839
0.00602394
0.00630146
0.00583221
0.00596035
0.00630233
0.0062148
0.00624819
0.0061608
0.00620836
0.00630227
0.0061475
0.00617911
0.00619183
0.00521981
0.00619029
0.00617392
0.00524202
0.00627205
0.00627307
0.00631379
0.00630193
0.00630184
0.00630383
0.006303
0.00630236
0.00630316
0.00549678
0.00629793
0.00630007
0.00631383
0.00630318
0.00630391
0.00630492
0.00539609
0.00543575
0.00457799
0.00616788
0.00616301
0.00547557
0.00554449
0.0062611
0.00627178
0.00416637
0.00631459
0.00631464
0.0063141
0.00631405
0.00631462
0.00631459
0.00631077
0.00631153
0.00631114
0.0063062
0.00630494
0.00631022
0.00630612
0.00630949
0.00630912
0.00630999
0.00630961
0.00630627
0.00625589
0.00627467
0.00628535
0.00626496
0.00608259
0.00604118
0.0063022
0.00627291
0.00628492
0.00629655
0.00629572
0.00523403
0.00631364
0.00631341
0.00631406
0.00631174
0.00630801
0.00630577
0.00631251
0.00631266
0.00631307
0.00631213
0.00631253
0.00631236
0.00630808
0.0063105
0.00631012
0.00631101
0.00631063
0.00630843
0.00630466
0.00623083
0.00627201
0.00620913
0.00621396
0.00630037
0.00627593
0.00627972
0.00630816
0.00628581
0.00629764
0.00630502
0.00631029
0.00631045
0.00630913
0.0063094
0.00630198
0.006309
0.00630863
0.00630551
0.00629851
0.00620079
0.00617859
0.0062984
0.00620203
0.00620799
0.00617461
0.00617689
0.00629749
0.00624701
0.00623473
0.00629658
0.00630781
0.00630796
0.00630693
0.00630747
0.00629772
0.00630094
0.0063088
0.00630904
0.00630801
0.00630818
0.00629889
0.00630032
0.00623419
0.00624911
0.00621183
0.00620346
0.00629418
0.00630445
0.00630671
0.00630708
0.00630621
0.00630659
0.00630448
0.00630174
0.00616992
0.00611754
0.00622294
0.0062083
0.00630174
0.00574091
0.00577045
0.0063015
0.00623872
0.0062274
0.00570276
0.00573212
0.00613174
0.00609328
0.00631353
0.0063138
0.00631364
0.00603858
0.00623741
0.0060602
0.00608236
0.00607175
0.00623345
0.00631373
0.00631357
0.00631389
0.00631334
0.00631363
0.00549857
0.0055492
0.00542455
0.00540234
0.00610557
0.00556338
0.00553263
0.00563576
0.00557258
0.00611394
0.00569112
0.00572431
0.00619257
0.00618378
0.00616651
0.00573161
0.00566867
0.00555199
0.00558831
0.00631264
0.00631313
0.00631339
0.00631269
0.00631304
0.00631242
0.00630636
0.00631002
0.00625758
0.00627306
0.00628439
0.0062666
0.00615981
0.00625879
0.0062483
0.00626993
0.0062621
0.0061587
0.0062248
0.006215
0.00624501
0.00623022
0.00626468
0.00614282
0.00616732
0.00609897
0.00613097
0.00626184
0.00601919
0.00602973
0.00627779
0.0063107
0.00630873
0.00631257
0.00631128
0.00628463
0.00629757
0.00629438
0.00630727
0.0062991
0.00631198
0.00631317
0.00631276
0.0063113
0.00630986
0.00631094
0.00630852
0.00631188
0.00630927
0.00631183
0.00631255
0.00630977
0.00631154
0.00631264
0.00631208
0.00631116
0.00621982
0.00622521
0.00630395
0.00615904
0.00612377
0.00623569
0.00616336
0.00607471
0.00604014
0.00611326
0.00609208
0.00630074
0.00621576
0.00621867
0.00626132
0.00625345
0.00629284
0.00627018
0.00624887
0.00624373
0.00625279
0.00624999
0.00630846
0.00628056
0.00628305
0.00628721
0.00629693
0.00630987
0.00631018
0.00630374
0.00630213
0.00630949
0.00630977
0.00620796
0.00620475
0.0062987
0.00598133
0.00599019
0.00583019
0.00596149
0.0059936
0.00603768
0.00598963
0.00599075
0.00619304
0.0062001
0.00629821
0.00598356
0.00594375
0.00603415
0.00599463
0.00586129
0.00582346
0.00592689
0.00588416
0.00629754
0.00618114
0.00618995
0.00623698
0.00623228
0.00630764
0.00630777
0.00629634
0.00629687
0.0063075
0.0063076
0.0063085
0.00630872
0.00630078
0.0062991
0.00630824
0.00630843
0.00553368
0.00559947
0.00621244
0.00622825
0.00619018
0.00620656
0.00554505
0.00580665
0.00624813
0.00621867
0.00623245
0.00624446
0.00577114
0.00610687
0.00612024
0.00606199
0.00610182
0.00559387
0.00616669
0.00618538
0.00612667
0.00615691
0.00559679
0.00622104
0.0062305
0.0062999
0.00618736
0.0062017
0.00621053
0.0061875
0.00620203
0.00629501
0.00619901
0.00621334
0.00600911
0.0053773
0.00539335
0.00550922
0.00538901
0.00602161
0.00542787
0.00587956
0.00539969
0.00590094
0.00618504
0.00627875
0.00627234
0.00628628
0.0062809
0.00618933
0.00612625
0.00613219
0.00578425
0.00581535
0.00561443
0.00568934
0.00615849
0.00614072
0.00631446
0.00631461
0.00631626
0.00630298
0.00630237
0.00630145
0.00631427
0.0063143
0.00631396
0.00631388
0.00631427
0.00631426
0.00631528
0.00631523
0.00631427
0.00631205
0.00631166
0.00631101
0.00630598
0.0062982
0.00629709
0.00624926
0.00627767
0.00630801
0.00630764
0.00630518
0.00622872
0.00622398
0.00626322
0.00625249
0.00626037
0.00630235
0.00631241
0.00631257
0.00631218
0.00630409
0.00630641
0.00631162
0.00631273
0.00631228
0.00631272
0.00631054
0.00629451
0.00630311
0.00628299
0.00629594
0.00629469
0.00630483
0.0063059
0.006306
0.00630174
0.00631067
0.00631085
0.00630877
0.00630545
0.0063085
0.00630814
0.00622073
0.00621144
0.00629996
0.00625965
0.00623536
0.00623329
0.0062435
0.00629744
0.00630447
0.00630452
0.00630124
0.00630569
0.0063058
0.00630457
0.00630463
0.00629816
0.00629683
0.00623491
0.00622533
0.00629928
0.00630678
0.00630686
0.00630443
0.0063057
0.00630608
0.00535383
0.00535089
0.00625019
0.00624201
0.00630143
0.00536103
0.00535729
0.00628607
0.00628859
0.00630154
0.00631328
0.00631321
0.00546851
0.00544169
0.00546235
0.00562165
0.00565391
0.00540254
0.005421
0.00557118
0.00554459
0.00579321
0.00612321
0.0061163
0.00616789
0.00578224
0.00574285
0.00617181
0.0063147
0.00631465
0.0063141
0.00631277
0.00631296
0.00631313
0.00631326
0.00631197
0.0063122
0.00631348
0.00631374
0.00631359
0.00630357
0.00630301
0.00630704
0.00630956
0.00630764
0.00630662
0.00626187
0.00626892
0.00624218
0.006246
0.00628203
0.006273
0.00622598
0.0062345
0.00616771
0.00616781
0.00620415
0.0061992
0.00615265
0.00616989
0.00617208
0.00630253
0.00626347
0.00627198
0.00628638
0.00626477
0.00629529
0.00629178
0.00631
0.00630847
0.00630207
0.00621776
0.0062095
0.00628286
0.00625827
0.00622312
0.00631341
0.00631326
0.00631254
0.00631242
0.00631083
0.00631167
0.00630197
0.00631074
0.0063115
0.00628395
0.00629007
0.00631033
0.00619805
0.00618931
0.00629062
0.00629445
0.00631141
0.00631157
0.00631096
0.00630893
0.00631103
0.00631122
0.0062998
0.00621027
0.0062084
0.00622469
0.00622894
0.00630515
0.00630523
0.00630034
0.00629963
0.00630499
0.00630508
0.00551542
0.00567602
0.00592485
0.00593913
0.00577425
0.00578736
0.00551078
0.006242
0.00623678
0.00629717
0.00558786
0.00557017
0.0057054
0.00570722
0.00555817
0.00575653
0.00576528
0.00556251
0.00557482
0.00630665
0.00630671
0.00629946
0.00630173
0.00630652
0.00630659
0.00595153
0.00623516
0.00624021
0.0062243
0.00622976
0.0059304
0.00623009
0.00628355
0.00628771
0.00628714
0.00628544
0.00623524
0.00617057
0.00621712
0.00621046
0.00613428
0.00612502
0.0061436
0.00539815
0.00543396
0.00543996
0.00536912
0.00620176
0.0058565
0.00580144
0.00590105
0.00586951
0.00616827
0.0060027
0.00601017
0.00617392
0.00619438
0.00627726
0.00631375
0.00631383
0.00631363
0.00539458
0.00540623
0.00575485
0.00573318
0.00452715
0.00551387
0.00542996
0.00543381
0.00540068
0.00541693
0.00553375
0.0041786
0.00613063
0.00615719
0.00631435
0.00631431
0.00631394
0.0063003
0.00629926
0.00630609
0.00630292
0.00630632
0.00630869
0.0063052
0.00630585
0.00625292
0.00627615
0.0062068
0.00621164
0.00621384
0.00620732
0.00626395
0.00622057
0.00621857
0.00607319
0.00601554
0.0060133
0.00602055
0.00602111
0.00606131
0.0063074
0.00630995
0.00631011
0.00630948
0.00630979
0.00630673
0.00628439
0.00630284
0.00629333
0.00628998
0.00630185
0.00630611
0.00630622
0.00623501
0.00623652
0.00625567
0.00623832
0.00630436
0.00630441
0.00629697
0.00630551
0.0063056
0.00630109
0.00629855
0.0063047
0.00630476
0.00621192
0.00623058
0.0062226
0.00623737
0.00623479
0.00620991
0.00534944
0.00535297
0.00537128
0.00536527
0.00571344
0.00551462
0.00550541
0.00602333
0.00602352
0.00612
0.00604457
0.00606059
0.00601657
0.00602796
0.0061064
0.00631346
0.00631338
0.00631343
0.00631342
0.00631372
0.00631375
0.00631386
0.00631355
0.00631363
0.00631361
0.00605657
0.00615038
0.00614375
0.0061683
0.00615902
0.00606432
0.00609525
0.0061197
0.00610726
0.00613826
0.00613136
0.00608496
0.00631366
0.00631373
0.00631362
0.00631273
0.00631211
0.00631345
0.00631328
0.00546907
0.00559715
0.00547917
0.00548295
0.00541763
0.00540989
0.00573475
0.00575047
0.00554595
0.00540143
0.00539159
0.005668
0.00543564
0.00542175
0.00543657
0.00576131
0.00549349
0.00543897
0.00613299
0.00614531
0.00620037
0.00610398
0.00610584
0.00609994
0.00609986
0.00617527
0.00611423
0.00612022
0.0055596
0.00536896
0.00538406
0.00536186
0.00535929
0.00557046
0.0063129
0.00631301
0.00631281
0.00631191
0.00631236
0.00631277
0.00629909
0.00630659
0.00630222
0.0063013
0.00630356
0.00630441
0.00630162
0.00630265
0.00625931
0.00627056
0.00621893
0.00622042
0.00621402
0.00621655
0.00628337
0.00624803
0.00624946
0.00621783
0.00622033
0.0062693
0.00621996
0.00618091
0.00617155
0.00615525
0.006195
0.00618973
0.00622078
0.0061725
0.00617219
0.00618632
0.00617813
0.00621789
0.00624113
0.00619804
0.0062035
0.00617872
0.00618876
0.00623605
0.00617206
0.00610964
0.00618331
0.0061766
0.00601145
0.00601707
0.00627429
0.00629834
0.00629681
0.0062712
0.00629055
0.00630443
0.00630078
0.00623208
0.00622376
0.00627369
0.00627524
0.00629546
0.00625312
0.0062423
0.0063065
0.00630854
0.00631189
0.00630989
0.0063039
0.00629572
0.00630344
0.00631052
0.00631141
0.00631167
0.00631038
0.00631082
0.00630888
0.00630656
0.00630866
0.00631205
0.00631135
0.00631089
0.00631223
0.00631157
0.00631228
0.0063102
0.00631047
0.00630943
0.00631064
0.00615194
0.00613658
0.00621511
0.00612031
0.00613224
0.00609909
0.00616785
0.00606046
0.00604895
0.0061051
0.00609936
0.00625659
0.00620718
0.00621555
0.00619523
0.00620015
0.00625449
0.00628999
0.00626522
0.006271
0.00621924
0.00625109
0.00628337
0.00618284
0.00617267
0.00624776
0.00615474
0.00616003
0.00614592
0.00615041
0.00624641
0.00625221
0.00618727
0.0061913
0.00616714
0.00617621
0.00625114
0.00628931
0.00629593
0.00598891
0.00582473
0.00584991
0.00577122
0.00579594
0.00599057
0.00586349
0.00586044
0.00586024
0.00591544
0.0060009
0.00565143
0.00567002
0.00570064
0.00565955
0.0060155
0.00598956
0.005732
0.00574999
0.00569691
0.00571696
0.00599006
0.00597575
0.0059647
0.00602709
0.00600902
0.00584244
0.00582738
0.00591377
0.00590403
0.00622902
0.00623054
0.00630053
0.00630532
0.00630541
0.00630483
0.0063049
0.00629932
0.00553106
0.00587521
0.00590456
0.00565027
0.00551231
0.00580909
0.00584055
0.00563451
0.00560979
0.00611108
0.00585562
0.00585241
0.00608184
0.00581204
0.00575892
0.00584734
0.00583657
0.00609439
0.00569295
0.00566245
0.00571803
0.00574356
0.00557765
0.00560865
0.00566563
0.00622521
0.00626075
0.00625762
0.00626538
0.00626314
0.00622785
0.00619212
0.00619927
0.0062024
0.00618911
0.00618889
0.00619363
0.00619927
0.00624342
0.00623989
0.00625329
0.00624819
0.00620507
0.00537982
0.00557653
0.00559099
0.00555553
0.00556593
0.00538614
0.00546577
0.00568125
0.00571244
0.00561361
0.00564561
0.00542108
0.00542057
0.00538123
0.00538967
0.00540401
0.00539001
0.00541312
0.00551709
0.00554149
0.00542224
0.00547078
0.00541545
0.00622742
0.00622293
0.00617965
0.00612625
0.00613931
0.00536939
0.00540077
0.00564405
0.00542888
0.00538592
0.00549269
0.00547047
0.00567036
0.00537933
0.00537717
0.00601393
0.00601464
0.00631904
0.00631903
0.00632014
0.00631901
0.006319
0.00632013
0.00631901
0.00631901
0.00632013
0.00631902
0.00631904
0.00632014
0.00631683
0.00631681
0.00631792
0.00631679
0.00631676
0.00631847
0.00631674
0.0063167
0.00631844
0.00631671
0.00631674
0.00631844
0.00631677
0.00631681
0.00631848
0.00631685
0.00631686
0.00631795
0.00631466
0.00631461
0.00631625
0.00631456
0.00631445
0.00631619
0.00631556
0.00631553
0.00631644
0.00631546
0.0063155
0.0063164
0.00631562
0.00631566
0.00631621
0.00631466
0.00631472
0.00631579
0.00631251
0.00631245
0.00631406
0.00631348
0.00631347
0.00631401
0.00631383
0.00631381
0.00631409
0.00631336
0.00631348
0.00631429
0.00631254
0.00631262
0.00631366
0.0063104
0.00631036
0.00631193
0.00631137
0.00631137
0.00631189
0.00631174
0.00631174
0.00631199
0.00631133
0.00631142
0.00631218
0.0063105
0.00631055
0.00631158
0.00630829
0.00630828
0.00630984
0.0063093
0.00630932
0.00630983
0.00630976
0.00630976
0.00631
0.00630941
0.00630946
0.00631019
0.00630849
0.0063085
0.00630953
0.00630618
0.0063062
0.00630776
0.00630724
0.00630728
0.00630779
0.00630777
0.00630778
0.00630803
0.00630748
0.00630749
0.00630823
0.00630647
0.00630644
0.00630747
0.00630405
0.00630408
0.00630567
0.00630571
0.00630571
0.00630597
0.00630545
0.00630544
0.00630621
0.00630439
0.00630435
0.0063054
0.00630189
0.00630193
0.00630355
0.00630328
0.00630334
0.00630388
0.00630226
0.00630223
0.00630329
0.00629968
0.00629968
0.00630077
0.00629971
0.00629959
0.00630127
0.00630063
0.00629978
0.00630067
0.00498081
0.00623913
0.00624583
0.00629985
0.00630011
0.00630175
0.00630006
0.00630008
0.00630116
0.0062975
0.00629751
0.0062986
0.00629755
0.00629735
0.00629903
0.00629715
0.0056511
0.00563871
0.00592897
0.00629728
0.00629907
0.00629753
0.0062979
0.00629954
0.00629787
0.0062979
0.00629898
0.00629537
0.00629522
0.00629634
0.00629171
0.00594472
0.00565473
0.00611512
0.00629455
0.00629668
0.00629536
0.0062957
0.0062968
0.00631225
0.0063125
0.0063125
0.00631254
0.00631262
0.00631222
0.00631411
0.00631383
0.00631385
0.00631025
0.0063105
0.0063105
0.00631059
0.00631055
0.00631018
0.00631208
0.00631169
0.0063118
0.00630828
0.00630853
0.00630852
0.00630868
0.00630862
0.00630827
0.00631006
0.00630969
0.00630987
0.00630623
0.0063065
0.0063065
0.00630672
0.00630668
0.00630634
0.00630815
0.00630779
0.00630795
0.00630464
0.00630453
0.00630426
0.00630609
0.00630583
0.00630596
0.00630097
0.00630208
0.00630271
0.00452011
0.00562069
0.00561779
0.00583337
0.0058351
0.00418581
0.00630399
0.00630372
0.00630382
0.00631429
0.00631523
0.00631527
0.006314
0.006314
0.00631391
0.00631641
0.0063155
0.00631546
0.00631397
0.00631399
0.0063147
0.00631468
0.00631438
0.00631644
0.00631554
0.00631557
0.00631241
0.00631293
0.00631294
0.00631307
0.00631292
0.0063124
0.00631398
0.00631345
0.00631334
0.00631317
0.00631312
0.00631283
0.00631403
0.00631386
0.0063139
0.00631244
0.00631321
0.00631309
0.00631302
0.00631302
0.00631251
0.00631406
0.00631354
0.00631354
0.00631034
0.00631086
0.00631085
0.00631101
0.00631086
0.00631036
0.00631188
0.00631137
0.00631126
0.00631124
0.00631149
0.00631149
0.00631024
0.00631095
0.00631077
0.00631191
0.00631176
0.00631146
0.00631033
0.00630945
0.00631081
0.00631044
0.00631118
0.00631108
0.00631098
0.00631101
0.00631052
0.00631201
0.00631151
0.00631149
0.0063083
0.00630881
0.00630879
0.00630902
0.00630884
0.00630833
0.00630985
0.00630935
0.00630927
0.00630927
0.00630951
0.00630951
0.00630588
0.00630831
0.0063082
0.00630912
0.00630897
0.00630665
0.00630848
0.00630922
0.00630917
0.00630899
0.00630904
0.00630855
0.00631003
0.00630953
0.00630949
0.00630624
0.00630676
0.00630672
0.00630701
0.0063068
0.00630628
0.00630783
0.00630731
0.00630727
0.00630727
0.00630752
0.00630752
0.00630515
0.00630751
0.00630714
0.00630723
0.00630713
0.00630526
0.00628776
0.00625583
0.00626009
0.00630648
0.00630723
0.00630723
0.00630699
0.00630705
0.00630655
0.00630806
0.00630756
0.0063075
0.00630159
0.00628235
0.00628698
0.00629387
0.00629472
0.00630194
0.00630441
0.00630493
0.00630519
0.00630494
0.006305
0.00630448
0.00630604
0.00630552
0.00630546
0.00630205
0.00630015
0.00630021
0.00629905
0.00629933
0.00630235
0.00629889
0.00629949
0.00630004
0.00524119
0.00629541
0.006294
0.00616383
0.00616297
0.00483768
0.00629699
0.00629769
0.0055218
0.00630026
0.00629983
0.00629915
0.00630114
0.00630013
0.00630091
0.00631207
0.0063122
0.00631206
0.0063131
0.0063127
0.00631256
0.00631276
0.00631276
0.00631302
0.00631279
0.00631231
0.00631289
0.00631393
0.00631391
0.00631406
0.00631301
0.00631317
0.00631321
0.00631149
0.00631091
0.00631071
0.00631293
0.00631284
0.00631288
0.00631303
0.00631276
0.00631278
0.00631279
0.00631284
0.00631297
0.00631201
0.00631215
0.00631202
0.00630744
0.00630946
0.00630929
0.00631059
0.0063104
0.0063092
0.00631074
0.00631074
0.00631099
0.0063061
0.00630003
0.00630149
0.00628662
0.00628706
0.0062997
0.00630248
0.00630321
0.00630751
0.00631105
0.00631068
0.00631083
0.0063078
0.0063093
0.00630953
0.00631112
0.00631172
0.00631187
0.00630969
0.00630982
0.0063085
0.00631155
0.00631156
0.00631118
0.00630536
0.00630744
0.00630734
0.00630808
0.00630797
0.00630563
0.00630877
0.00630877
0.00630902
0.00629806
0.00628507
0.00628451
0.00629092
0.0062904
0.00630032
0.00629886
0.00628584
0.00628622
0.00628411
0.00628386
0.00629755
0.0063091
0.00630874
0.00630892
0.00630484
0.00630478
0.00629879
0.00630963
0.00630957
0.00630922
0.0062995
0.0062684
0.00626295
0.00628764
0.00628667
0.00630066
0.0063009