/*--------------------------------*- C++ -*----------------------------------*\
| =========                 |                                                 |
| \\      /  F ield         | OpenFOAM: The Open Source CFD Toolbox           |
|  \\    /   O peration     | Version:  5.x                                   |
|   \\  /    A nd           | Web:      www.OpenFOAM.org                      |
|    \\/     M anipulation  |                                                 |
\*---------------------------------------------------------------------------*/
FoamFile
{
    version     2.0;
    format      ascii;
    class       volScalarField;
    location    "100";
    object      YSat;
}
// * * * * * * * * * * * * * * * * * * * * * * * * * * * * * * * * * * * * * //

dimensions      [0 0 0 0 0 0 0];

internalField   nonuniform List<scalar> 
6584
(
0.00431405
0.00431405
0.00431405
0.00431405
0.00431405
0.00431405
0.00431405
0.00431405
0.00431405
0.00431405
0.00431405
0.00431405
0.00431405
0.00431405
0.00431405
0.00431405
0.00431405
0.00431405
0.00431405
0.00431405
0.00431405
0.00431405
0.00431405
0.00431405
0.00431405
0.00431405
0.00431405
0.00431405
0.00431405
0.00431405
0.00431405
0.00431405
0.00431405
0.00431405
0.00431405
0.00431405
0.00431405
0.00431405
0.00431405
0.00431405
0.00431405
0.00431405
0.00431405
0.00431405
0.00431405
0.00431405
0.00431405
0.00431405
0.00431405
0.00431405
0.00431405
0.00431405
0.00431405
0.00431405
0.00431405
0.00431405
0.00431405
0.00431405
0.00431405
0.00431405
0.00431405
0.00431405
0.00431405
0.00431405
0.00431405
0.00431405
0.00431405
0.00431405
0.00431405
0.00431405
0.00431405
0.00431405
0.00431405
0.00431405
0.00431405
0.00431405
0.00431405
0.00431405
0.00431405
0.00431405
0.00431405
0.00431405
0.00431405
0.00431405
0.00431405
0.00431405
0.00431405
0.00431405
0.00431405
0.00431405
0.00431405
0.00431405
0.00431405
0.00431405
0.00431405
0.00431405
0.00431405
0.00431405
0.00431405
0.00431405
0.00431405
0.00431405
0.00431405
0.00431405
0.00431405
0.00431405
0.00431405
0.00431405
0.00431405
0.00431405
0.00431405
0.00431405
0.00431405
0.00431405
0.00431405
0.00431405
0.00431405
0.00431405
0.00431405
0.00431405
0.00431405
0.00431405
0.00431405
0.00431405
0.00431405
0.00431405
0.00431405
0.00431405
0.00431405
0.00431405
0.00431405
0.00431405
0.00431405
0.00431405
0.00431405
0.00431405
0.00431405
0.00431405
0.00431405
0.00431405
0.00431405
0.00431405
0.00431405
0.00431405
0.00431405
0.00431405
0.00431405
0.00431405
0.00431405
0.00431405
0.00431405
0.00431405
0.00431405
0.00431405
0.00431405
0.00431405
0.00431405
0.00431405
0.00431405
0.00431405
0.00431405
0.00431405
0.00431405
0.00431405
0.00431405
0.00431405
0.00431405
0.00431405
0.00431405
0.00431405
0.00431405
0.00431405
0.00431405
0.00431405
0.00431405
0.00431405
0.00431405
0.00431405
0.00431405
0.00431405
0.00431405
0.00431405
0.00431405
0.00431405
0.00431405
0.00431405
0.00431405
0.00431405
0.00431405
0.00431405
0.00431405
0.00431405
0.00431405
0.00431405
0.00431405
0.00431405
0.00431405
0.00431405
0.00431405
0.00431405
0.00431405
0.00431405
0.00431405
0.00431405
0.00431405
0.00431405
0.00431405
0.00431405
0.00431405
0.00431405
0.00431405
0.00431405
0.00431405
0.00431405
0.00431405
0.00431405
0.00431405
0.00431405
0.00431405
0.00431405
0.00431405
0.00431405
0.00431405
0.00431405
0.00431405
0.00431405
0.00431405
0.00431405
0.00431405
0.00431405
0.00431405
0.00431405
0.00431405
0.00431405
0.00431405
0.00431405
0.00431405
0.00431405
0.00431405
0.00431405
0.00431405
0.00431405
0.00431405
0.00431405
0.00431405
0.00431405
0.00431405
0.00431405
0.00431405
0.00431405
0.00431405
0.00431405
0.00431405
0.00431405
0.00431405
0.00431405
0.00431405
0.00431405
0.00431405
0.00431405
0.00431405
0.00431405
0.00431405
0.00431405
0.00431405
0.00431405
0.00431405
0.00431405
0.00431405
0.00431405
0.00431405
0.00431405
0.00431405
0.00431405
0.00431405
0.00431405
0.00431405
0.00431405
0.00431405
0.00431405
0.00431405
0.00431405
0.00431405
0.00431405
0.00431405
0.00431405
0.00431405
0.00431405
0.00431405
0.00431405
0.00431405
0.00431405
0.00431405
0.00431405
0.00431405
0.00431405
0.00431405
0.00431405
0.00431405
0.00431405
0.00431405
0.00431405
0.00431405
0.00431405
0.00431405
0.00431405
0.00431405
0.00431405
0.00431405
0.00431405
0.00431405
0.00431405
0.00431405
0.00431405
0.00431405
0.00431405
0.00431405
0.00431405
0.00375496
0.00431405
0.00431405
0.00431405
0.00431405
0.00431405
0.00431405
0.00431405
0.00431405
0.00431405
0.00431405
0.00431405
0.00431405
0.00431405
0.00431405
0.00431405
0.00431405
0.00431405
0.00431405
0.00431405
0.00431405
0.00431405
0.00431405
0.00431405
0.00418214
0.00431405
0.00431405
0.00431405
0.00431405
0.00431405
0.00431405
0.00431405
0.00431405
0.00431405
0.00431405
0.00431405
0.00431405
0.00431405
0.00431405
0.00431405
0.00431405
0.00431405
0.00431405
0.00431405
0.00431405
0.00431405
0.00431405
0.00431405
0.00419502
0.00431405
0.00431405
0.00431405
0.00431405
0.00431405
0.00431405
0.00431405
0.00431405
0.00431405
0.00431405
0.00431405
0.00431405
0.00431405
0.00431405
0.00431405
0.00431405
0.00431405
0.00431405
0.00431405
0.00431405
0.00431405
0.00431405
0.00431322
0.00425736
0.00431405
0.00431405
0.00431405
0.00431405
0.00431405
0.00431405
0.00431405
0.00431405
0.00431405
0.00431405
0.00431405
0.00431405
0.00431405
0.00431405
0.00431405
0.00431405
0.00431405
0.00431405
0.00431405
0.00431405
0.00431405
0.00431405
0.00431239
0.00425951
0.00431405
0.00431405
0.00431405
0.00431405
0.00431405
0.00431405
0.00431405
0.00431405
0.00431405
0.00431405
0.00431405
0.00431405
0.00431405
0.00431405
0.00431405
0.00431405
0.00431405
0.00431405
0.00431405
0.00431405
0.00431405
0.0043139
0.00428334
0.00428758
0.00431405
0.00431405
0.00431405
0.00431405
0.00431405
0.00431405
0.00431405
0.00431405
0.00431405
0.00431405
0.00431405
0.00431405
0.00431405
0.00431405
0.00431405
0.00431405
0.00431405
0.00431405
0.00431405
0.00431405
0.00431405
0.00431378
0.00428352
0.00428799
0.00431404
0.00431405
0.00431405
0.00431405
0.00431405
0.00431405
0.00431405
0.00431405
0.00431405
0.00431405
0.00431405
0.00431405
0.00431405
0.00431405
0.00431405
0.00431405
0.00431405
0.00431405
0.00431405
0.00431405
0.00431405
0.00431367
0.00428369
0.00428836
0.00431404
0.00431405
0.00431405
0.00431405
0.00431405
0.00431405
0.00431405
0.00431405
0.00431405
0.00431405
0.00431405
0.00431405
0.00431405
0.00431405
0.00431405
0.00431405
0.00431405
0.00431405
0.00431405
0.00431405
0.00431404
0.00431358
0.00428386
0.00428873
0.00431404
0.00431405
0.00431405
0.00431405
0.00431405
0.00431405
0.00431405
0.00431405
0.00431405
0.00431405
0.00431405
0.00431405
0.00431405
0.00431405
0.00431405
0.00431405
0.00431405
0.00431405
0.00431405
0.00431405
0.00431404
0.0043135
0.00428403
0.00428907
0.00431403
0.00431405
0.00431405
0.00431405
0.00431405
0.00431405
0.00431405
0.00431405
0.00431405
0.00431405
0.00431405
0.00431405
0.00431405
0.00431405
0.00431405
0.00431405
0.00431405
0.00431405
0.00431405
0.00431405
0.00431404
0.00431343
0.0042842
0.00428941
0.00431403
0.00431405
0.00431405
0.00431405
0.00431405
0.00431405
0.00431405
0.00431405
0.00431405
0.00431405
0.00431405
0.00431405
0.00431405
0.00431405
0.00431405
0.00431405
0.00431405
0.00431405
0.00431405
0.00431405
0.00431404
0.00431337
0.00428437
0.00428973
0.00431403
0.00431405
0.00431405
0.00431405
0.00431405
0.00431405
0.00431405
0.00431405
0.00431405
0.00431405
0.00431405
0.00431405
0.00431405
0.00431405
0.00431405
0.00431405
0.00431405
0.00431405
0.00431405
0.00431405
0.00431404
0.00431332
0.00428455
0.00429005
0.00431402
0.00431405
0.00431405
0.00431405
0.00431405
0.00431405
0.00431405
0.00431405
0.00431405
0.00431405
0.00431405
0.00431405
0.00431405
0.00431405
0.00431405
0.00431405
0.00431405
0.00431405
0.00431405
0.00431405
0.00431403
0.00431327
0.00428472
0.00429037
0.00431402
0.00431405
0.00431405
0.00431405
0.00431405
0.00431405
0.00431405
0.00431405
0.00431405
0.00431405
0.00431405
0.00431405
0.00431405
0.00431405
0.00431405
0.00431405
0.00431405
0.00431405
0.00431405
0.00431405
0.00431403
0.00431322
0.0042849
0.00429068
0.00431402
0.00431405
0.00431405
0.00431405
0.00431405
0.00431405
0.00431405
0.00431405
0.00431405
0.00431405
0.00431405
0.00431405
0.00431405
0.00431405
0.00431405
0.00431405
0.00431405
0.00431405
0.00431405
0.00431405
0.00431403
0.00431319
0.00428508
0.00429098
0.00431401
0.00431405
0.00431405
0.00431405
0.00431405
0.00431405
0.00431405
0.00431405
0.00431405
0.00431405
0.00431405
0.00431405
0.00431405
0.00431405
0.00431405
0.00431405
0.00431405
0.00431405
0.00431405
0.00431405
0.00431403
0.00431317
0.00428526
0.00429126
0.00431401
0.00431405
0.00431405
0.00431405
0.00431405
0.00431405
0.00431405
0.00431405
0.00431405
0.00431405
0.00431405
0.00431405
0.00431405
0.00431405
0.00431405
0.00431405
0.00431405
0.00431405
0.00431405
0.00431405
0.00431403
0.00431316
0.00428544
0.00429153
0.00431401
0.00431405
0.00431405
0.00431405
0.00431405
0.00431405
0.00431405
0.00431405
0.00431405
0.00431405
0.00431405
0.00431405
0.00431405
0.00431405
0.00431405
0.00431405
0.00431405
0.00431405
0.00431405
0.00431405
0.00431403
0.00431316
0.00428562
0.00429179
0.00431401
0.00431405
0.00431405
0.00431405
0.00431405
0.00431405
0.00431405
0.00431405
0.00431405
0.00431405
0.00431405
0.00431405
0.00431405
0.00431405
0.00431405
0.00431405
0.00431405
0.00431405
0.00431405
0.00431405
0.00431403
0.00431317
0.0042858
0.00429204
0.004314
0.00431405
0.00431405
0.00431405
0.00431405
0.00431405
0.00431405
0.00431405
0.00431405
0.00431405
0.00431405
0.00431405
0.00431405
0.00431405
0.00431405
0.00431405
0.00431405
0.00431405
0.00431405
0.00431405
0.00431403
0.00431318
0.00428599
0.00429227
0.004314
0.00431405
0.00431405
0.00431405
0.00431405
0.00431405
0.00431405
0.00431405
0.00431405
0.00431405
0.00431405
0.00431405
0.00431405
0.00431405
0.00431405
0.00431405
0.00431405
0.00431405
0.00431405
0.00431405
0.00431403
0.0043132
0.00428618
0.00429248
0.004314
0.00431405
0.00431405
0.00431405
0.00431405
0.00431405
0.00431405
0.00431405
0.00431405
0.00431405
0.00431405
0.00431405
0.00431405
0.00431405
0.00431405
0.00431405
0.00431405
0.00431405
0.00431405
0.00431405
0.00431403
0.00431322
0.00428638
0.00429267
0.004314
0.00431405
0.00431405
0.00431405
0.00431405
0.00431405
0.00431405
0.00431405
0.00431405
0.00431405
0.00431405
0.00431405
0.00431405
0.00431405
0.00431405
0.00431405
0.00431405
0.00431405
0.00431405
0.00431405
0.00431405
0.00431405
0.00431405
0.00431405
0.00431405
0.00431405
0.00431405
0.00395975
0.00373429
0.00431405
0.00431405
0.00431405
0.00431405
0.00431405
0.00431405
0.00431405
0.00431405
0.00431405
0.00431404
0.00431405
0.00431405
0.00431405
0.00431405
0.00431405
0.00431405
0.00431405
0.00431405
0.00431359
0.00431389
0.0043114
0.00431365
0.00431405
0.00431405
0.00431405
0.00431405
0.00431405
0.00431405
0.00431405
0.00431347
0.00431332
0.0042834
0.00429803
0.00431405
0.00431405
0.00431405
0.00431405
0.00431405
0.00431405
0.00431405
0.00431388
0.00431374
0.00430991
0.00429636
0.00431405
0.00431405
0.00431405
0.00431385
0.00431364
0.00431405
0.00431405
0.00431405
0.00431403
0.004314
0.00431405
0.00410198
0.0039572
0.00406295
0.00431405
0.00431405
0.00431394
0.00431405
0.00431405
0.00431404
0.00431359
0.00431405
0.00431404
0.00431372
0.00431404
0.00431405
0.00431405
0.00431393
0.00431332
0.00431354
0.00431405
0.00431261
0.00431185
0.00431343
0.00431269
0.00429923
0.0043113
0.00431405
0.00431265
0.0043099
0.00431389
0.00431271
0.00431405
0.00431371
0.0043135
0.00431405
0.00431273
0.00431352
0.00431187
0.00431266
0.00429553
0.00428279
0.00431405
0.00430911
0.00431122
0.00430985
0.00430912
0.00431405
0.00431368
0.00431388
0.00431356
0.00431364
0.00431358
0.00431047
0.00431405
0.00431343
0.00431391
0.00431136
0.00431335
0.00431405
0.00431399
0.00431403
0.0043139
0.00431399
0.004314
0.00431388
0.00431393
0.004314
0.00431405
0.00431404
0.00431404
0.00431403
0.00431404
0.00431404
0.00431404
0.00431405
0.00431405
0.00431405
0.00431396
0.00431405
0.00431405
0.00431405
0.00431405
0.00431405
0.00431402
0.00431399
0.00430952
0.00430345
0.00431405
0.00431405
0.00431405
0.00431405
0.00431398
0.00431405
0.00431405
0.00431405
0.00431398
0.0043139
0.00431405
0.00409871
0.00417487
0.00430052
0.00430756
0.00418115
0.00424228
0.00430207
0.00428643
0.00431405
0.00431401
0.00431403
0.00430821
0.00431112
0.00431404
0.00431404
0.00431405
0.00431405
0.00431405
0.00431405
0.00431405
0.00431405
0.00431405
0.00431391
0.00431405
0.00431399
0.00431405
0.00431401
0.00431405
0.00431217
0.00431276
0.00429177
0.00429246
0.00430562
0.00430428
0.00431374
0.00428108
0.00431388
0.00431241
0.00431005
0.00430931
0.00431207
0.00431402
0.00430136
0.00431398
0.00427869
0.00430963
0.00427256
0.00431392
0.00431057
0.00431397
0.00431405
0.00431377
0.00430478
0.00431398
0.00431399
0.0043119
0.00431186
0.00431314
0.00431308
0.00430433
0.00430497
0.00431001
0.00431401
0.00431402
0.00431399
0.00431401
0.00430999
0.00431345
0.00431404
0.00431405
0.00431403
0.00431404
0.00431325
0.00431317
0.00431322
0.00431216
0.00431221
0.00427564
0.00427655
0.00430904
0.00431399
0.00431399
0.004314
0.004314
0.00430913
0.00430962
0.00431399
0.00431399
0.00431399
0.00431399
0.0043096
0.00410171
0.00431378
0.00417171
0.00409093
0.00424257
0.00417868
0.00431381
0.00431344
0.00409318
0.0043135
0.00431283
0.00431264
0.00431246
0.00431401
0.004314
0.00431402
0.00431401
0.00431264
0.00428336
0.00429884
0.00431394
0.00428066
0.00424734
0.00429961
0.00428375
0.00431396
0.00424771
0.00428034
0.00431396
0.00430136
0.00430867
0.00428366
0.00429965
0.00431395
0.00428225
0.00431161
0.00431224
0.0041521
0.00431139
0.00431135
0.00394667
0.00431266
0.00431259
0.00431403
0.00431405
0.00431405
0.00431405
0.00431405
0.00431404
0.00431404
0.00402567
0.00431392
0.00431404
0.00431404
0.00431404
0.00431403
0.00431405
0.00417528
0.00419322
0.00388649
0.00431166
0.00431184
0.00420628
0.00422966
0.00430966
0.0043127
0.00348004
0.00431405
0.00431405
0.00431405
0.00431405
0.00431405
0.00431405
0.00431372
0.00431404
0.00431404
0.00431145
0.00431014
0.00431325
0.00431338
0.00431403
0.00431403
0.00431403
0.00431403
0.00431336
0.00428728
0.00429589
0.00430826
0.00429854
0.00427067
0.00425548
0.00431403
0.0043123
0.00431328
0.00431402
0.00431403
0.00410042
0.00431405
0.00431403
0.00431405
0.00431384
0.00431172
0.00431056
0.00431404
0.00431405
0.00431405
0.00431405
0.00431405
0.00431402
0.00431336
0.00431403
0.00431403
0.00431404
0.00431403
0.00431338
0.00431223
0.00428488
0.00430066
0.00428232
0.00428272
0.00431182
0.00430175
0.00430202
0.00431285
0.00430129
0.00430715
0.00431111
0.00431378
0.0043138
0.00431361
0.00431364
0.00430993
0.00431403
0.00431403
0.00431359
0.00431294
0.00428869
0.00428019
0.00431196
0.00428162
0.0042824
0.00427826
0.00427715
0.00431246
0.0042879
0.00427844
0.00430892
0.00431369
0.00431365
0.00431376
0.00431383
0.00431044
0.00430977
0.00431358
0.0043136
0.00431364
0.00431361
0.00430935
0.00431334
0.00429784
0.00430291
0.0042843
0.00428282
0.00431163
0.00431382
0.00431403
0.00431402
0.00431404
0.00431403
0.00431384
0.00431401
0.00430789
0.00430105
0.00431131
0.00431018
0.00431402
0.00428157
0.00428753
0.00431404
0.00431235
0.00431162
0.00427214
0.00427948
0.00428649
0.00427444
0.00431403
0.00431404
0.00431404
0.00425257
0.00430753
0.00425927
0.00426799
0.00426268
0.00430673
0.00431405
0.00431401
0.00431405
0.0043139
0.00431404
0.004115
0.00413644
0.00417353
0.00417456
0.0043042
0.00422082
0.0042051
0.00424448
0.00422542
0.00430513
0.00420353
0.00421455
0.00429679
0.0042943
0.00430976
0.00426695
0.00425209
0.00423355
0.00424668
0.00431378
0.00431403
0.00431404
0.00431395
0.00431402
0.00431369
0.00431148
0.00431318
0.00428796
0.00429514
0.00430775
0.00429955
0.00428065
0.00430775
0.00430501
0.00431022
0.00430852
0.00428083
0.00429772
0.0042935
0.00430402
0.00429953
0.00431168
0.00428812
0.00429521
0.00427374
0.00428457
0.00431135
0.00424734
0.00424993
0.00429328
0.00431286
0.00431179
0.00431383
0.00431317
0.00429729
0.00430573
0.00430441
0.00431097
0.00430648
0.00431338
0.00431402
0.00431391
0.00431294
0.00431211
0.00431326
0.00431197
0.00431387
0.00431228
0.0043136
0.0043139
0.00431254
0.00431346
0.00431403
0.00431377
0.00431335
0.00428247
0.00428307
0.0043121
0.00425432
0.00423953
0.00428643
0.00425562
0.00422078
0.00420793
0.00423532
0.00422806
0.00431182
0.00428295
0.00428253
0.00428989
0.00428824
0.00430378
0.00429355
0.00428969
0.00428939
0.00428865
0.0042895
0.0043129
0.00430196
0.00430187
0.00430197
0.00430682
0.00431371
0.00431376
0.00431047
0.00430996
0.00431365
0.00431369
0.00429274
0.00429035
0.00431301
0.00420638
0.00421486
0.00414038
0.00419704
0.00422467
0.00424363
0.00421637
0.00422195
0.00428034
0.00428141
0.004312
0.00418858
0.00417519
0.00420642
0.00419217
0.00414718
0.00413643
0.00416923
0.00415555
0.0043124
0.00427816
0.00427971
0.00428287
0.00427762
0.00431375
0.00431371
0.00430893
0.00430999
0.00431381
0.00431377
0.00431358
0.00431358
0.00430975
0.00430938
0.0043136
0.00431358
0.00410622
0.00413075
0.00430397
0.00430697
0.00429861
0.0043027
0.00410752
0.00421948
0.00431011
0.00430658
0.00430771
0.00430959
0.00420757
0.00427019
0.00427688
0.00425242
0.00426767
0.00410464
0.00429166
0.00429719
0.00427945
0.00428888
0.00410294
0.00429176
0.00429631
0.00431324
0.00428166
0.00428523
0.0042916
0.00428228
0.00428478
0.00431191
0.00428172
0.00428862
0.00429067
0.00414637
0.00414163
0.00419616
0.00415298
0.0042929
0.00417196
0.00426212
0.00414029
0.00426731
0.00429231
0.0043118
0.00431069
0.0043128
0.00431211
0.00429393
0.00427395
0.00427536
0.00428964
0.00429445
0.00425295
0.00426896
0.0042946
0.00428919
0.00431405
0.00431405
0.00431405
0.00431405
0.00431405
0.00431405
0.00431405
0.00431405
0.00431405
0.00431405
0.00431405
0.00431405
0.00431405
0.00431405
0.00431405
0.00431405
0.00431404
0.00431376
0.00431142
0.00430716
0.00430662
0.00428429
0.00429731
0.00431404
0.00431404
0.00431381
0.00428169
0.0042801
0.00429705
0.00430404
0.00430662
0.00431377
0.00431402
0.00431405
0.00431405
0.0043097
0.00431074
0.00431372
0.00431399
0.00431385
0.00431404
0.00431338
0.0043055
0.00430928
0.00429991
0.00430605
0.00430543
0.00431094
0.00431208
0.00431208
0.00430991
0.00431385
0.00431388
0.00431281
0.00431362
0.00431403
0.00431404
0.0042995
0.00429606
0.0043134
0.00429433
0.00428368
0.00428326
0.00428221
0.00430911
0.00431232
0.00431229
0.00430981
0.00431206
0.00431207
0.00431225
0.00431222
0.00430916
0.00431333
0.00430384
0.00430088
0.00431173
0.00431381
0.00431379
0.00431397
0.00431404
0.00431404
0.0041957
0.00419686
0.004313
0.00431255
0.00431404
0.00419377
0.00419472
0.00431338
0.00431359
0.00431404
0.00431398
0.00431393
0.00409839
0.00410654
0.00411084
0.00416724
0.00418734
0.00409927
0.00410241
0.00417486
0.00416335
0.00423525
0.00427486
0.00427304
0.00428922
0.004279
0.00427004
0.00431016
0.00431405
0.00431405
0.00431405
0.00431378
0.0043139
0.00431399
0.00431402
0.00431353
0.00431363
0.00431405
0.00431405
0.00431404
0.0043098
0.00430954
0.00431176
0.00431301
0.00431196
0.00431144
0.00428986
0.00429317
0.00429144
0.00429342
0.00430655
0.00430261
0.00428383
0.00428788
0.00428256
0.00428208
0.00429617
0.00429444
0.00428002
0.00428219
0.00428234
0.00431381
0.00430747
0.00430959
0.00429827
0.00428576
0.00430373
0.00430172
0.00431232
0.00431142
0.00430759
0.00426191
0.00425826
0.0042966
0.00428256
0.00426207
0.00431404
0.00431403
0.00431367
0.00431354
0.0043126
0.00431307
0.00430747
0.00431287
0.00431329
0.00430189
0.00430368
0.00431333
0.00425302
0.00424955
0.00430369
0.00430558
0.00431397
0.00431399
0.00431367
0.00431286
0.0043139
0.00431394
0.00431336
0.00429529
0.00429335
0.00427626
0.00427686
0.00431208
0.00431207
0.00430965
0.00430949
0.0043121
0.00431209
0.00410552
0.00416365
0.00424069
0.00424621
0.00418334
0.00419049
0.00408915
0.00430628
0.00430451
0.00431339
0.00408523
0.00408147
0.00411725
0.00412045
0.00409689
0.00417123
0.00417733
0.00408184
0.00408976
0.00431384
0.00431383
0.00431188
0.00431299
0.00431388
0.00431386
0.00426708
0.00430895
0.0043096
0.00430744
0.00430822
0.00426169
0.0043051
0.00431261
0.00431297
0.00431301
0.00431283
0.00430619
0.00428719
0.00430004
0.00429813
0.00427755
0.00427491
0.00427816
0.00421535
0.00422611
0.00422924
0.00418542
0.00431203
0.00429069
0.0042823
0.00429729
0.00429266
0.00431105
0.00424836
0.00425036
0.004297
0.00430192
0.00431299
0.00431403
0.00431404
0.004314
0.00417737
0.00418306
0.00428457
0.00428167
0.00383644
0.00421797
0.00419353
0.00419331
0.00418771
0.00419105
0.00422494
0.00349367
0.00428415
0.00429465
0.00431405
0.00431405
0.00431405
0.0043082
0.00430769
0.00431143
0.00430903
0.00431099
0.00431228
0.00431045
0.00431077
0.00428595
0.00429659
0.00428036
0.00428174
0.00428427
0.00428117
0.00429775
0.00427919
0.00427896
0.00426713
0.00424803
0.00424793
0.00424854
0.00424939
0.0042627
0.00431141
0.00431288
0.00431293
0.00431269
0.00431283
0.00431106
0.0043006
0.00430991
0.00430474
0.00430296
0.00430992
0.00431209
0.00431211
0.00428253
0.00428372
0.00429218
0.0042799
0.00431241
0.00431236
0.00430899
0.00431206
0.00431206
0.0043098
0.00430927
0.00431219
0.00431216
0.00428494
0.00429156
0.00428815
0.00429497
0.00429357
0.00428476
0.00419832
0.00420104
0.00419267
0.00419296
0.00427482
0.00423488
0.00423072
0.00425348
0.00425296
0.00428294
0.00426009
0.00426572
0.00424966
0.004254
0.00427873
0.00431401
0.00431399
0.00431402
0.00431398
0.00431404
0.00431404
0.00431405
0.00431402
0.00431403
0.00431401
0.00425852
0.0042887
0.00428646
0.00429391
0.00429131
0.00426148
0.0042698
0.00427783
0.00427334
0.0042844
0.00428185
0.00426671
0.00431402
0.00431404
0.00431403
0.00431362
0.00431329
0.00431398
0.00431391
0.00410161
0.00415586
0.00411393
0.00411221
0.004174
0.00417424
0.00425248
0.00425707
0.00421125
0.00410587
0.00409894
0.00419446
0.0041268
0.0041249
0.00412409
0.00422578
0.00414383
0.00412194
0.00427981
0.00428401
0.00429891
0.00427072
0.00427077
0.0042705
0.00426992
0.00429169
0.00427285
0.00427521
0.0042373
0.00418162
0.0041844
0.00418284
0.0041806
0.00424148
0.00431394
0.00431396
0.00431385
0.00431342
0.0043137
0.00431389
0.00430728
0.00431157
0.00430916
0.0043087
0.00430963
0.00431005
0.00430864
0.00430917
0.00428868
0.00429392
0.00428276
0.00428276
0.00428204
0.00428242
0.00430721
0.00429469
0.00429571
0.00427928
0.00428095
0.00430092
0.00428196
0.00428767
0.00428419
0.00428027
0.0042928
0.00429079
0.00429618
0.00428034
0.00428077
0.00428419
0.00428178
0.00429487
0.00430285
0.00429067
0.0042928
0.00428347
0.00428729
0.00430132
0.00428175
0.00427753
0.00429796
0.00429617
0.00424436
0.00424593
0.00429115
0.00430546
0.00430459
0.00428945
0.00430077
0.00430904
0.00430689
0.00426858
0.00426448
0.00429317
0.00429368
0.00430483
0.00427984
0.00427395
0.0043101
0.00431128
0.00431326
0.00431201
0.0043086
0.00430375
0.0043083
0.00431305
0.00431356
0.00431367
0.00431304
0.00431326
0.00431214
0.00431078
0.00431196
0.00431369
0.00431328
0.00431304
0.00431372
0.00431338
0.00431378
0.00431275
0.00431283
0.00431225
0.00431298
0.00425165
0.00424493
0.00427782
0.00423422
0.00423912
0.00422466
0.004257
0.00421511
0.00421083
0.00423232
0.00423054
0.0042883
0.004264
0.00426729
0.0042603
0.00426155
0.00428801
0.00430254
0.0042896
0.00429213
0.00426812
0.00428307
0.00429953
0.00424755
0.00424356
0.00428987
0.00424706
0.00424858
0.00424491
0.00424603
0.00428993
0.0042891
0.00425883
0.00425958
0.00425099
0.0042544
0.00428932
0.00430304
0.00430633
0.00421097
0.00414407
0.00415312
0.00412499
0.00413353
0.0042133
0.00415482
0.00415584
0.00415425
0.00417737
0.00422881
0.004089
0.00409439
0.00411283
0.00409448
0.00423515
0.00421807
0.00411294
0.00411817
0.0041033
0.00410923
0.00421999
0.00418659
0.00418315
0.00420448
0.0041974
0.00414077
0.00413622
0.00416511
0.00416263
0.00427877
0.00427719
0.00430968
0.00431206
0.00431206
0.00431214
0.00431212
0.00430941
0.0041083
0.00422342
0.00423342
0.00415162
0.00409268
0.00419982
0.00421147
0.00409814
0.00409098
0.00427241
0.00418719
0.00418346
0.00425959
0.00416082
0.00413822
0.00417903
0.00417252
0.00426441
0.00411711
0.00410692
0.00415152
0.00416361
0.00410126
0.00410501
0.00412959
0.00429365
0.00430424
0.00430309
0.00430597
0.00430514
0.00429501
0.00428282
0.00428493
0.00428847
0.00428403
0.00428452
0.00428495
0.00428242
0.00429786
0.0042963
0.00430156
0.00429972
0.0042851
0.00414399
0.00420538
0.00421186
0.00419363
0.00419961
0.00414266
0.00418146
0.00423847
0.00424649
0.00421971
0.00422904
0.00416528
0.00416687
0.00412069
0.00412673
0.00412179
0.00412033
0.00414221
0.00417625
0.0041865
0.00414026
0.0041592
0.00414033
0.00430293
0.00430167
0.00429031
0.00427449
0.00427721
0.00420694
0.00421627
0.00425934
0.0042052
0.004191
0.0042256
0.00421803
0.00426482
0.00419091
0.00419236
0.00425129
0.00425091
0.00431405
0.00431405
0.00431405
0.00431405
0.00431405
0.00431405
0.00431405
0.00431405
0.00431405
0.00431405
0.00431405
0.00431405
0.00431405
0.00431405
0.00431405
0.00431405
0.00431405
0.00431405
0.00431405
0.00431405
0.00431405
0.00431405
0.00431405
0.00431405
0.00431405
0.00431405
0.00431405
0.00431405
0.00431405
0.00431405
0.00431405
0.00431405
0.00431405
0.00431405
0.00431405
0.00431405
0.00431405
0.00431405
0.00431405
0.00431405
0.00431405
0.00431405
0.00431405
0.00431405
0.00431405
0.00431405
0.00431405
0.00431405
0.00431405
0.00431405
0.00431405
0.00431405
0.00431405
0.00431405
0.00431405
0.00431405
0.00431405
0.00431405
0.00431405
0.00431405
0.00431405
0.00431405
0.00431405
0.00431405
0.00431405
0.00431405
0.00431405
0.00431405
0.00431405
0.00431405
0.00431405
0.00431405
0.00431405
0.00431405
0.00431405
0.00431405
0.00431405
0.00431405
0.00431405
0.00431405
0.00431405
0.00431405
0.00431405
0.00431405
0.00431405
0.00431404
0.00431404
0.00431405
0.00431405
0.00431405
0.00431405
0.00431405
0.00431405
0.00431405
0.00431405
0.00431405
0.00431405
0.00431405
0.00431405
0.00431405
0.00431405
0.00431405
0.00431405
0.00431405
0.00431405
0.00431405
0.00431405
0.00431405
0.00431405
0.00431405
0.00431405
0.00431405
0.00431405
0.00431405
0.00431405
0.00431405
0.00431405
0.00431405
0.00431405
0.00431405
0.00431405
0.00431405
0.00431405
0.00431405
0.00431405
0.00431405
0.00431405
0.00431405
0.00431405
0.00431405
0.00431405
0.00431405
0.00431405
0.00431405
0.00431405
0.00431405
0.00431405
0.00431405
0.00382018
0.00430374
0.0043054
0.00431405
0.00431405
0.00431405
0.00431405
0.00431405
0.00431405
0.00431405
0.00431405
0.00431405
0.00431405
0.00431405
0.00431405
0.00431405
0.00419933
0.00419764
0.00419227
0.00431405
0.00431405
0.00431405
0.00431405
0.00431405
0.00431405
0.00431405
0.00431405
0.00431405
0.00431405
0.00431405
0.0043136
0.00425348
0.00419996
0.00425613
0.00431403
0.00431405
0.00431405
0.00431405
0.00431405
0.00431405
0.00431405
0.00431405
0.00431405
0.00431405
0.00431405
0.00431405
0.00431405
0.00431405
0.00431404
0.00431405
0.00431405
0.00431405
0.00431404
0.00431403
0.00431405
0.00431405
0.00431405
0.00431405
0.00431405
0.00431405
0.00431405
0.00431403
0.00431403
0.00431403
0.00431403
0.00431405
0.00431405
0.00431405
0.00431405
0.00431405
0.00431404
0.00431405
0.00431403
0.00431404
0.00431405
0.00431405
0.00431405
0.00431405
0.00431405
0.00431405
0.00431405
0.00431405
0.00431405
0.00431405
0.00382995
0.00425843
0.00425754
0.00416348
0.00416354
0.00349972
0.00431405
0.00431405
0.00431405
0.00431405
0.00431405
0.00431405
0.00431405
0.00431405
0.00431404
0.00431405
0.00431405
0.00431405
0.00431405
0.00431405
0.00431405
0.00431405
0.00431405
0.00431405
0.00431405
0.00431405
0.00431405
0.00431405
0.00431405
0.00431405
0.00431405
0.00431405
0.00431405
0.00431405
0.00431405
0.00431405
0.00431404
0.004314
0.00431405
0.00431405
0.00431405
0.00431405
0.00431405
0.00431405
0.00431405
0.00431405
0.00431405
0.00431405
0.00431405
0.00431405
0.00431405
0.00431405
0.00431405
0.00431405
0.00431405
0.00431405
0.00431405
0.00431405
0.00431405
0.00431405
0.00431405
0.00431405
0.00431363
0.00431392
0.0043139
0.00431401
0.004314
0.00431385
0.0043132
0.00431275
0.00431351
0.00431405
0.00431405
0.00431405
0.00431405
0.00431405
0.00431405
0.00431405
0.00431405
0.00431405
0.00431405
0.00431405
0.00431405
0.00431405
0.00431405
0.00431405
0.00431405
0.00431405
0.00431405
0.00431404
0.00431404
0.00431405
0.00431344
0.00431385
0.00431386
0.00431381
0.00431381
0.00431333
0.00431405
0.00431405
0.00431405
0.00431405
0.00431405
0.00431405
0.00431405
0.00431405
0.00431405
0.00431405
0.00431405
0.00431405
0.00431405
0.00431405
0.00431405
0.00431405
0.00431405
0.00431405
0.00431405
0.00431405
0.00431405
0.00431383
0.00431404
0.00431404
0.00431395
0.00431395
0.00431376
0.00430933
0.00429927
0.00430102
0.00431405
0.00431405
0.00431405
0.00431405
0.00431405
0.00431405
0.00431405
0.00431405
0.00431405
0.00431382
0.00431174
0.00431252
0.00431254
0.00431273
0.00431369
0.00431405
0.00431405
0.00431405
0.00431405
0.00431405
0.00431405
0.00431405
0.00431405
0.00431405
0.00431403
0.00431398
0.00431399
0.00431386
0.00431389
0.00431401
0.00431405
0.00431405
0.00431405
0.00410047
0.00431403
0.00431403
0.00431196
0.00431221
0.00395312
0.00431395
0.00431393
0.0040362
0.00431405
0.00431404
0.00431405
0.00431405
0.00431404
0.00431405
0.00431397
0.00431403
0.00431402
0.00431405
0.00431405
0.00431403
0.00431405
0.00431405
0.00431405
0.00431403
0.00431377
0.00431399
0.00431405
0.00431405
0.00431405
0.00431402
0.00431404
0.00431405
0.00431377
0.00431345
0.00431338
0.00431404
0.00431403
0.00431404
0.00431405
0.00431405
0.00431405
0.00431405
0.00431405
0.00431405
0.00431402
0.00431403
0.00431398
0.00431332
0.00431381
0.00431381
0.00431388
0.00431387
0.00431348
0.00431405
0.00431405
0.00431405
0.00431251
0.00431058
0.00431092
0.0043086
0.00430856
0.00431183
0.00431112
0.00431125
0.00431275
0.00431404
0.00431404
0.00431405
0.0043125
0.00431326
0.00431334
0.00431372
0.004314
0.00431402
0.00431339
0.00431342
0.00431275
0.00431405
0.00431405
0.00431404
0.00431368
0.00431393
0.00431394
0.00431387
0.00431388
0.00431353
0.00431405
0.00431405
0.00431404
0.0043128
0.00431075
0.00431054
0.00431273
0.00431261
0.00431348
0.0043119
0.00430872
0.00430866
0.00431035
0.00431017
0.00431259
0.00431403
0.00431403
0.00431405