# Force coefficients
# liftDir    : (1.736500e-01 9.848100e-01 0.000000e+00)
# dragDir    : (9.848100e-01 1.736500e-01 0.000000e+00)
# pitchAxis  : (0.000000e+00 1.000000e+00 0.000000e+00)
# magUInf    : 1.500000e+01
# lRef       : 5.000000e-01
# Aref       : 4.000000e-01
# CofR       : (0.000000e+00 0.000000e+00 0.000000e+00)
# Time       	Cm           	Cd           	Cl           	Cl(f)        	Cl(r)        
100          	-2.408936e-04	1.841179e-02	1.056591e-01	5.258867e-02	5.307045e-02
200          	-3.289271e-03	1.694081e-02	1.130274e-01	5.322442e-02	5.980296e-02
300          	-4.288285e-03	1.606222e-02	1.131934e-01	5.230840e-02	6.088497e-02
400          	-4.630691e-03	1.557437e-02	1.121914e-01	5.146499e-02	6.072637e-02
500          	-4.787177e-03	1.526886e-02	1.112652e-01	5.084542e-02	6.041977e-02
600          	-4.905593e-03	1.510685e-02	1.109567e-01	5.057278e-02	6.038396e-02
700          	-5.030361e-03	1.512596e-02	1.117081e-01	5.082370e-02	6.088442e-02
800          	-5.174966e-03	1.525510e-02	1.131858e-01	5.141792e-02	6.176785e-02
900          	-5.327728e-03	1.537159e-02	1.146337e-01	5.198911e-02	6.264457e-02
1000         	-5.459879e-03	1.544156e-02	1.157116e-01	5.239592e-02	6.331568e-02
1100         	-5.558555e-03	1.547804e-02	1.164270e-01	5.265496e-02	6.377207e-02
1200         	-5.626643e-03	1.549545e-02	1.168767e-01	5.281169e-02	6.406498e-02
1300         	-5.672150e-03	1.550235e-02	1.171503e-01	5.290300e-02	6.424730e-02
1400         	-5.702204e-03	1.550456e-02	1.173178e-01	5.295668e-02	6.436108e-02
1500         	-5.722177e-03	1.550577e-02	1.174275e-01	5.299160e-02	6.443595e-02
1600         	-5.735867e-03	1.550736e-02	1.175071e-01	5.301770e-02	6.448943e-02
1700         	-5.745765e-03	1.550918e-02	1.175684e-01	5.303845e-02	6.452998e-02
1800         	-5.753181e-03	1.551082e-02	1.176160e-01	5.305480e-02	6.456116e-02
1900         	-5.758693e-03	1.551219e-02	1.176521e-01	5.306737e-02	6.458476e-02
2000         	-5.762512e-03	1.551341e-02	1.176787e-01	5.307685e-02	6.460188e-02
2100         	-5.765126e-03	1.551403e-02	1.176957e-01	5.308274e-02	6.461299e-02
2200         	-5.766984e-03	1.551425e-02	1.177065e-01	5.308629e-02	6.462025e-02
2300         	-5.768360e-03	1.551444e-02	1.177148e-01	5.308902e-02	6.462574e-02
2400         	-5.769363e-03	1.551455e-02	1.177205e-01	5.309089e-02	6.462962e-02
2500         	-5.770117e-03	1.551467e-02	1.177251e-01	5.309244e-02	6.463267e-02
2600         	-5.770723e-03	1.551471e-02	1.177285e-01	5.309351e-02	6.463495e-02
2700         	-5.771133e-03	1.551483e-02	1.177312e-01	5.309449e-02	6.463675e-02
2800         	-5.771483e-03	1.551485e-02	1.177331e-01	5.309509e-02	6.463805e-02
2900         	-5.771784e-03	1.551483e-02	1.177346e-01	5.309551e-02	6.463908e-02
3000         	-5.771950e-03	1.551490e-02	1.177358e-01	5.309596e-02	6.463986e-02
3100         	-5.772128e-03	1.551490e-02	1.177368e-01	5.309626e-02	6.464052e-02
3200         	-5.772259e-03	1.551494e-02	1.177377e-01	5.309657e-02	6.464109e-02
3300         	-5.772377e-03	1.551494e-02	1.177383e-01	5.309676e-02	6.464151e-02
3400         	-5.772463e-03	1.551496e-02	1.177388e-01	5.309696e-02	6.464188e-02
3500         	-5.772541e-03	1.551497e-02	1.177393e-01	5.309710e-02	6.464219e-02
3600         	-5.772599e-03	1.551497e-02	1.177396e-01	5.309719e-02	6.464239e-02
3700         	-5.772653e-03	1.551498e-02	1.177399e-01	5.309730e-02	6.464260e-02
3800         	-5.772686e-03	1.551498e-02	1.177401e-01	5.309735e-02	6.464272e-02
3900         	-5.772709e-03	1.551499e-02	1.177402e-01	5.309741e-02	6.464283e-02
4000         	-5.772735e-03	1.551498e-02	1.177403e-01	5.309743e-02	6.464290e-02
4100         	-5.772753e-03	1.551499e-02	1.177405e-01	5.309749e-02	6.464299e-02
4200         	-5.772768e-03	1.551499e-02	1.177406e-01	5.309751e-02	6.464305e-02
4300         	-5.772781e-03	1.551499e-02	1.177406e-01	5.309753e-02	6.464309e-02
4400         	-5.772789e-03	1.551499e-02	1.177407e-01	5.309754e-02	6.464312e-02
4500         	-5.772796e-03	1.551499e-02	1.177407e-01	5.309756e-02	6.464315e-02
4600         	-5.772801e-03	1.551499e-02	1.177407e-01	5.309757e-02	6.464317e-02
4700         	-5.772810e-03	1.551499e-02	1.177408e-01	5.309758e-02	6.464320e-02
4800         	-5.772809e-03	1.551499e-02	1.177408e-01	5.309758e-02	6.464320e-02
4900         	-5.772819e-03	1.551499e-02	1.177409e-01	5.309761e-02	6.464325e-02
5000         	-5.772818e-03	1.551499e-02	1.177408e-01	5.309760e-02	6.464323e-02
5100         	-5.772818e-03	1.551499e-02	1.177408e-01	5.309760e-02	6.464324e-02
5200         	-5.772819e-03	1.551500e-02	1.177409e-01	5.309761e-02	6.464325e-02
5300         	-5.772821e-03	1.551499e-02	1.177409e-01	5.309761e-02	6.464325e-02
5400         	-5.772836e-03	1.551499e-02	1.177409e-01	5.309762e-02	6.464329e-02
5500         	-5.772822e-03	1.551499e-02	1.177409e-01	5.309761e-02	6.464326e-02
5600         	-5.772823e-03	1.551499e-02	1.177409e-01	5.309761e-02	6.464326e-02
5700         	-5.772824e-03	1.551499e-02	1.177409e-01	5.309762e-02	6.464327e-02
5800         	-5.772826e-03	1.551499e-02	1.177409e-01	5.309761e-02	6.464326e-02
5900         	-5.772824e-03	1.551499e-02	1.177409e-01	5.309762e-02	6.464327e-02
6000         	-5.772826e-03	1.551499e-02	1.177409e-01	5.309762e-02	6.464327e-02
6100         	-5.772825e-03	1.551499e-02	1.177409e-01	5.309762e-02	6.464327e-02
6200         	-5.772825e-03	1.551499e-02	1.177409e-01	5.309762e-02	6.464327e-02
6300         	-5.772824e-03	1.551499e-02	1.177409e-01	5.309762e-02	6.464327e-02
6400         	-5.772825e-03	1.551499e-02	1.177409e-01	5.309762e-02	6.464327e-02
6500         	-5.772826e-03	1.551499e-02	1.177409e-01	5.309762e-02	6.464327e-02
6600         	-5.772833e-03	1.551499e-02	1.177409e-01	5.309761e-02	6.464328e-02
6700         	-5.772826e-03	1.551499e-02	1.177409e-01	5.309762e-02	6.464327e-02
6800         	-5.772872e-03	1.551495e-02	1.177409e-01	5.309758e-02	6.464332e-02
6900         	-5.772825e-03	1.551501e-02	1.177410e-01	5.309765e-02	6.464330e-02
7000         	-5.772826e-03	1.551499e-02	1.177409e-01	5.309762e-02	6.464327e-02
7100         	-5.772823e-03	1.551500e-02	1.177409e-01	5.309762e-02	6.464327e-02
7200         	-5.772825e-03	1.551499e-02	1.177409e-01	5.309762e-02	6.464327e-02
