/*--------------------------------*- C++ -*----------------------------------*\
| =========                 |                                                 |
| \\      /  F ield         | OpenFOAM: The Open Source CFD Toolbox           |
|  \\    /   O peration     | Version:  5.x                                   |
|   \\  /    A nd           | Web:      www.OpenFOAM.org                      |
|    \\/     M anipulation  |                                                 |
\*---------------------------------------------------------------------------*/
FoamFile
{
    version     2.0;
    format      ascii;
    class       volScalarField;
    location    "200";
    object      massFlux;
}
// * * * * * * * * * * * * * * * * * * * * * * * * * * * * * * * * * * * * * //

dimensions      [0 0 0 0 0 0 0];

internalField   nonuniform List<scalar> 
6584
(
0.0241652
0.0241651
0.0241651
0.0241652
0.0241652
0.0241652
0.0241652
0.0241652
0.0241652
0.0241652
0.0241652
0.0241652
0.0241652
0.0241652
0.0241652
0.0241652
0.0241652
0.0241652
0.0241652
0.0241652
0.0241651
0.0241651
0.0241651
0.0241651
0.0241388
0.0241388
0.0241388
0.0241388
0.0241388
0.0241389
0.0241389
0.024139
0.024139
0.024139
0.024139
0.024139
0.024139
0.024139
0.024139
0.024139
0.024139
0.0241389
0.0241389
0.0241389
0.0241388
0.0241388
0.0241388
0.0241387
0.0241124
0.0241124
0.0241124
0.0241124
0.0241125
0.0241125
0.0241126
0.0241127
0.0241128
0.0241259
0.0241259
0.0241259
0.0241259
0.0241259
0.0241259
0.0241128
0.0241127
0.0241126
0.0241126
0.0241125
0.0241125
0.0241125
0.0241124
0.0241124
0.024086
0.0240861
0.0240861
0.0240861
0.0240861
0.0240862
0.0240863
0.0240864
0.0240865
0.0240996
0.0240996
0.0240995
0.0240995
0.0240996
0.0240996
0.0240997
0.0240864
0.0240863
0.0240863
0.0240862
0.0240862
0.0240861
0.0240861
0.0240861
0.0240597
0.0240597
0.0240598
0.0240598
0.0240598
0.0240599
0.0240599
0.0240599
0.0240732
0.0240733
0.0240731
0.024073
0.024073
0.024073
0.0240732
0.0240733
0.0240733
0.0240601
0.02406
0.0240599
0.0240599
0.0240598
0.0240598
0.0240597
0.0240334
0.0240334
0.0240334
0.0240335
0.0240336
0.0240336
0.0240337
0.0240468
0.0240467
0.0240466
0.0240531
0.0240528
0.0240527
0.024053
0.0240468
0.024047
0.0240471
0.0240341
0.0240338
0.0240337
0.0240336
0.0240335
0.0240335
0.0240334
0.0240071
0.0240071
0.0240071
0.0240072
0.0240073
0.0240074
0.0240075
0.0240206
0.0240204
0.0240202
0.0240261
0.0240288
0.0240283
0.0240258
0.024027
0.024021
0.024021
0.0240081
0.0240077
0.0240075
0.0240074
0.0240073
0.0240072
0.0240071
0.0239808
0.0239808
0.0239809
0.023981
0.0239811
0.0239812
0.0239815
0.0239944
0.0239943
0.0239943
0.0239996
0.0240008
0.0240018
0.024001
0.0239953
0.0239952
0.0239822
0.0239817
0.0239814
0.0239812
0.023981
0.0239809
0.0239809
0.0239545
0.0239545
0.0239546
0.0239547
0.0239549
0.0239551
0.0239555
0.0239684
0.0239685
0.0239688
0.023974
0.0239752
0.0239765
0.0239759
0.02397
0.0239696
0.0239565
0.0239557
0.0239553
0.023955
0.0239548
0.0239547
0.0239546
0.0239282
0.0239283
0.0239284
0.0239285
0.0239287
0.023929
0.0239295
0.0239425
0.0239428
0.0239435
0.0239491
0.0239513
0.0239534
0.0239516
0.023945
0.0239442
0.0239307
0.0239298
0.0239292
0.0239289
0.0239286
0.0239284
0.0239283
0.0239019
0.023902
0.0239021
0.0239023
0.0239026
0.0239029
0.0239035
0.0239166
0.0239171
0.0239182
0.0239243
0.0239274
0.0239306
0.0239274
0.02392
0.0239188
0.023905
0.0239039
0.0239032
0.0239027
0.0239024
0.0239022
0.023902
0.0238757
0.0238758
0.0238759
0.0238761
0.0238764
0.0238768
0.0238775
0.0238907
0.0238914
0.0238927
0.0238992
0.0239028
0.023907
0.0239029
0.0238949
0.0238934
0.0238792
0.0238779
0.0238771
0.0238766
0.0238762
0.0238759
0.0238757
0.0238494
0.0238495
0.0238497
0.0238499
0.0238503
0.0238508
0.0238515
0.0238647
0.0238655
0.0238669
0.0238736
0.0238772
0.0238819
0.0238778
0.0238695
0.0238678
0.0238534
0.0238519
0.0238511
0.0238504
0.0238499
0.0238497
0.0238494
0.0238231
0.0238233
0.0238235
0.0238237
0.0238241
0.0238246
0.0238254
0.0238259
0.0238394
0.0238406
0.023847
0.0238498
0.0159129
0.023852
0.023852
0.0238438
0.023842
0.0238274
0.0238259
0.0238249
0.0238242
0.0238237
0.0238233
0.0238231
0.0237969
0.023797
0.0237972
0.0237975
0.0237979
0.0237984
0.0237991
0.0237994
0.0238129
0.0238141
0.0238205
0.02382
0.0215267
0.0238256
0.0238187
0.0238177
0.0238023
0.0238011
0.0237996
0.0237987
0.023798
0.0237974
0.023797
0.0237967
0.0237706
0.0237707
0.023771
0.0237713
0.0237717
0.0237722
0.0237728
0.0237732
0.0237866
0.0237879
0.0237879
0.0237935
0.0216503
0.0237927
0.0237926
0.0237916
0.0237762
0.0237749
0.0237733
0.0237723
0.0237716
0.023771
0.0237706
0.0237703
0.0237443
0.0237445
0.0237447
0.023745
0.0237455
0.0237459
0.0237465
0.023747
0.0237478
0.0237618
0.0237617
0.0237283
0.0227169
0.0237665
0.0237664
0.0237654
0.0237499
0.0237486
0.023747
0.0237459
0.0237452
0.0237445
0.0237442
0.0237438
0.023718
0.0237182
0.0237184
0.0237188
0.0237192
0.0237196
0.0237203
0.0237209
0.0237217
0.0237224
0.0237356
0.0236868
0.0227136
0.0237402
0.0237271
0.0237252
0.0237236
0.0237223
0.0237206
0.0237195
0.0237187
0.0237181
0.0237177
0.0237173
0.0236917
0.0236919
0.0236922
0.0236925
0.023693
0.0236934
0.0236941
0.0236948
0.0236956
0.0236963
0.0236908
0.0223336
0.0232137
0.0237011
0.0237008
0.0236989
0.0236973
0.023696
0.0236943
0.0236931
0.0236923
0.0236916
0.0236912
0.0236908
0.0236654
0.0236656
0.0236659
0.0236663
0.0236667
0.0236671
0.0236679
0.0236686
0.0236695
0.0236702
0.0236597
0.0223088
0.0231884
0.0236749
0.0236746
0.0236727
0.023671
0.0236696
0.0236679
0.0236667
0.0236658
0.0236652
0.0236647
0.0236643
0.0236391
0.0236394
0.0236396
0.02364
0.0236405
0.0236409
0.0236418
0.0236425
0.0236435
0.023644
0.0236287
0.0222835
0.0231626
0.0236487
0.0236485
0.0236465
0.0236447
0.0236433
0.0236415
0.0236403
0.0236394
0.0236387
0.0236382
0.0236377
0.0236129
0.0236131
0.0236134
0.0236138
0.0236143
0.0236148
0.0236157
0.0236164
0.0236174
0.0236179
0.0235978
0.0222579
0.0231365
0.0236225
0.0236223
0.0236203
0.0236184
0.0236169
0.0236151
0.0236138
0.0236129
0.0236122
0.0236117
0.0236112
0.0235866
0.0235868
0.0235871
0.0235876
0.0235881
0.0235886
0.0235895
0.0235904
0.0235914
0.0235918
0.023567
0.0222321
0.0231102
0.0235963
0.0235961
0.0235941
0.0235921
0.0235906
0.0235887
0.0235874
0.0235864
0.0235857
0.0235852
0.0235847
0.0235603
0.0235606
0.0235609
0.0235613
0.0235619
0.0235624
0.0235634
0.0235643
0.0235654
0.0235657
0.0235364
0.022206
0.0230836
0.0235701
0.02357
0.0235679
0.0235658
0.0235642
0.0235622
0.0235609
0.0235599
0.0235592
0.0235587
0.0235581
0.023534
0.0235343
0.0235346
0.0235351
0.0235357
0.0235363
0.0235373
0.0235382
0.0235394
0.0235396
0.023506
0.0221798
0.0230569
0.0235439
0.0235439
0.0235417
0.0235396
0.0235378
0.0235358
0.0235345
0.0235335
0.0235326
0.0235321
0.0235315
0.0235078
0.023508
0.0235084
0.0235089
0.0235095
0.0235101
0.0235112
0.0235122
0.0235134
0.0235135
0.0234752
0.0221537
0.0230302
0.0235177
0.0235177
0.0235155
0.0235133
0.0235115
0.0235094
0.023508
0.023507
0.0235061
0.0235056
0.023505
0.0234815
0.0234818
0.0234821
0.0234827
0.0234833
0.023484
0.0234851
0.0234861
0.0234874
0.0234874
0.023444
0.0221281
0.0230038
0.0234916
0.0234917
0.0234894
0.0234871
0.0234852
0.0234831
0.0234816
0.0234805
0.0234796
0.0234791
0.0234785
0.0234552
0.0234555
0.0234559
0.0234564
0.0234571
0.0234578
0.023459
0.0234601
0.0234614
0.0234614
0.023413
0.0221023
0.0229772
0.0234654
0.0234656
0.0234633
0.0234608
0.0234589
0.0234567
0.0234552
0.0234541
0.0234532
0.0234526
0.023452
0.023429
0.0234293
0.0234297
0.0234302
0.0234309
0.0234317
0.0234329
0.023434
0.0234355
0.0234353
0.0233822
0.0220764
0.0229506
0.0234393
0.0234396
0.0234371
0.0234346
0.0234326
0.0234303
0.0234288
0.0234276
0.0234267
0.0234261
0.0234255
0.0234027
0.0234031
0.0234035
0.023404
0.0234048
0.0234055
0.0234069
0.0234081
0.0234095
0.0234092
0.0233514
0.0220505
0.022924
0.0234131
0.0234135
0.023411
0.0234084
0.0234062
0.023404
0.0234024
0.0234012
0.0234002
0.0233996
0.023399
0.0233765
0.0233768
0.0233772
0.0233778
0.0233786
0.0233794
0.0233808
0.0233821
0.0233836
0.0233831
0.0233207
0.0220246
0.0228973
0.023387
0.0233875
0.0233849
0.0233822
0.0233799
0.0233776
0.023376
0.0233747
0.0233737
0.0233731
0.0233725
0.0233503
0.0233506
0.023351
0.0233516
0.0233524
0.0233533
0.0233548
0.0233561
0.0233576
0.0233569
0.02329
0.0219987
0.0228706
0.0233608
0.0233614
0.0233587
0.0233559
0.0233536
0.0233512
0.0233495
0.0233482
0.0233472
0.0233466
0.023346
0.023324
0.0233244
0.0233248
0.0233255
0.0233263
0.0233273
0.0233287
0.0233301
0.0233317
0.0233308
0.0232594
0.0219727
0.0228439
0.0233346
0.0233354
0.0233326
0.0233297
0.0233273
0.0233248
0.0233231
0.0233218
0.0233207
0.0233201
0.0233194
0.0232978
0.0232982
0.0232986
0.0232993
0.0233001
0.0233012
0.0233027
0.0233041
0.0233058
0.0233047
0.0232288
0.0219468
0.0228172
0.0233084
0.0233093
0.0233065
0.0233035
0.023301
0.0232985
0.0232967
0.0232953
0.0232942
0.0232936
0.0232929
0.0232716
0.0232719
0.0232724
0.0232731
0.023274
0.0232751
0.0232767
0.0232782
0.0232799
0.0232785
0.0231982
0.021921
0.0227905
0.0232822
0.0232833
0.0232804
0.0232773
0.0232747
0.0232721
0.0232703
0.0232688
0.0232677
0.023267
0.0232664
0.0232454
0.0232458
0.0232462
0.0232469
0.0232479
0.023249
0.0232507
0.0232522
0.0232539
0.0232524
0.0231675
0.0218952
0.0227639
0.023256
0.0232573
0.0232542
0.0232511
0.0232484
0.0232457
0.0232438
0.0232424
0.0232412
0.0232405
0.0232399
0.0239783
0.0239792
0.0240011
0.0239542
0.0239563
0.0239763
0.0239304
0.0239336
0.0239534
0.0239059
0.0239101
0.0239307
0.0238804
0.0238853
0.0239071
0.0238532
0.0143642
0.0156487
0.023859
0.0238821
0.0240042
0.0240283
0.0240045
0.0240289
0.0239804
0.0239787
0.0240014
0.0239881
0.0240003
0.0239795
0.0239816
0.0240004
0.0239553
0.0239544
0.0239756
0.0239662
0.0239576
0.0239733
0.0239381
0.0239709
0.0239563
0.0239574
0.0239755
0.0239305
0.0239304
0.0239514
0.0239424
0.0239153
0.023928
0.0236229
0.0237965
0.0239335
0.0239335
0.0239515
0.0239055
0.0239058
0.0239274
0.0239183
0.0238999
0.0239061
0.0238216
0.0236883
0.02391
0.0239094
0.0239276
0.0238733
0.0238804
0.0238852
0.0238845
0.0239032
0.0238625
0.0238703
0.0238266
0.0162478
0.0143846
0.0197955
0.0238318
0.0238555
0.0239752
0.0239871
0.0239877
0.0239866
0.023972
0.0240004
0.0239882
0.0239724
0.0239873
0.0239882
0.023987
0.0239749
0.0239308
0.0239545
0.0239632
0.0239347
0.0238612
0.0239687
0.0239385
0.0238088
0.0239363
0.0239648
0.0239496
0.0239107
0.0239738
0.023951
0.0239676
0.0239069
0.023914
0.0239394
0.0238342
0.0238509
0.0238578
0.0238338
0.0236838
0.0236133
0.0239421
0.023885
0.0238849
0.0239094
0.0238865
0.023945
0.0238208
0.0238377
0.0238522
0.0238178
0.0238792
0.0238295
0.023919
0.023896
0.023899
0.0238849
0.0238952
0.023922
0.0238486
0.0238492
0.0238395
0.023848
0.0238711
0.0238735
0.0238981
0.0238907
0.0238979
0.0238433
0.023814
0.0238489
0.0238444
0.0238492
0.0238611
0.0239909
0.0239887
0.024001
0.0239911
0.023999
0.02388
0.0238803
0.0239027
0.0238933
0.0238838
0.0238916
0.0233829
0.0231703
0.0238589
0.0238589
0.0238781
0.0239995
0.0239918
0.0240009
0.0239886
0.0239914
0.0238926
0.0238991
0.0239152
0.0160961
0.0172554
0.021
0.0216773
0.017308
0.0186786
0.0231305
0.022776
0.0238947
0.0238895
0.0238801
0.0217604
0.0221888
0.0238786
0.0238677
0.0238723
0.0240151
0.0240137
0.0240023
0.0240022
0.0240137
0.0240151
0.02399
0.0239931
0.0239906
0.0239996
0.0239916
0.0239948
0.023951
0.0239573
0.0237266
0.0237348
0.0237763
0.0237601
0.0238714
0.0227907
0.0238848
0.0235595
0.0234077
0.0234442
0.0235798
0.0238674
0.0238854
0.0239815
0.023686
0.0239512
0.0236279
0.0239795
0.0239593
0.0239912
0.0239933
0.0239892
0.0239135
0.02398
0.023981
0.023894
0.0238894
0.0239589
0.0239568
0.0238631
0.0238699
0.0239184
0.0239597
0.0239641
0.023954
0.0239583
0.0239175
0.0239641
0.0239715
0.023976
0.0239656
0.02397
0.0239614
0.0238424
0.0238432
0.0238403
0.0238387
0.0234943
0.0235116
0.0238721
0.0239373
0.0239414
0.0239318
0.0239359
0.0238712
0.0239008
0.0239484
0.0239526
0.0239428
0.023947
0.0238995
0.0162699
0.023829
0.0178324
0.0166028
0.019257
0.0179004
0.0238313
0.023805
0.0167817
0.023808
0.0238653
0.0238619
0.0238896
0.0239262
0.0239304
0.0239205
0.0239248
0.0238912
0.0200433
0.0208552
0.0238441
0.0204316
0.0193464
0.021376
0.0205533
0.0238453
0.0188092
0.0199204
0.0238729
0.0231926
0.0234185
0.0228343
0.0231489
0.0238733
0.0226914
0.0221162
0.0222684
0.0155461
0.0222393
0.0220536
0.0179425
0.0235508
0.0235736
0.0239973
0.0238539
0.0238533
0.023877
0.0238673
0.0238631
0.0238726
0.0193661
0.0238151
0.0238392
0.0239974
0.0238732
0.0238826
0.0238901
0.0158811
0.0160739
0.0135273
0.0220165
0.0219598
0.0163034
0.0166895
0.0234707
0.0235446
0.0119486
0.0240066
0.0240071
0.0240006
0.0240002
0.024007
0.0240066
0.023965
0.0239697
0.0239651
0.023941
0.0239394
0.023965
0.0239197
0.0239457
0.0239414
0.0239516
0.0239472
0.0239214
0.0236734
0.023773
0.0238022
0.0236987
0.0220394
0.0217872
0.0238663
0.0235944
0.0236972
0.0237661
0.0237555
0.0160738
0.023995
0.0239926
0.0240001
0.0239756
0.023957
0.0239439
0.0239822
0.0239837
0.0239886
0.0239775
0.0239822
0.0239805
0.0239403
0.0239576
0.0239531
0.0239636
0.0239591
0.0239437
0.0239168
0.0231835
0.0236424
0.0228449
0.0229243
0.0238725
0.0236868
0.0237338
0.0239472
0.0238309
0.0238941
0.0239323
0.0239596
0.0239612
0.0239492
0.0239517
0.0239136
0.0239399
0.0239355
0.0239107
0.0238388
0.0226663
0.0224255
0.0238489
0.0227341
0.0228232
0.0223864
0.0224258
0.023834
0.0236087
0.0235538
0.023878
0.0239351
0.023937
0.0239258
0.0239297
0.0238799
0.023906
0.0239461
0.0239484
0.0239376
0.0239396
0.0238928
0.0238744
0.0234723
0.0235573
0.0233676
0.0233152
0.0238456
0.0239021
0.0239148
0.0239191
0.0239088
0.0239133
0.0239014
0.0238496
0.0220283
0.0214691
0.0226831
0.0225033
0.0238497
0.0179783
0.018188
0.0238475
0.0228818
0.0227386
0.0177094
0.0179169
0.0223609
0.0221052
0.0239943
0.0239973
0.0239955
0.0217702
0.023303
0.0219272
0.0220631
0.0220232
0.0232758
0.0239962
0.0239947
0.0239982
0.0239932
0.023995
0.0162011
0.0166085
0.0160754
0.0159263
0.0213246
0.0168535
0.0166891
0.0173008
0.016899
0.0214106
0.0176429
0.0179158
0.0229951
0.0229345
0.0219722
0.0179601
0.0175303
0.0167185
0.0169147
0.0239867
0.0239896
0.0239925
0.0239854
0.0239886
0.0239852
0.0239422
0.0239636
0.0236825
0.0237647
0.0237978
0.0237067
0.0228718
0.0235827
0.0235215
0.0236476
0.0236022
0.0228556
0.0233821
0.0233277
0.0235028
0.0234146
0.0235058
0.0224785
0.0226489
0.0221781
0.0223944
0.0234832
0.0216512
0.0217135
0.0238161
0.023974
0.0239633
0.0239847
0.0239772
0.0238501
0.0239037
0.0238832
0.0239557
0.0239124
0.0239833
0.0239896
0.0239862
0.0239806
0.0239734
0.0239731
0.0239598
0.0239767
0.023965
0.0239794
0.0239842
0.0239678
0.0239776
0.0239838
0.0239803
0.0239745
0.0230322
0.0231141
0.0239101
0.0223598
0.0219977
0.0232627
0.0224327
0.0214635
0.0211153
0.021885
0.0216147
0.0238766
0.0229528
0.0230115
0.0236341
0.0235492
0.0238728
0.0237069
0.0234534
0.0233614
0.0235348
0.0234766
0.0239497
0.0237446
0.0237744
0.0238382
0.0238903
0.0239559
0.0239587
0.0239254
0.0239147
0.0239525
0.0239551
0.0227242
0.0227065
0.02384
0.0207035
0.0207209
0.0193691
0.0205428
0.0206272
0.0210129
0.0206929
0.0206277
0.0226123
0.0227062
0.0238463
0.0205585
0.0202071
0.0210343
0.0206675
0.0195533
0.0192729
0.0200696
0.0197197
0.0238353
0.0224716
0.0225757
0.0235557
0.0235392
0.0239326
0.0239344
0.0238763
0.023876
0.0239303
0.023932
0.0239431
0.0239453
0.0239049
0.0238942
0.0239403
0.0239424
0.0166235
0.0171407
0.0226145
0.0227906
0.022388
0.022552
0.0166956
0.0187227
0.0230267
0.0226761
0.022838
0.0229813
0.0184304
0.0216348
0.0217284
0.021241
0.0215986
0.0173226
0.022168
0.0223439
0.0217819
0.0220715
0.0173624
0.0234015
0.0234521
0.0238726
0.023167
0.023278
0.0233016
0.0231614
0.0232776
0.0238494
0.0232813
0.0233564
0.0203614
0.0157121
0.0158326
0.0165443
0.0157892
0.0204785
0.016103
0.0191984
0.015888
0.0193865
0.0229965
0.0237001
0.0236618
0.0237476
0.0237133
0.0230223
0.0225581
0.0226099
0.0182916
0.0185232
0.0170888
0.0176144
0.022535
0.0224207
0.0240052
0.0240069
0.0240266
0.0238691
0.0238653
0.0238546
0.0240027
0.0240031
0.023999
0.0239983
0.0240029
0.0240027
0.0240148
0.0240143
0.0240028
0.0239759
0.0239712
0.0239672
0.0239391
0.0238989
0.0238931
0.0236361
0.0237885
0.0239281
0.0239237
0.0239034
0.0235056
0.0234764
0.0236912
0.0235758
0.0236178
0.0238829
0.0239806
0.0239821
0.0239774
0.0239348
0.0239488
0.0239747
0.0239853
0.0239817
0.0239847
0.0239664
0.0238705
0.0239287
0.0238161
0.0238869
0.023879
0.023932
0.0239328
0.0239337
0.0239117
0.0239631
0.0239648
0.0239542
0.0239097
0.023934
0.0239296
0.0228212
0.0227286
0.0238468
0.0236747
0.0235445
0.0235335
0.0236037
0.0238835
0.023919
0.0239197
0.0239083
0.0239311
0.0239319
0.0239204
0.023921
0.0238883
0.0237993
0.0229712
0.0228715
0.0238846
0.0239234
0.0239246
0.0238952
0.0239027
0.0239072
0.0157326
0.0157119
0.0230336
0.0229247
0.0238468
0.0157774
0.0157533
0.0237058
0.0237244
0.0238566
0.0239919
0.0239917
0.0159722
0.0158181
0.0159787
0.0171709
0.0173653
0.0155042
0.0156549
0.0167541
0.0165586
0.0184928
0.0225065
0.0224511
0.0228285
0.0183041
0.0180311
0.0220305
0.0240079
0.0240074
0.0240008
0.0239883
0.023989
0.02399
0.0239912
0.0239817
0.0239833
0.0239935
0.0239966
0.0239949
0.0239291
0.023926
0.0239464
0.0239605
0.0239507
0.023945
0.0237059
0.0237431
0.0235668
0.0235868
0.0237866
0.0237399
0.0234787
0.0235252
0.0229377
0.0229479
0.0231695
0.0231387
0.0227901
0.0229708
0.0229963
0.0238835
0.0236351
0.0236827
0.0238602
0.0237497
0.0238994
0.0238814
0.0239723
0.0239647
0.0239345
0.0234289
0.0233582
0.0238358
0.0237064
0.0235223
0.0239923
0.0239906
0.0239864
0.0239867
0.0239794
0.0239836
0.0239355
0.0239751
0.0239791
0.0237843
0.0238372
0.0239648
0.0232651
0.0231803
0.0238563
0.0238765
0.02397
0.0239717
0.0239686
0.0239553
0.0239665
0.0239683
0.0238459
0.0227221
0.0227224
0.0234932
0.0235206
0.0239262
0.023927
0.0239021
0.0238975
0.0239247
0.0239255
0.0164483
0.0177412
0.0198457
0.0199505
0.0186643
0.0187468
0.0164479
0.0230344
0.022988
0.0238021
0.0174516
0.0172627
0.0184766
0.0184698
0.0169735
0.0185811
0.018619
0.0171411
0.01719
0.023921
0.0239222
0.023885
0.0238932
0.0239187
0.0239199
0.0198908
0.0228751
0.0229385
0.0227424
0.0228083
0.019703
0.0232944
0.0237209
0.0237568
0.0237447
0.0237335
0.0233295
0.022901
0.0232544
0.0232106
0.0226009
0.0225281
0.0227078
0.0159574
0.0160997
0.0161202
0.0159008
0.0223752
0.0189
0.0184533
0.0192807
0.0190096
0.0219854
0.0214744
0.0215234
0.0226947
0.022844
0.023608
0.0239966
0.0239975
0.0239955
0.0158629
0.0159116
0.0181317
0.0180056
0.0133553
0.0165308
0.0160699
0.0160908
0.0159048
0.0159964
0.0166401
0.0120111
0.0223974
0.0225204
0.0240038
0.0240032
0.0239988
0.0239102
0.0239047
0.02394
0.0239293
0.0239462
0.0239585
0.0239399
0.0239435
0.0236567
0.0237807
0.0233563
0.0233892
0.0233876
0.0233537
0.0236942
0.0234545
0.0234406
0.0219846
0.0215887
0.0215641
0.0216493
0.0216395
0.0219138
0.0239536
0.0239661
0.0239673
0.0239629
0.0239649
0.02395
0.0238234
0.0239213
0.0238718
0.0238548
0.0239127
0.0239345
0.0239354
0.0235441
0.0235504
0.0236543
0.0235747
0.0239177
0.0239184
0.0238806
0.0239294
0.0239302
0.0239072
0.0238907
0.0239218
0.0239225
0.0233709
0.0234821
0.0234373
0.023518
0.0235049
0.0233601
0.0156991
0.0157103
0.0158399
0.0158031
0.0177855
0.0165414
0.0164944
0.0215965
0.0216067
0.0222818
0.0217482
0.0218497
0.021577
0.0216455
0.0221906
0.0239937
0.0239929
0.0239932
0.0239937
0.0239964
0.0239967
0.0239979
0.0239947
0.0239955
0.0239955
0.0218895
0.0225967
0.0225552
0.0227199
0.0226552
0.0219386
0.0222065
0.022404
0.0223214
0.0225235
0.0224817
0.0221287
0.0239956
0.0239962
0.0239951
0.0239895
0.0239863
0.0239936
0.0239924
0.015963
0.0169901
0.0161067
0.0161325
0.0160287
0.0159775
0.0180405
0.0181552
0.0167664
0.0154626
0.0154036
0.0174629
0.0158299
0.015755
0.015818
0.0182258
0.0161663
0.0157488
0.0225511
0.0226338
0.0230488
0.0223396
0.0223624
0.0222829
0.0222973
0.0228767
0.0224295
0.0224662
0.0167494
0.0157287
0.0158112
0.0157061
0.0156785
0.0168056
0.023988
0.023989
0.0239879
0.0239824
0.0239844
0.0239869
0.0239065
0.0239438
0.0239217
0.023916
0.0239298
0.0239344
0.0239194
0.0239249
0.0236918
0.0237516
0.0234285
0.0234404
0.0234023
0.023416
0.023793
0.0235969
0.0236037
0.0234368
0.0234508
0.0237205
0.023441
0.0230222
0.0229594
0.0228206
0.0231136
0.0230808
0.0233589
0.0230304
0.0230208
0.023134
0.0230748
0.0233432
0.0234804
0.0231821
0.0232151
0.0230578
0.0231226
0.02345
0.0230046
0.0222488
0.0228232
0.0227773
0.0216
0.0216338
0.0238019
0.0239151
0.0239073
0.0237829
0.0238793
0.0239451
0.0239273
0.023544
0.0234828
0.0237668
0.0237801
0.0238905
0.0236749
0.0236103
0.0239582
0.0239682
0.0239837
0.0239757
0.0239449
0.0239066
0.0239434
0.0239706
0.023975
0.0239767
0.023969
0.0239716
0.0239619
0.0239505
0.0239617
0.0239809
0.0239775
0.0239749
0.0239826
0.0239789
0.0239824
0.0239703
0.0239725
0.0239672
0.0239729
0.0222679
0.0221252
0.023031
0.021977
0.0221035
0.0217207
0.0224986
0.0213309
0.0212146
0.0217872
0.0217047
0.0235904
0.0231817
0.0232769
0.0229944
0.0230844
0.023566
0.0238535
0.0237001
0.0237447
0.0233314
0.0235937
0.0238074
0.0231023
0.0229543
0.0234297
0.0224
0.0224935
0.0222416
0.0223198
0.023403
0.0235202
0.022847
0.0229153
0.0225992
0.0227173
0.0234994
0.0238494
0.0238849
0.0207528
0.019534
0.0197143
0.0191432
0.0193284
0.0207461
0.0196987
0.0197916
0.0197795
0.0201453
0.0206809
0.018139
0.0183103
0.018462
0.0181672
0.0208082
0.0206681
0.0188247
0.0189749
0.0185229
0.0186896
0.0206471
0.0204729
0.0203693
0.0209489
0.0207976
0.0194127
0.0192975
0.0199565
0.0198676
0.023516
0.0235296
0.0239034
0.0239278
0.0239286
0.0239232
0.0239239
0.0238956
0.0165923
0.0194472
0.0196867
0.0175504
0.0164355
0.0189095
0.0191624
0.0178617
0.0176501
0.0216631
0.0195404
0.0195521
0.021426
0.0193117
0.0189065
0.0195473
0.0194854
0.0215381
0.018336
0.0180898
0.0183182
0.0185032
0.0171667
0.0174522
0.0179058
0.0234246
0.0236437
0.0236272
0.0236674
0.023656
0.0234384
0.0232041
0.0232552
0.0232511
0.0231581
0.0231553
0.023196
0.023276
0.0235495
0.0235308
0.0236037
0.0235756
0.0233073
0.0157283
0.0168598
0.0169573
0.0167272
0.0167916
0.0157766
0.0162699
0.0176321
0.0178716
0.0171208
0.0173603
0.0159998
0.0160805
0.0155118
0.0155751
0.0156511
0.0155647
0.0159255
0.0164673
0.0166351
0.0158123
0.0161429
0.0158996
0.02332
0.0232919
0.0229627
0.02255
0.02267
0.0157868
0.0159417
0.0172935
0.0160785
0.0158579
0.0164273
0.0163061
0.0174796
0.0159096
0.0158801
0.0215311
0.0215435
0.0240598
0.0240597
0.0240731
0.0240596
0.0240595
0.0240729
0.0240595
0.0240595
0.024073
0.0240597
0.0240599
0.0240731
0.0240333
0.0240331
0.0240465
0.0240328
0.0240326
0.024053
0.0240323
0.0240319
0.0240527
0.0240319
0.0240324
0.0240528
0.0240327
0.0240332
0.0240532
0.0240336
0.0240338
0.0240468
0.0240073
0.0240067
0.0240264
0.0240062
0.0240049
0.0240256
0.0240181
0.0240178
0.0240287
0.0240171
0.0240175
0.0240283
0.0240189
0.0240194
0.024026
0.0240074
0.0240081
0.0240209
0.0239815
0.0239808
0.0240001
0.0239931
0.023993
0.0239995
0.0239974
0.0239971
0.0240005
0.0239919
0.0239934
0.024003
0.0239821
0.0239829
0.0239954
0.0239562
0.0239556
0.0239745
0.0239678
0.0239678
0.023974
0.0239722
0.0239722
0.0239752
0.0239678
0.0239688
0.0239778
0.0239576
0.0239581
0.0239705
0.0239308
0.0239307
0.0239494
0.0239429
0.0239432
0.0239493
0.0239483
0.0239484
0.0239513
0.0239449
0.0239454
0.0239541
0.0239335
0.0239334
0.0239458
0.0239054
0.0239056
0.0239244
0.0239181
0.0239185
0.0239247
0.0239244
0.0239246
0.0239276
0.0239219
0.0239217
0.0239306
0.0239091
0.0239086
0.0239211
0.0238798
0.02388
0.0238992
0.0238996
0.0238998
0.023903
0.0238978
0.0238971
0.0239063
0.0238841
0.0238835
0.0238961
0.0238539
0.023854
0.0238736
0.0238722
0.0238722
0.0238786
0.0238585
0.0238579
0.0238708
0.0238272
0.0238268
0.0238401
0.0238271
0.0238267
0.0238465
0.0238398
0.0238321
0.0238424
0.0167305
0.0233124
0.0233671
0.0238323
0.0238328
0.0238524
0.023832
0.0238321
0.023845
0.023801
0.0238007
0.0238138
0.023801
0.0238003
0.0238201
0.0238002
0.0186081
0.0185544
0.0216247
0.0238049
0.0238251
0.0238056
0.0238064
0.0238259
0.0238056
0.0238058
0.0238189
0.0237748
0.0237745
0.0237876
0.0237528
0.0209686
0.0186202
0.0227183
0.023775
0.0237981
0.0237796
0.0237802
0.0237933
0.0239783
0.0239813
0.0239814
0.0239822
0.0239833
0.0239784
0.0240009
0.0239976
0.0239978
0.0239543
0.0239573
0.0239572
0.0239591
0.0239591
0.0239548
0.0239769
0.0239723
0.0239734
0.0239306
0.0239336
0.0239334
0.0239364
0.0239367
0.0239325
0.0239534
0.0239492
0.0239506
0.0239061
0.0239092
0.023909
0.0239131
0.0239137
0.0239094
0.023931
0.0239268
0.0239278
0.0238885
0.023888
0.0238848
0.0239064
0.0239034
0.023904
0.0238459
0.0238598
0.0238639
0.0133301
0.0173786
0.0173906
0.0209541
0.0209735
0.0120556
0.0238817
0.0238784
0.0238788
0.0240029
0.0240142
0.0240146
0.0239995
0.0239994
0.0239984
0.0240284
0.0240174
0.024017
0.0239992
0.0239994
0.0240079
0.0240077
0.0240042
0.0240288
0.024018
0.0240183
0.0239803
0.0239866
0.0239867
0.0239882
0.0239864
0.0239801
0.0239992
0.0239927
0.0239915
0.0239898
0.0239893
0.0239864
0.0239999
0.023998
0.0239984
0.0239809
0.0239902
0.0239888
0.0239878
0.0239878
0.0239817
0.0240003
0.023994
0.0239941
0.0239555
0.0239616
0.0239615
0.0239634
0.0239617
0.0239556
0.0239739
0.0239678
0.0239664
0.0239662
0.0239692
0.0239692
0.0239602
0.0239645
0.0239627
0.0239747
0.023973
0.0239713
0.0239667
0.0239619
0.0239688
0.023957
0.0239659
0.0239649
0.0239634
0.0239638
0.0239579
0.0239757
0.0239697
0.0239695
0.0239309
0.023937
0.0239367
0.0239395
0.0239373
0.0239312
0.0239495
0.0239434
0.0239424
0.0239425
0.0239454
0.0239453
0.0239166
0.0239365
0.023935
0.0239457
0.023944
0.0239255
0.0239336
0.0239424
0.0239421
0.0239395
0.0239402
0.0239343
0.023952
0.0239461
0.0239455
0.023906
0.0239123
0.0239118
0.0239152
0.0239127
0.0239064
0.0239251
0.0239189
0.0239183
0.0239185
0.0239215
0.0239213
0.0239025
0.0239221
0.0239177
0.0239228
0.0239215
0.0239051
0.0238138
0.0236355
0.0236581
0.0239095
0.0239186
0.0239189
0.0239155
0.0239163
0.0239102
0.0239283
0.0239223
0.0239215
0.0238729
0.0237406
0.0237669
0.0238319
0.0238361
0.0238814
0.0238849
0.0238911
0.0238947
0.0238908
0.0238915
0.0238852
0.023904
0.0238978
0.023897
0.0238638
0.0238458
0.0238457
0.0238419
0.0238432
0.0238694
0.0238217
0.0238286
0.0238332
0.0161206
0.0237513
0.0237375
0.0219672
0.0219648
0.0144914
0.0238024
0.0238119
0.0194873
0.0238384
0.0238357
0.0238275
0.023851
0.0238392
0.0238454
0.0239771
0.0239779
0.0239763
0.0239886
0.0239837
0.0239822
0.0239845
0.0239844
0.0239876
0.023985
0.0239824
0.0239866
0.0239986
0.0239983
0.0240001
0.0239878
0.0239895
0.0239899
0.0239735
0.0239705
0.0239691
0.0239871
0.0239861
0.0239864
0.023988
0.0239849
0.0239851
0.0239854
0.0239858
0.0239875
0.0239764
0.0239779
0.0239771
0.0239338
0.0239493
0.0239474
0.0239608
0.0239589
0.0239509
0.0239602
0.0239602
0.0239632
0.0239298
0.0238828
0.023896
0.0237318
0.023738
0.0238648
0.0239047
0.023911
0.0239417
0.0239649
0.0239605
0.0239619
0.0239474
0.0239551
0.0239566
0.0239698
0.0239733
0.0239749
0.0239578
0.0239589
0.0239521
0.0239705
0.0239708
0.0239663
0.0239078
0.0239255
0.0239242
0.0239336
0.0239323
0.0239129
0.0239364
0.0239366
0.0239395
0.0238358
0.0236864
0.0236818
0.0237289
0.0237243
0.0238494
0.0238547
0.0237205
0.0237261
0.0236791
0.0236781
0.0238331
0.0239422
0.023938
0.0239393
0.0239151
0.0239153
0.0238845
0.0239478
0.0239478
0.0239436
0.0238237
0.0233296
0.0232654
0.0236117
0.0235975
0.0238357
0.0238536
0.0237383
0.0237337
0.0232458
0.0231762
0.0238147
0.0238778
0.0238212
0.0238269
0.0236825
0.0237027
0.0238363
0.0239196
0.0239152
0.0239161
0.0238973
0.0239138
0.0239151
0.0239061
0.0239074
0.0238998
0.0238847
0.0239145
0.0239148
0.0239163
0.0239175
0.0238935
0.0239249
0.0239254
0.0239211
0.0238491
0.0237191
0.0237112
0.0237541
0.0237495
0.0238495
0.0238412
0.023638
0.0236251
0.0237028
0.0236937
0.0238472
0.0238718
0.0238382
0.0238402
0.0237746
0.0237946
0.0238736
0.0238972
0.0239033
0.0239047
0.0238965
0.023901
0.0238942
0.0239009
0.0239004
0.0238973
0.0238396
0.0231337
0.0230638
0.0229219
0.0230819
0.0238364
0.0238486
0.023762
0.0237582
0.0238549
0.0237258
0.0237232
0.0239907
0.0239939
0.0239941
0.0239938
0.0239952
0.0239902
0.0240002
0.0239968
0.0239956
0.0239985
0.0239973
0.0239978
0.02389
0.0238873
0.0238809
0.0239001
0.0238937
0.0238932
0.0238935
0.0238966
0.0238965
0.0238873
0.0238959
0.0238928
0.0239021
0.023899
0.0238884
0.0233564
0.0230594
0.0231008
0.022795
0.0228569
0.0232098
0.0238592
0.0238657
0.0238689
0.0239984
0.023998
0.0239992
0.0239903
0.0239921
0.023993
0.0239954
0.023997
0.0240021
0.0239902
0.0239952
0.0239936
0.0239946
0.0239944
0.0239912
0.0238955
0.02391
0.0239051
0.0239161
0.0239116
0.0238964
0.0239121
0.0239123
0.0239154
0.0211231
0.0196783
0.0195559
0.0203236
0.0201951
0.0215867
0.0230916
0.0226864
0.0227358
0.0238942
0.0238911
0.0238916
0.0238857
0.0238902
0.0238948
0.0238837
0.0238885
0.0238843
0.0218396
0.0205763
0.0204534
0.0211112
0.0210268
0.0221372
0.0238741
0.0238773
0.0238805
0.0238708
0.0238741
0.0238725
0.0238756
0.0238752
0.0238719
0.0240153
0.0240092
0.0240088
0.0240099
0.0240096
0.0240155
0.0240012
0.0240075
0.024008
0.0240041
0.0240039
0.0240019
0.0240155
0.0240095
0.0240099
0.0240088
0.0240092
0.0240152
0.0239933
0.0239903
0.0239915
0.023996
0.0239975
0.0239995
0.0239922
0.0239932
0.0239926
0.0239966
0.0239962
0.0239944
0.0236947
0.0237298
0.0238722
0.0238844
0.0238534
0.023856
0.0235439
0.0233263
0.0233505
0.0231396
0.0231735
0.0234302
0.0235117
0.0237634
0.0237546
0.0237778
0.023771
0.02353
0.0238684
0.0238443
0.023845
0.0239743
0.0239806
0.0239833
0.0239772
0.023954
0.023971
0.0239662
0.0239802
0.0239766
0.0239921
0.023991
0.0239897
0.0239916
0.0239912
0.0239929
0.0239788
0.0239775
0.023979
0.0239819
0.0239809
0.0239799
0.0237893
0.0237985
0.0238988
0.0238851
0.0237735
0.0237811
0.0239426
0.023947
0.023961
0.0239545
0.023934
0.0239383
0.0239403
0.0239415
0.0239196
0.0239612
0.0239601
0.0239586
0.0239632
0.0239617
0.0239626
0.0239554
0.0239541
0.0239527
0.0239571
0.0239556
0.0239568
0.0239166
0.0239382
0.0239392
0.0239676
0.0239688
0.023966
0.023973
0.0239724
0.0239709