/*--------------------------------*- C++ -*----------------------------------*\
| =========                 |                                                 |
| \\      /  F ield         | OpenFOAM: The Open Source CFD Toolbox           |
|  \\    /   O peration     | Version:  5.x                                   |
|   \\  /    A nd           | Web:      www.OpenFOAM.org                      |
|    \\/     M anipulation  |                                                 |
\*---------------------------------------------------------------------------*/
FoamFile
{
    version     2.0;
    format      ascii;
    class       volScalarField;
    location    "200";
    object      p;
}
// * * * * * * * * * * * * * * * * * * * * * * * * * * * * * * * * * * * * * //

dimensions      [0 2 -2 0 0 0 0];

internalField   nonuniform List<scalar> 
6584
(
20.9989
19.1745
17.3496
15.525
13.7006
11.8761
10.0518
8.22796
6.40441
4.58084
2.7567
0.931405
-0.895459
-2.72379
-4.55301
-6.38247
-8.21165
-10.0404
-11.8688
-13.6969
-15.5247
-17.3518
-19.178
-21.0032
21.0005
19.1788
17.3552
15.531
13.7067
11.8813
10.0546
8.22929
6.40555
4.58225
2.75841
0.933306
-0.893602
-2.72222
-4.55184
-6.3821
-8.21264
-10.043
-11.8732
-13.7026
-15.5307
-17.3579
-19.1829
-21.0045
21.0009
19.1821
17.3618
15.5391
13.7152
11.8898
10.061
8.23219
6.40714
5.03952
3.21706
1.3931
-0.433318
-2.26236
-4.09306
-6.38574
-8.22083
-10.0532
-11.8835
-13.7121
-15.539
-17.3642
-19.1857
-21.0055
21.0008
19.1827
17.3641
15.5442
13.7219
11.8977
10.0692
8.2389
6.41119
5.04173
3.221
1.39887
-0.427224
-2.25874
-4.09801
-5.93667
-8.23673
-10.0673
-11.8951
-13.7215
-15.546
-17.3677
-19.1872
-21.0063
21.0004
19.1824
17.3642
15.5459
13.7261
11.9036
10.0782
8.25362
6.87615
5.0464
3.22648
1.4071
-0.418072
-2.26226
-4.11693
-5.96036
-7.7934
-10.08
-11.9052
-13.7291
-15.5503
-17.3697
-19.1884
-21.0071
20.9999
19.182
17.3639
15.5459
13.7275
11.9076
10.0866
8.72065
6.89746
5.07377
3.47151
1.64949
-0.17094
-2.04561
-4.14047
-5.97901
-7.80733
-10.0907
-11.9137
-13.7342
-15.553
-17.3714
-19.1896
-21.0079
20.9995
19.1815
17.3634
15.5453
13.727
11.9082
10.0887
8.72276
6.90369
5.08814
3.50478
1.80299
-0.01033
-2.06721
-3.93351
-5.99813
-7.82169
-10.1004
-11.92
-13.7377
-15.5553
-17.373
-19.1907
-21.0086
20.999
19.181
17.3628
15.5445
13.726
11.907
10.0881
8.72291
6.90072
5.07966
3.49189
1.80695
-2.01905
-3.96994
-6.0179
-7.83462
-10.1069
-11.9242
-13.7406
-15.5573
-17.3743
-19.1916
-21.0091
20.9986
19.1805
17.3622
15.5437
13.7249
11.9053
10.0854
8.72018
6.8942
5.06378
3.45817
1.71788
-2.13491
-4.00991
-6.03365
-7.84185
-10.109
-11.9259
-13.7425
-15.5588
-17.3753
-19.1922
-21.0094
20.9983
19.1801
17.3617
15.543
13.724
11.9042
10.0836
8.71688
6.88756
5.05263
3.43833
1.68318
-2.18655
-4.03182
-6.04057
-7.84408
-10.1073
-11.9239
-13.7418
-15.5592
-17.3756
-19.1925
-21.0094
20.9981
19.1797
17.3613
15.5425
13.7235
11.9037
10.0829
8.71526
6.88549
5.05183
3.44064
1.7014
-2.16337
-4.02299
-6.03383
-7.83863
-10.1015
-11.9182
-13.7373
-15.5574
-17.3755
-19.1923
-21.0092
20.9981
19.1796
17.3612
15.5424
13.7235
11.904
10.0833
8.71545
6.88766
5.059
3.45727
1.74198
-2.09676
-3.99065
-6.01556
-7.82608
-10.0917
-11.9098
-13.73
-15.5522
-17.3734
-19.1917
-21.0086
20.9981
19.1796
17.3612
15.5426
13.7239
11.905
10.0848
8.71729
6.89213
5.06878
3.47632
1.78165
-2.02352
-3.94926
-5.99124
-7.80882
-10.0783
-11.8987
-13.7206
-15.5445
-17.3694
-19.1906
-21.0078
20.9982
19.1798
17.3615
15.543
13.7245
11.906
10.0861
8.26395
6.89597
5.07358
3.48124
1.77544
0.0585584
-2.06928
-3.91061
-5.9638
-7.78902
-10.0623
-11.8856
-13.7095
-15.5365
-17.3638
-19.1876
-21.0068
20.9984
19.1799
17.3616
15.5433
13.7249
11.9064
10.0855
8.25935
6.89149
5.05713
3.45884
1.64539
-0.176974
-2.03443
-4.10711
-5.94081
-8.22519
-10.0511
-11.8768
-13.7015
-15.5292
-17.3562
-19.1811
-21.0042
20.9985
19.18
17.3617
15.5432
13.7248
11.9058
10.0827
8.25104
6.87543
5.04877
3.22812
1.63443
-0.195244
-2.26041
-4.09868
-5.93261
-8.21861
-10.0455
-11.8713
-13.6991
-15.525
-17.3507
-19.1758
-21.0014
20.9985
19.18
17.3615
15.543
13.7242
11.9042
10.0783
8.24579
6.4149
5.04698
3.22384
1.39875
-0.429007
-2.26259
-4.09691
-5.9278
-8.2124
-10.0389
-11.8659
-13.6938
-15.5208
-17.3471
-19.1744
-21
20.9985
19.1798
17.3612
15.5424
13.7231
11.901
10.0729
8.2412
6.4135
4.58881
3.22099
1.39626
-0.435851
-2.26433
-4.55198
-6.38053
-8.20861
-10.0354
-11.8625
-13.6898
-15.5166
-17.3433
-19.1706
-20.998
20.9984
19.1796
17.3607
15.5417
13.722
11.8976
10.0676
8.23797
6.41176
4.58756
2.75854
0.937082
-0.891301
-2.72464
-4.54976
-6.3788
-8.20628
-10.0332
-11.86
-13.687
-15.5138
-17.3407
-19.1676
-20.996
20.9983
19.1793
17.3602
15.5409
13.7208
11.8949
10.0642
8.23631
6.41036
4.58623
2.75806
0.93474
-0.892606
-2.72337
-4.54884
-6.37764
-8.20447
-10.0314
-11.858
-13.6848
-15.5117
-17.3386
-19.1652
-20.9945
20.9982
19.1789
17.3595
15.54
13.7195
11.893
10.062
8.23512
6.40939
4.58504
2.7575
0.93279
-0.894084
-2.72284
-4.54846
-6.37672
-8.20314
-10.03
-11.8564
-13.6831
-15.51
-17.3368
-19.1633
-20.9932
20.998
19.1785
17.3588
15.539
13.7182
11.8916
10.0606
8.23418
6.40838
4.5841
2.75688
0.931723
-0.894867
-2.72272
-4.54829
-6.37606
-8.20217
-10.029
-11.8552
-13.6817
-15.5086
-17.3352
-19.1616
-20.9921
20.9978
19.1781
17.3581
15.538
13.717
11.8903
10.0595
8.23305
6.40752
4.58336
2.75648
0.931058
-0.89534
-2.72262
-4.54818
-6.37556
-8.20147
-10.0282
-11.8542
-13.6807
-15.5074
-17.3339
-19.1602
-20.9912
20.9975
19.1776
17.3574
15.5371
13.7158
11.8891
10.0584
8.232
6.40674
4.58257
2.75615
0.930598
-0.895675
-2.72256
-4.54812
-6.37515
-8.20095
-10.0275
-11.8534
-13.6799
-15.5064
-17.3328
-19.1591
-20.9904
20.9973
19.1771
17.3567
15.5361
13.7146
11.888
10.0574
8.23102
6.40585
4.58178
2.75588
0.930252
-0.895911
-2.7225
-4.54806
-6.37485
-8.20053
-10.027
-11.8528
-13.6792
-15.5056
-17.3319
-19.1581
-20.9897
20.997
19.1767
17.356
15.5352
13.7135
11.8869
10.0566
8.2301
6.40495
4.58103
2.75512
0.929592
-0.896452
-2.72272
-4.54824
-6.3748
-8.20044
-10.0268
-11.8526
-13.679
-15.5051
-17.3312
-19.1572
-20.9891
20.9968
19.1762
17.3553
15.5344
13.7124
11.8859
10.0557
8.22928
6.40409
4.57963
2.75373
0.928251
-0.897634
-2.72373
-4.54925
-6.37563
-8.20123
-10.0275
-11.8533
-13.6795
-15.5054
-17.3314
-19.1573
-20.989
20.9965
19.1758
17.3547
15.5335
13.7114
11.8849
10.0549
8.22849
6.40286
4.57787
2.75205
0.926534
-0.899326
-2.72533
-4.55083
-6.37706
-8.20262
-10.0288
-11.8545
-13.6806
-15.5064
-17.3324
-19.1582
-20.9893
20.9962
19.1753
17.3541
15.5328
13.7105
11.884
10.0541
8.2273
6.40123
4.57618
2.75038
0.924854
-0.900984
-2.72691
-4.55239
-6.37849
-8.20401
-10.0301
-11.8558
-13.6818
-15.5075
-17.3334
-19.1592
-20.9897
20.996
19.1749
17.3535
15.532
13.7096
11.8831
10.053
8.22564
6.39961
4.57449
2.74874
0.923205
-0.902612
-2.72846
-4.55395
-6.37992
-8.20542
-10.0314
-11.8571
-13.683
-15.5086
-17.3345
-19.1602
-20.9901
20.9958
19.1745
17.3529
15.5313
13.7086
11.8817
10.0511
8.22397
6.39799
4.57282
2.74712
0.921579
-0.904218
-2.73
-4.55547
-6.38137
-8.20684
-10.0328
-11.8583
-13.6842
-15.5098
-17.3356
-19.1613
-20.9905
20.9956
19.1742
17.3524
15.5306
13.7071
11.8793
10.0491
8.2223
6.39639
4.57119
2.74551
0.919968
-0.905808
-2.73154
-4.557
-6.38279
-8.20826
-10.0341
-11.8596
-13.6854
-15.511
-17.3367
-19.1624
-20.991
20.9954
19.1738
17.3519
15.5296
13.7047
11.8764
10.0471
8.22063
6.3948
4.56954
2.74392
0.918374
-0.907383
-2.73307
-4.55849
-6.38424
-8.20967
-10.0354
-11.8609
-13.6867
-15.5122
-17.3379
-19.1635
-20.9914
20.9952
19.1735
17.3515
15.528
13.7017
11.8736
10.0452
8.21896
6.39321
4.56792
2.74231
0.91679
-0.908952
-2.73458
-4.56
-6.38568
-8.21109
-10.0368
-11.8622
-13.6879
-15.5135
-17.3391
-19.1646
-20.9919
20.995
19.1732
17.351
15.5265
13.6989
11.8709
10.0432
8.21729
6.39159
4.56628
2.7407
0.915212
-0.91051
-2.73608
-4.5615
-6.38708
-8.21251
-10.0381
-11.8636
-13.6892
-15.5147
-17.3403
-19.1658
-20.9923
20.9949
19.1729
17.3507
15.5255
13.6971
11.8686
10.0412
8.21565
6.39006
4.5647
2.73909
0.913642
-0.912067
-2.73765
-4.56298
-6.38851
-8.21392
-10.0395
-11.8649
-13.6905
-15.516
-17.3415
-19.167
-20.9928
1.72633
-1.90591
-1.78689
1.68435
-1.97245
-1.9193
1.69712
-1.95356
-1.97482
1.73663
-1.88558
-1.94662
1.77741
-1.80605
-1.87572
1.7886
0.186077
0.0656362
-1.73616
-1.79643
1.81658
0.219352
-1.77011
-1.70469
3.46619
1.96086
2.02993
-1.02488
-0.882058
-2.12308
-3.55398
-3.51504
3.4411
1.92085
1.95313
1.69813
0.92093
0.94622
-1.19799
-1.15436
-2.18411
-3.58847
-3.56538
3.43824
1.93014
1.91969
1.68478
0.910068
0.903959
-1.23191
-1.23721
-2.16987
-3.58619
-3.59151
3.45246
1.96519
1.93392
1.71573
0.966455
0.940882
-1.12424
-1.17591
-2.10586
-3.55303
-3.58006
-1.00639
-1.0783
-2.03249
-3.50684
-3.54201
-0.906698
-0.94954
1.64904
0.168402
0.175547
-0.0623736
-1.5675
-1.72796
0.950905
1.00074
1.75772
0.881705
0.829618
0.990501
0.891512
-1.15089
-1.06594
-1.85936
-1.14648
-1.2039
0.904494
0.917838
1.69344
0.828795
0.812511
0.825266
0.829901
-1.23298
-1.20329
-1.95738
-1.25659
-1.27555
-1.20685
-1.25283
-1.9499
0.937287
0.913344
1.68705
0.820666
0.84978
0.813017
0.818205
-1.18134
-1.22792
-1.9698
-1.27013
-1.23673
-1.27851
-1.27367
-1.97318
0.854555
0.881426
0.852454
0.850891
-1.08123
-1.12329
-1.91322
-1.17927
-1.16537
-1.23232
-1.18086
-1.92219
0.916543
0.939559
0.885205
0.912772
-0.955899
-1.00033
-1.15972
-1.11796
-1.84558
0.964791
0.939567
0.942006
0.962534
-0.851642
-0.902008
1.76984
1.01092
1.09831
-0.528706
-0.37859
3.47185
2.00232
1.97004
1.758
1.02521
0.99905
-0.499158
-0.524022
-1.9666
-3.46225
-3.49499
0.611431
0.48609
-1.00467
-1.1322
-1.8414
0.995432
0.970112
1.72085
0.436059
0.454935
0.511464
0.521551
0.452832
0.471147
-0.527714
-0.550425
-1.8357
-1.11185
-1.06902
0.523319
0.53314
-1.0629
-1.02311
-1.76838
0.225077
0.953956
1.00309
-0.863969
-0.740677
0.0984278
-0.556215
-0.967789
-0.607398
-0.449244
-0.588621
-0.946863
-1.17607
-1.17764
-1.24561
-1.24559
-1.1517
-1.14907
-1.02411
-0.632201
-1.05433
-0.472606
-0.496378
-0.582156
-0.557995
-0.930325
0.420004
0.854469
0.457288
0.477119
0.45924
0.846961
0.480148
0.538955
0.93092
0.471667
0.418873
-1.11585
-1.11132
0.815491
0.815657
0.84019
0.839393
-1.20714
-1.20393
-1.24915
-1.59942
-1.58924
-1.61005
-1.60232
-1.2523
-1.22791
-1.56515
-1.5456
-1.58521
-1.57057
-1.22849
0.835662
0.837651
0.81251
0.813459
-1.1899
-1.1947
-1.23985
-1.59787
-1.60791
-1.58059
-1.59379
-1.23557
-1.28664
-1.6147
-1.61183
-1.61047
-1.61447
-1.28661
0.440239
0.865441
0.492523
0.472018
0.510965
0.490888
0.86943
0.834433
0.475795
0.838226
-1.10222
-1.10423
-1.20541
-1.56022
-1.57538
-1.53952
-1.55519
-1.2048
0.493051
0.508875
0.897153
0.527581
0.510674
0.547681
0.529619
0.901058
0.472318
0.490912
-0.974942
-0.606606
-0.585559
-0.625207
-0.606357
-0.98153
-0.544266
0.52602
0.536656
0.200234
0.534943
0.521822
-0.0113695
-0.417771
-0.469762
-0.0380167
3.48531
2.12925
2.00625
1.79293
1.12651
1.11109
-0.0335569
-0.742566
-0.788753
0.421059
1.05023
1.02876
1.76315
0.289986
0.282554
0.17738
0.525486
0.501819
0.290641
0.30438
-0.367437
-0.402324
0.0420893
0.31233
0.620928
0.624432
-0.357502
-0.267253
0.179596
0.929441
1.2903
1.28009
-1.1812
-1.01702
-1.16255
0.904963
1.26773
1.27037
1.26704
1.2661
0.904139
-1.24032
-1.24196
-1.13648
-1.15575
-0.232042
-0.237522
-0.924088
-0.554982
-0.56136
0.880291
0.86993
0.197135
0.945859
0.55115
0.662509
-1.13386
-0.976095
-1.00992
-1.18618
-1.50228
-1.46839
-1.53806
-1.51139
-1.19686
0.907471
1.27077
1.2665
1.27861
1.27125
0.908941
0.82072
0.626741
0.653106
0.622468
0.621645
0.81409
0.655647
0.654731
0.834357
-1.2242
-1.1962
-1.25294
-1.41123
-1.38309
-1.43196
-1.42624
-1.26715
1.27297
1.27839
0.924195
0.827935
0.650223
0.625028
0.81199
0.622192
0.622722
0.621464
0.619709
0.815513
-1.17717
-1.21564
-1.25865
-1.42195
-1.42767
-1.36484
-1.39857
-1.23552
-1.28358
-1.43631
-1.43229
-1.43042
-1.43389
-1.28157
-1.08967
-0.916311
-0.915136
-0.975763
-0.958321
-1.11748
-1.18931
-1.51823
-1.5342
-1.49665
-1.51269
-1.18391
0.927318
0.563936
0.549926
0.605155
0.596493
0.930558
0.33058
0.331944
0.950699
0.616611
0.608329
0.324105
0.329816
-0.224893
-0.225794
-0.474518
-0.145622
-0.450848
-0.27996
-0.510914
-0.33965
-0.317512
-0.351348
-0.515555
0.55047
0.373422
0.476477
0.350754
0.53063
0.429143
0.440839
0.300581
0.293983
0.516576
0.346262
0.348649
0.345052
0.343791
0.517281
0.450152
0.4552
-0.53563
-0.536405
0.528099
0.359768
0.351493
0.301469
0.296134
-0.652047
-0.806807
-0.766879
-0.849435
-0.818535
-0.672694
-1.17634
-1.16726
-1.24248
-1.24447
-1.14211
-1.14994
-0.664884
-0.817981
-0.82746
-0.806364
-0.816501
-0.660665
-0.835651
-0.857381
-0.831959
-0.83253
-0.482732
-0.302223
-0.293273
-0.322725
-0.303959
-0.485678
-0.241688
-0.274563
0.44812
0.645439
0.636079
0.668291
0.649975
0.448886
0.614006
0.615586
0.631509
0.61553
0.505557
0.693928
0.673745
0.446631
0.441709
-0.959339
-0.968946
-1.13013
-0.916048
-0.880674
-0.859117
-0.905053
-0.887608
-1.09305
-0.938401
-0.95195
0.618987
0.621285
0.819358
0.560367
0.559148
0.597731
0.563016
0.562262
0.563632
0.56017
0.563075
0.813768
0.621712
0.619722
0.591157
0.585664
0.615642
0.599496
0.594564
0.599128
0.587397
0.592636
0.834849
0.653853
0.651477
-1.22128
-1.19628
-1.41714
-1.41149
-1.24829
-1.2641
-1.42537
-1.41824
0.659991
0.655632
0.83084
0.600006
0.601498
0.558563
0.593898
0.596293
0.605787
0.600692
0.597502
0.621312
0.622187
0.812698
0.563192
0.561696
0.564089
0.563104
0.559224
0.55841
0.561447
0.560381
0.814282
0.620273
0.621022
-1.17705
-1.20975
-1.41145
-1.41871
-1.25366
-1.23107
-1.40113
-1.40812
-1.43784
-1.43596
-1.28525
-1.28354
-1.43594
-1.43668
0.440798
0.477665
0.657892
0.665362
0.64854
0.654502
0.465364
0.502655
0.676356
0.65298
0.66711
0.673513
0.495527
0.627022
0.625787
0.61443
0.626633
0.483811
0.641339
0.647668
0.626222
0.636986
0.478409
-0.939935
-0.922602
-1.09341
-0.871707
-0.897784
-0.860976
-0.862441
-0.901365
-1.11323
-0.949036
-0.932889
0.496898
0.320899
0.329727
0.344513
0.318807
0.49898
0.300457
0.47473
0.331573
0.478389
-0.625452
-0.796
-0.803207
-0.781901
-0.792651
-0.617708
-0.564272
-0.575066
0.334039
0.345908
0.30015
0.320839
-0.198751
-0.222542
-2.00509
-3.50249
-3.47255
-1.7599
-1.07093
-1.03778
0.362785
0.49109
0.474776
-0.0103282
0.0283718
0.295773
-1.73586
-0.995094
-0.988529
1.30646
1.29286
0.932801
-1.19216
-1.14855
-1.15524
-1.23611
-1.23887
1.29223
1.30044
0.951561
-1.13225
-1.12459
-1.16947
-0.91274
-0.896601
-1.06843
0.968191
1.32789
1.31036
0.676102
0.679006
0.834306
-0.90959
-0.932073
-1.08746
0.84838
0.662132
0.675008
-1.22963
-1.16236
-1.16835
-1.20679
-1.33089
-1.32852
-1.27263
-1.37858
-1.3725
-1.23856
0.927367
1.28155
1.28879
0.666969
0.659561
0.843857
-1.18521
-1.14457
-1.13853
-1.22401
-1.26658
-1.32369
-1.32659
-1.28043
-1.33484
-1.33305
-1.32942
-1.33196
-1.27709
0.827599
0.683353
0.672476
-1.21627
-1.35537
-1.3616
-1.14202
-1.47449
-1.49106
0.22388
0.222022
0.63195
0.620033
0.95325
0.223733
0.224522
-0.555151
-0.535556
-0.885031
-0.516204
-0.466024
0.432072
0.403214
0.406873
0.45569
0.450494
0.394692
0.399049
0.415943
0.413203
0.468257
-0.503305
-0.494218
-0.546416
0.357214
0.358616
0.529093
-0.823129
-0.412445
-0.429952
-0.575357
-0.619649
-0.67302
-0.658262
-0.751126
-0.734727
-0.754024
-0.715025
-0.531315
-1.11984
-1.12189
-1.1738
-1.17622
-1.12332
-1.12549
-1.24685
-1.24573
-1.09822
-1.09646
-1.15101
-1.14604
-1.09108
-1.09099
-0.707254
-0.716107
-0.688061
-0.694474
-0.641687
-0.725647
-0.734035
-1.06518
-0.893217
-0.888175
0.42179
0.455068
0.512945
0.513177
0.541389
0.535002
0.472884
0.49413
0.497413
0.510078
0.493452
0.453763
0.693765
0.699702
0.512944
0.459792
0.394336
0.397435
0.421166
-0.780333
-0.769095
0.650902
0.656566
0.846745
0.500016
0.502636
-1.21129
-1.20085
-1.35693
-1.3511
-1.21911
-1.23427
-1.36653
-1.3616
0.841849
0.659572
0.660041
-1.18427
-1.19932
-1.33999
-1.33986
-1.28656
-1.28674
-1.33963
-1.33982
0.443839
0.492987
0.54848
0.549685
0.528121
0.52686
0.467817
0.686735
0.684684
0.83091
0.509566
0.506364
0.51462
0.521346
0.479466
0.531663
0.530065
0.503181
0.501534
-1.34361
-1.34881
-1.21136
-1.19573
-1.33367
-1.33918
0.515283
0.664388
0.669618
0.655774
0.659324
0.511653
-0.596255
-0.742197
-0.778916
-0.729918
-0.736221
-0.593998
-0.62435
-0.684988
-0.684792
-0.546094
-0.507733
-0.589082
0.190785
0.226276
0.239616
0.209069
0.543148
0.374888
0.36029
0.384947
0.378151
0.517766
-0.0610651
-0.0884367
-0.288549
-0.283549
-0.458812
0.391238
0.420214
0.356976
0.28579
0.282719
0.332555
0.322947
0.171041
0.30388
0.259155
0.255788
0.252629
0.256844
0.305967
0.10626
-0.155487
-0.187444
-0.321853
-0.0625549
-0.101455
-1.13682
-1.1424
-1.18653
-1.02046
-1.04989
-1.05366
-1.0601
-1.05342
-1.23899
-1.24014
-1.02053
-1.02823
-1.00704
-1.01268
-1.16248
-1.11626
-1.10821
-0.239632
-0.185385
-0.174471
-0.198754
-0.194663
-0.244145
-0.986367
-1.03213
-1.02478
-1.04966
-1.04131
-0.99832
-1.22655
-1.20552
-1.17028
-1.16928
-1.26979
-1.3262
-1.32373
-1.15338
-1.14964
-1.18492
-1.22104
-1.31708
-1.32058
-1.26314
-1.33754
-1.33618
-1.28193
-1.27973
-1.33414
-1.33579
-0.972636
-1.01398
-1.00626
-1.00609
-1.01183
-0.965862
0.219335
0.216593
0.218859
0.220608
0.326452
0.271476
0.269574
-0.121428
-0.123468
-0.224042
-0.161116
-0.168782
-0.165594
-0.159879
-0.223171
-0.421323
-0.438407
-0.496959
-0.364015
-0.182302
-0.262186
-0.22288
-0.327424
-0.30316
-0.233741
-0.328592
-0.38606
-0.394035
-0.379988
-0.381281
-0.320108
-0.36577
-0.40267
-0.404749
-0.402679
-0.408193
-0.361533
0.387268
0.455601
0.42537
0.371329
0.366096
0.388053
0.380708
0.42869
0.453434
0.408735
0.404162
0.299304
0.297146
0.401805
0.403532
0.349297
0.387593
0.390408
0.44902
0.368152
0.366473
0.363412
0.462694
0.399214
0.388326
-0.474115
-0.479791
-0.535244
-0.432641
-0.437488
-0.412773
-0.422918
-0.540375
-0.484359
-0.47632
0.298385
0.243029
0.247863
0.235492
0.238624
0.296112
-0.702807
-0.68713
-0.630619
-0.690275
-0.725983
-0.717574
-1.09216
-1.17306
-1.12481
-1.13084
-1.07513
-1.06784
-1.08845
-1.0825
-1.24502
-1.24601
-1.05223
-1.05868
-1.03646
-1.04469
-1.14724
-1.09088
-1.08399
-1.10082
-1.09451
-1.14624
-1.06251
-0.699422
-0.700726
-0.651797
-0.701572
-0.705643
-0.842248
-0.790133
-0.780518
-0.809718
-0.800559
-0.850288
-0.834139
-0.77875
-0.775204
-0.77354
-0.772047
-0.833155
-0.738117
-0.317109
-0.375367
-0.379155
-0.251536
-0.263563
0.416243
0.511918
0.511481
0.450928
0.456765
0.525492
0.516765
0.486337
0.4901
0.554135
0.551747
0.614897
0.486358
0.484287
0.391073
0.390044
0.450766
0.357977
0.425989
0.385712
0.39167
-0.965436
-1.01744
-1.0124
-1.02152
-1.02014
-0.964446
-0.935438
-0.926599
-0.873024
-0.821336
-0.835598
-0.809932
-0.813943
-0.866829
-0.895011
-0.847447
-0.854824
-0.88827
0.559231
0.558357
0.592354
0.542684
0.544136
0.532389
0.569017
0.562697
0.563232
0.561106
0.562119
0.585878
0.523515
0.526316
0.526506
0.524144
0.584648
0.613931
0.556286
0.555934
0.533648
0.552456
0.609009
0.503225
0.49577
0.596387
0.540759
0.53839
0.545015
0.54292
0.597995
0.589453
0.532296
0.529075
0.535753
0.533352
0.590881
-1.21573
-1.19708
0.601937
0.549849
0.550865
0.546792
0.548161
0.602037
0.562336
0.548847
0.540633
0.576679
0.596337
0.535113
0.537665
0.537071
0.53425
0.599194
0.599738
0.543867
0.545377
0.54049
0.542514
0.598741
0.563377
0.563258
0.564583
0.563174
0.55882
0.558298
0.561288
0.561614
-1.17931
-1.20439
-1.28638
-1.33958
-1.33868
-1.3374
-1.33869
-1.28547
0.445578
0.540679
0.545689
0.490496
0.464625
0.528044
0.533251
0.515529
0.512602
0.626655
0.567469
0.569259
0.620862
0.565793
0.550522
0.57034
0.56997
0.624827
0.521442
0.518408
0.528828
0.531787
0.482587
0.502371
0.515444
-0.936935
-0.991651
-0.993576
-0.981321
-0.986958
-0.930277
-0.881727
-0.890403
-0.854285
-0.821732
-0.817839
-0.855771
-0.940266
-0.993298
-0.999072
-0.992158
-0.990882
-0.934084
0.323961
0.378199
0.377174
0.381036
0.379739
0.326902
0.329256
0.390601
0.397712
0.378175
0.382869
0.319773
0.293731
0.355253
0.352757
0.362907
0.359113
0.33287
0.37802
0.38109
0.353608
0.363574
0.327911
-0.682027
-0.685111
-0.630157
-0.553975
-0.584588
0.215509
0.217284
0.307709
0.24479
0.235757
0.26692
0.261314
0.315517
0.216185
0.217798
-0.1019
-0.113623
3.23257
2.0972
2.31662
1.64436
0.280652
0.495832
-0.176474
-1.56808
-1.33586
-2.03929
-3.20209
-3.19122
5.08623
3.95471
4.16306
3.50066
2.13618
2.10279
1.68172
0.209987
0.286488
-0.0188697
-1.58274
-1.57539
-2.05668
-3.46584
-3.44248
-3.9272
-5.07269
-5.06145
5.08519
3.95017
3.95662
3.49822
2.0381
2.1474
1.82761
1.16327
1.12934
0.0200254
-0.739185
-0.746719
-1.9671
-2.55272
-2.54007
-3.96032
-5.09682
-5.08372
5.07212
3.92475
3.94522
3.48397
3.02842
3.0389
1.79563
1.57123
1.5851
-2.06515
-2.74137
-2.71334
-4.0008
-5.12132
-5.10901
5.05702
3.90346
3.9182
3.45113
2.98761
2.99599
1.71033
1.47385
1.48195
-2.16283
-2.80964
-2.78713
-4.02931
-5.13979
-5.13201
5.05092
3.89981
3.90097
3.43693
2.97231
2.97336
1.68279
1.44503
1.44526
-2.18654
-2.82947
-2.82725
-4.02808
-5.14161
-5.14319
5.05477
3.91062
3.90156
3.44394
2.98324
2.97876
1.7059
1.47351
1.46826
-2.14064
-2.79785
-2.81286
-4.00024
-5.12516
-5.13537
5.06387
3.92648
3.91451
1.74737
1.51971
1.5136
-2.06894
-2.74108
-2.76345
-3.95979
-5.09763
-5.11218
5.07289
3.93862
3.93024
-1.99721
-2.57212
-2.58694
-3.91976
-5.06684
-5.0823
5.06761
4.1507
4.16104
3.46012
2.10136
2.11657
1.76716
1.09416
1.10196
0.0304733
-0.314096
-0.353495
-2.03499
-3.42454
-3.45222
-4.11823
-5.0345
-5.05126
5.05079
4.13968
4.14292
3.22978
2.09188
2.09876
1.63665
0.266896
0.283311
-0.191821
-1.56993
-1.56868
-2.03084
-3.18071
-3.41904
-4.10101
-5.02046
-5.02473
3.22578
2.31363
2.31653
1.40056
0.489427
0.263461
-0.426633
-1.34422
-1.57027
-2.26131
-3.17922
-3.17821
1.49123
1.50184
1.73589
-1.89072
-1.62
-1.64408
-1.55165
-1.57201
-1.80463
1.44647
1.44869
1.68654
-1.9687
-1.70597
-1.71253
-1.65106
-1.67006
-1.93095
1.46323
1.45853
1.6933
-1.9598
-1.69662
-1.68598
-1.71364
-1.71545
-1.97576
1.5077
1.50215
1.73132
-1.89455
-1.6223
-1.66348
-1.68167
-1.66791
-1.93903
-1.81581
-1.59061
-1.58037
-1.65414
-1.64338
-1.86561
1.10621
1.13129
1.79547
0.163703
0.294233
0.286294
-0.0674631
-0.0919026
0.103714
-1.56991
-1.55925
-1.78675
1.10914
1.17268
1.82814
0.421817
0.449842
0.473362
0.901392
0.940974
0.265908
0.264774
0.356537
-1.7564
-1.51652
-1.53196
-0.989336
-0.988368
-1.72764
3.00589
3.01696
3.47502
1.98921
2.55977
2.54579
2.58794
2.57439
1.99955
-1.00778
-0.87091
-0.900607
-0.756319
-0.780539
-0.902399
-2.7797
-2.75081
-2.08066
-3.54139
-3.0909
-3.10696
-3.058
-3.07409
-3.5282
2.97623
2.981
3.44544
1.92997
2.5154
2.50997
2.53343
2.52323
1.93434
1.46091
1.46688
1.70384
0.92371
1.04378
1.04089
1.06662
1.06191
0.94206
-1.10514
-1.10551
-1.15678
-2.82677
-2.81369
-2.1698
-3.58288
-3.14343
-3.15031
-3.12148
-3.13382
-3.57522
2.97526
2.97301
3.43697
1.92196
2.50763
2.51095
2.50694
2.50622
1.92012
1.44776
1.44588
1.68341
0.907786
1.02987
1.03172
1.02613
1.02588
0.903689
-2.81845
-2.82646
-2.18397
-3.59027
-3.1527
-3.14773
-3.15414
-3.15493
-3.59218
2.99421
2.9885
3.44799
1.95107
2.52848
2.53568
2.51575
2.52171
1.94642
1.48474
1.47906
1.71076
0.955269
1.30395
1.31278
1.05823
1.06144
0.944061
-1.12682
-1.0655
-1.06381
-2.77115
-2.79084
-2.13228
-3.56325
-3.12014
-3.10801
-3.14036
-3.13109
-3.5724
-1.01232
-0.873232
-0.86425
-1.02283
-1.01958
-1.07523
-2.6027
-2.61715
-2.05988
-3.51869
-3.0682
-3.05459
-3.09504
-3.08161
-3.53051
-0.91222
-0.797489
-0.791721
-0.836532
-0.829908
-0.943117
1.19702
1.09085
1.65195
0.188303
0.865983
0.858512
0.498271
0.488649
0.146408
-0.747338
-0.741469
-0.0418959
-1.57234
-0.979006
-1.09959
-1.02563
-0.987045
-1.70161
0.95599
1.07687
1.0715
1.35533
1.33347
0.975266
1.74626
1.51371
1.52704
0.871305
0.713759
0.72945
0.976302
0.866396
0.884132
0.770758
0.783261
0.903076
-1.14581
-1.09531
-1.10176
-1.01372
-1.02234
-1.07459
-1.63804
-1.65721
-1.87607
-1.16128
-1.26739
-1.25367
-1.32843
-1.32044
-1.21578
0.905275
1.02739
1.02657
1.03818
1.0354
0.914221
1.68948
1.45182
1.45592
0.825884
0.765592
0.768893
0.749649
0.749875
0.813443
0.770954
0.772417
0.831977
-1.69318
-1.70345
-1.96366
-1.25892
-1.30675
-1.30369
-1.21562
-1.34435
-1.33705
-1.30154
-1.2972
-1.24806
-1.94112
-1.67524
-1.68945
0.933771
1.05147
1.05474
1.03412
1.03676
0.917303
1.68985
1.45428
1.45065
0.822546
0.760234
0.756756
0.789649
0.787295
0.847711
0.812167
0.749445
0.749653
0.75412
0.752568
0.817338
-1.70861
-1.70021
-1.96529
-1.28725
-1.29002
-1.23971
-1.97519
-1.7148
-1.71104
0.858301
0.713695
0.708097
0.766408
0.762888
0.877711
0.855661
0.79356
0.792203
0.706622
0.700355
0.847034
-1.08372
-1.02733
-1.02536
-1.06598
-1.0684
-1.12268
-1.64317
-1.62772
-1.90401
-1.17518
-1.31112
-1.31607
-1.27599
-1.28178
-1.17125
-1.22725
-1.27905
-1.2831
-1.32119
-1.32723
-1.19116
-1.93085
-1.66301
-1.64834
0.920261
0.80815
0.80421
0.82821
0.825336
0.93668
0.889141
0.774538
0.770328
0.800203
0.796051
0.908903
-0.962275
-0.84974
-0.843136
-0.861204
-0.854419
-0.994297
-1.15368
-1.26433
-1.27023
-1.45228
-1.4688
-1.1364
-1.85556
-1.6327
-1.62216
0.97207
0.645543
0.635903
0.609834
0.641507
0.96851
0.9451
0.833816
0.830971
-0.87998
-0.525459
-0.497818
1.54149
1.5565
1.78269
1.04679
1.38708
1.36271
1.36571
1.34872
1.06002
-0.302029
-0.332196
-0.402309
1.98919
2.55795
2.56485
2.54314
2.55061
1.98453
1.53152
1.52569
1.75272
1.01411
1.29917
1.30563
1.28565
1.2925
1.01038
-0.502291
-0.442514
-0.439824
-0.464798
-0.463734
-0.521473
-2.54484
-2.55827
-1.98917
0.591305
0.540479
0.564624
0.415854
0.427349
0.499036
-1.06092
-1.40609
-1.37187
-1.45679
-1.41898
-1.08041
-1.82296
-1.59413
-1.61642
0.984678
1.32882
1.27991
1.31626
1.3254
0.9811
1.72602
1.49628
1.4905
0.513939
0.458248
0.455986
0.463774
0.461644
0.51965
-0.532176
-0.475241
-0.468881
-1.61161
-1.60109
-1.82576
-1.09345
-1.42972
-1.44671
-1.35372
-1.42418
-1.08737
0.52529
0.468901
0.466382
0.475818
0.474333
0.531454
-1.04427
-1.33171
-1.34324
-1.31058
-1.32076
-1.0384
-1.77738
-1.54902
-1.53928
0.572089
0.608583
0.287009
1.02201
0.710584
0.677323
0.702525
0.718554
1.02169
-0.848568
-0.716265
-0.734718
-0.421614
-0.408416
-0.814
0.156608
-0.268416
-0.293498
-0.823554
-0.860082
-0.988289
-0.510711
-0.654086
-0.626161
-0.642154
-0.625637
-0.570595
-0.925011
-0.806514
-0.830155
-0.884606
-0.875332
-1.01817
-1.05908
-1.00449
-1.00334
-0.476401
-0.417517
-0.41395
-0.43758
-0.434323
-0.493206
-0.572897
-0.716597
-0.723242
-0.702852
-0.709741
-0.569029
-0.936699
-0.823233
-0.816563
0.698563
0.70951
0.862339
0.83996
0.681205
0.694406
0.486456
0.552791
0.546544
0.605068
0.594187
0.528338
0.916411
0.79821
0.812805
-1.06403
-1.06888
-1.12162
-1.10482
-1.0529
-1.05867
0.751168
0.751832
0.816874
0.814539
0.750699
0.750974
0.778418
0.779923
0.842575
0.837339
0.776441
0.777451
-1.30832
-1.30567
-1.24657
-1.5962
-1.49148
-1.49462
-1.48498
-1.48766
-1.59282
-1.60773
-1.5029
-1.50503
-1.49755
-1.50037
-1.60523
-1.25605
-1.31455
-1.31127
-1.28091
-1.27778
-1.22591
-1.55912
-1.4553
-1.46121
-1.44171
-1.44882
-1.5527
-1.5806
-1.47636
-1.48097
-1.46649
-1.4715
-1.57579
-1.22923
-1.28369
-1.28142
0.777061
0.775702
0.834538
0.838748
0.77962
0.77845
0.749332
0.74938
0.812944
0.813242
0.749723
0.749573
-1.30162
-1.30546
-1.24425
-1.60155
-1.49239
-1.48822
-1.49986
-1.49634
-1.60501
-1.58511
-1.47765
-1.47608
-1.48411
-1.48062
-1.58965
-1.23165
-1.29415
-1.29775
-1.6142
-1.50872
-1.50889
-1.50675
-1.50803
-1.61333
-1.61234
-1.50534
-1.50293
-1.50833
-1.50721
-1.61379
0.750801
0.715987
0.862084
0.510041
0.565844
0.567507
0.549888
0.550171
0.489664
0.873583
0.758471
0.754269
0.842632
0.697007
0.688059
-1.04754
-1.04519
-1.10012
-1.10622
-1.05027
-1.0488
-1.25991
-1.2607
-1.20586
-1.5652
-1.45757
-1.45219
-1.47015
-1.46362
-1.5703
-1.54481
-1.43656
-1.43103
-1.44719
-1.44204
-1.55011
-1.20317
-1.25731
-1.25849
0.494435
0.437182
0.436846
0.45252
0.447819
0.505549
0.783437
0.779018
0.893172
0.524479
0.582674
0.585438
0.568351
0.569089
0.510077
0.537797
0.682958
0.687709
0.673956
0.678187
0.534699
0.904968
0.791799
0.78764
0.472594
0.413741
0.41539
0.435362
0.432009
0.487677
-0.862693
-0.856476
-0.968598
-0.604089
-0.66174
-0.664138
-0.643052
-0.64656
-0.58921
-0.665695
-0.667749
-0.606664
-0.988193
-0.875174
-0.868893
0.529895
0.390491
0.386385
0.400998
0.392704
0.533827
0.537383
0.480436
0.47787
-0.426256
-0.281276
-0.264305
-0.410652
-0.407504
-0.465991
2.13257
2.58126
2.58164
2.57118
2.5768
2.01674
1.12127
1.34336
1.34785
1.33373
1.33858
1.11583
-0.26763
-0.262707
-0.0267139
-0.753125
-0.502578
-0.502458
-0.489866
-0.517833
-0.772276
1.04214
1.32364
1.32892
1.31193
1.31796
1.03904
1.76816
1.54275
1.53722
0.224914
0.234466
0.209143
0.514987
0.402228
0.388093
0.394831
0.399034
0.506744
-0.377379
-0.243936
-0.224222
-0.253316
-0.259937
-0.387408
0.122594
-0.017637
-0.0461946
0.423327
0.484315
0.335731
0.629698
0.536494
0.522187
0.505481
0.530497
0.628005
-0.339555
-0.257803
-0.277137
-0.119528
-0.063389
-0.272016
0.269414
0.0221775
0.0321512
1.04999
1.04672
0.926451
1.28596
1.16673
1.17021
1.16085
1.16386
1.28396
-1.15905
-1.10529
-1.10711
1.02726
1.02834
0.906125
1.26769
1.14799
1.14711
1.15109
1.14952
1.26982
1.26572
1.14587
1.14632
1.14625
1.14606
1.26679
0.903759
1.02604
1.02642
-1.0769
-1.07048
-1.1312
-0.809914
-0.803529
-0.917997
-0.574078
-0.689441
-0.696115
-0.676607
-0.682869
-0.567784
0.8777
0.65713
0.607012
0.64718
0.65255
0.873976
0.205795
0.425721
0.420126
0.829515
0.847775
0.961216
0.59387
0.735831
0.713168
0.779876
0.759034
0.610846
-1.08106
-1.08789
-1.14036
-1.29113
-1.27972
-1.17438
-1.4908
-1.38492
-1.39615
-1.36066
-1.37331
-1.48061
-1.52998
-1.4254
-1.43379
-1.40649
-1.41639
-1.52135
-1.20651
-1.31127
-1.30157
1.02963
1.02833
0.906252
1.26836
1.14868
1.15021
1.14672
1.14775
1.26838
1.27518
1.15575
1.15839
1.15164
1.15372
1.27417
0.911079
1.03307
1.0311
0.757558
0.761506
0.823902
0.635657
0.698587
0.692727
0.709945
0.705423
0.647131
0.622188
0.686481
0.686506
0.68648
0.68641
0.621853
0.813047
0.74993
0.750251
0.655968
0.713444
0.712397
0.713961
0.71379
0.655501
0.832522
0.773257
0.774163
-1.30544
-1.30709
-1.25766
-1.40915
-1.36034
-1.35988
-1.42949
-1.37605
-1.37791
-1.37247
-1.37446
-1.4289
1.27403
1.15542
1.15328
1.16044
1.15801
1.27693
0.920953
1.03957
1.04235
0.768295