/*--------------------------------*- C++ -*----------------------------------*\
| =========                 |                                                 |
| \\      /  F ield         | OpenFOAM: The Open Source CFD Toolbox           |
|  \\    /   O peration     | Version:  5.x                                   |
|   \\  /    A nd           | Web:      www.OpenFOAM.org                      |
|    \\/     M anipulation  |                                                 |
\*---------------------------------------------------------------------------*/
FoamFile
{
    version     2.0;
    format      ascii;
    class       volScalarField;
    location    "200";
    object      p_rgh;
}
// * * * * * * * * * * * * * * * * * * * * * * * * * * * * * * * * * * * * * //

dimensions      [0 2 -2 0 0 0 0];

internalField   nonuniform List<scalar> 
6584
(
0.00531335
0.00575578
0.00628429
0.00707179
0.00807365
0.00935801
0.010907
0.0127348
0.0146538
0.0165399
0.0178631
0.0180556
0.0167044
0.0138936
0.0101856
0.0062709
0.00269315
-0.000382913
-0.00286216
-0.00480496
-0.00626781
-0.00736996
-0.00809294
-0.00867707
0.00515793
0.0056429
0.00614057
0.00692187
0.00790136
0.00918613
0.0107539
0.0126718
0.0147301
0.0168537
0.0184206
0.0187837
0.0173923
0.0143359
0.0103363
0.00611799
0.00239342
-0.00073965
-0.00320203
-0.00510541
-0.0065142
-0.00758695
-0.00825718
-0.00888608
0.00482422
0.00531997
0.00575988
0.00650191
0.00742386
0.0086932
0.0103072
0.0124746
0.0148421
0.017057
0.0199178
0.0213452
0.0203977
0.0169125
0.0119893
0.00554925
0.00147632
-0.00177525
-0.00417032
-0.00593903
-0.00719841
-0.00816124
-0.00872148
-0.00933389
0.00438563
0.00484924
0.0052047
0.00586082
0.00667303
0.00786032
0.00949431
0.0119149
0.0151425
0.0182676
0.0227793
0.0259593
0.025323
0.0201247
0.0130118
0.006483
-0.00012627
-0.00349557
-0.00570566
-0.007208
-0.00821883
-0.00898552
-0.00938618
-0.00990943
0.00387555
0.00426472
0.00450467
0.00501005
0.00563183
0.0065969
0.00808375
0.0105357
0.0135372
0.0191033
0.0261742
0.0330392
0.0333356
0.0243751
0.0130205
0.00432671
-0.00126863
-0.00619364
-0.00793889
-0.00890466
-0.009533
-0.00999816
-0.0101894
-0.0105556
0.0033228
0.00359572
0.00368737
0.00396384
0.00428549
0.00476346
0.00580043
0.00735377
0.0112864
0.0173922
0.0275221
0.044629
0.0515498
0.0333336
0.0104248
-0.000764096
-0.00608601
-0.00977179
-0.0107562
-0.0109559
-0.0110716
-0.0111339
-0.0110718
-0.0112182
0.00276938
0.00289196
0.00281387
0.00279872
0.00273868
0.0025561
0.00284648
0.00373542
0.00558589
0.0103543
0.0233705
0.0548907
0.0979043
0.0359651
0.00298924
-0.010839
-0.013188
-0.0144158
-0.0140532
-0.0132341
-0.0127123
-0.0122906
-0.0119483
-0.0118267
0.00226282
0.00221799
0.00197099
0.00163992
0.0011545
0.000220657
-0.000611727
-0.000881958
-0.00251593
-0.00370772
8.41821e-05
0.0196999
-0.00569986
-0.0253598
-0.0267107
-0.0225767
-0.0195846
-0.0174596
-0.0154848
-0.0142656
-0.0133331
-0.0127158
-0.0123051
0.00184731
0.00164214
0.0012564
0.00064539
-0.000223002
-0.00181829
-0.00378862
-0.00558597
-0.0110549
-0.0205435
-0.0347407
-0.072667
-0.117655
-0.0650602
-0.0440126
-0.0319581
-0.0241766
-0.0203099
-0.0173236
-0.0154877
-0.0141082
-0.0132667
-0.0125838
0.00155567
0.00122343
0.000758922
-2.9168e-05
-0.00112553
-0.00306113
-0.00572462
-0.00865507
-0.0162048
-0.0300493
-0.0532735
-0.107111
-0.169193
-0.0892184
-0.05423
-0.0377934
-0.0268598
-0.0218842
-0.0183525
-0.0161435
-0.0144793
-0.0135091
-0.0126115
0.00140157
0.000995131
0.000527837
-0.000295874
-0.00140191
-0.00324983
-0.00590325
-0.00908787
-0.0159933
-0.0280328
-0.0477961
-0.0861703
-0.14957
-0.0858175
-0.0530026
-0.0379422
-0.0268284
-0.0217854
-0.0183471
-0.0160979
-0.0143693
-0.0133914
-0.0123672
0.00137612
0.000954529
0.000554493
-0.000171596
-0.00108889
-0.00249651
-0.00452534
-0.00710242
-0.0113721
-0.0177111
-0.0272598
-0.0411659
-0.0902272
-0.0621295
-0.0424772
-0.0329221
-0.0242666
-0.020129
-0.0173422
-0.0153712
-0.0137865
-0.0129173
-0.011865
0.00145128
0.00106569
0.000778529
0.000237173
-0.000374839
-0.00118275
-0.00229572
-0.00380147
-0.00501646
-0.00533107
-0.00448527
0.00354045
-0.0288306
-0.0328767
-0.0283768
-0.0251772
-0.0201467
-0.0174524
-0.0155944
-0.0141162
-0.0128278
-0.0121433
-0.0111507
0.0015889
0.00127354
0.00111378
0.000785055
0.000493982
0.000255633
-3.96631e-05
0.000584388
0.000418832
0.00417952
0.0101995
0.029999
0.085468
0.0111846
-0.0103045
-0.0159604
-0.0173598
-0.0156372
-0.0144142
-0.0134703
-0.0125546
-0.011622
-0.0111592
-0.0102886
0.00175059
0.00152074
0.00147677
0.00134005
0.00131429
0.00148353
0.00178916
0.00283727
0.00391187
0.00830881
0.0147865
0.0270832
0.0344346
0.0164569
-0.000506305
-0.00780015
-0.0106015
-0.0115349
-0.0115197
-0.0113
-0.0108978
-0.0103047
-0.0100614
-0.00934465
0.00190466
0.00176012
0.00180541
0.00181593
0.00197223
0.00237793
0.00298694
0.00434277
0.00560502
0.00912452
0.0145269
0.0190699
0.0182455
0.0104672
0.00281835
-0.00338209
-0.00715415
-0.00842979
-0.00907715
-0.00930842
-0.00930269
-0.00899645
-0.00893852
-0.00838562
0.00202939
0.00196022
0.00206396
0.00217339
0.00242862
0.00294546
0.00361103
0.00504073
0.00648036
0.00834032
0.0112786
0.0128781
0.0126263
0.00803205
0.0030386
-0.00119393
-0.0044978
-0.00610786
-0.00709169
-0.00759154
-0.0078564
-0.00776143
-0.00784684
-0.0074485
0.00211266
0.00210453
0.00223839
0.00240516
0.00269128
0.00322517
0.00381588
0.00498201
0.00626641
0.00746133
0.00893426
0.0109205
0.00635211
0.00561375
0.00172665
-0.000429737
-0.00271384
-0.00445219
-0.00552667
-0.0061692
-0.00659524
-0.00664708
-0.00682984
-0.00656511
0.00215021
0.00218829
0.00233
0.00252377
0.00279581
0.00329632
0.00375946
0.00470405
0.00534164
0.00713887
0.00427219
0.0092206
0.00784836
0.00117631
0.00253481
-0.000288703
-0.00188252
-0.00337908
-0.00435568
-0.00503284
-0.00552771
-0.00567221
-0.00591115
-0.00575638
0.00214325
0.00221451
0.0023489
0.00255141
0.00278442
0.00324076
0.00354874
0.00440065
0.00445014
0.0063555
0.00434477
0.00716725
0.00640763
0.0018474
0.00250376
-0.000302853
-0.00127167
-0.00263527
-0.00346811
-0.00413242
-0.00463598
-0.00483466
-0.00509838
-0.00503038
0.00209625
0.00219039
0.0023082
0.00251008
0.00269103
0.00310888
0.00326214
0.00405983
0.00378427
0.00539272
0.00387538
0.00510534
0.00458951
0.00178835
0.00211401
-0.000263781
-0.000831174
-0.00210199
-0.00278005
-0.00341684
-0.00389395
-0.00412273
-0.00438898
-0.0043875
0.00201518
0.00212458
0.00222079
0.00241817
0.00254242
0.00292866
0.00294872
0.00368229
0.00323843
0.00452769
0.00325203
0.00387868
0.00347307
0.00143858
0.00170548
-0.000242063
-0.00056073
-0.00171981
-0.00224723
-0.0028484
-0.00327804
-0.0035216
-0.00377544
-0.00382373
0.00190656
0.00202593
0.0020987
0.00229065
0.00235999
0.00271977
0.00263683
0.00330265
0.00278162
0.00382712
0.00276716
0.00306141
0.00273827
0.00117183
0.00137542
-0.000234487
-0.00039731
-0.00143789
-0.00183407
-0.00239521
-0.00276713
-0.00301563
-0.00324773
-0.00333237
0.00177684
0.00190265
0.00195239
0.00213928
0.00215966
0.00249681
0.00234004
0.00294061
0.00239724
0.00324764
0.00236422
0.0024385
0.0021756
0.000948355
0.00110076
-0.000231718
-0.000296069
-0.00122214
-0.00151074
-0.00203029
-0.00234242
-0.00258966
-0.002795
-0.0029054
0.00163197
0.0017619
0.00179046
0.00197303
0.00195228
0.00226942
0.00206344
0.0026026
0.00206888
0.00276092
0.00202265
0.00195988
0.00173436
0.00075214
0.00086921
-0.00023173
-0.000234205
-0.00105237
-0.00125496
-0.0017329
-0.0019877
-0.00222956
-0.00240624
-0.00253415
0.00147723
0.0016097
0.00161973
0.00179855
0.00174508
0.00204402
0.00180849
0.00229107
0.00178539
0.00235044
0.00172571
0.00158124
0.00138629
0.000591492
0.000678373
-0.000232216
-0.000197122
-0.000915474
-0.0010505
-0.00148713
-0.00168946
-0.00192309
-0.00207129
-0.00221027
0.00131714
0.00145097
0.00144542
0.0016208
0.00154263
0.00182458
0.0015747
0.00200614
0.00153847
0.00200592
0.00146968
0.00128344
0.00112544
0.000462048
0.000522463
-0.000232239
-0.000175264
-0.000801999
-0.000884597
-0.00128103
-0.00143685
-0.00166017
-0.00178128
-0.00192589
0.00115546
0.00128964
0.00127149
0.00144329
0.00134757
0.00161337
0.00136056
0.00174684
0.00132085
0.00171436
0.0012539
0.0010484
0.000914591
0.000339318
0.000393638
-0.000230139
-0.000159818
-0.000703435
-0.000746061
-0.00110377
-0.00121951
-0.00143081
-0.00152721
-0.00167325
0.000995312
0.00112871
0.00110068
0.00126834
0.00116135
0.00141144
0.00116402
0.00151131
0.0011268
0.00146264
0.00106643
0.000851032
0.000738535
0.000238056
0.0002899
-0.000226081
-0.000147395
-0.000616144
-0.000627987
-0.000948396
-0.00102998
-0.00122783
-0.00130203
-0.00144608
0.000839179
0.000970531
0.000935048
0.0010976
0.000984326
0.00121892
0.000982492
0.00129583
0.000952326
0.00124295
0.000901714
0.000683568
0.000590495
0.000154991
0.000206289
-0.00021927
-0.000135175
-0.000536588
-0.000524713
-0.000809061
-0.000861806
-0.00104482
-0.00109927
-0.00123836
0.000689033
0.000816677
0.000775748
0.000931787
0.000816278
0.00103579
0.000813184
0.00109584
0.000792384
0.0010477
0.000754532
0.000539628
0.000464796
8.60967e-05
0.000139006
-0.000208933
-0.000121156
-0.000461674
-0.000431457
-0.000681061
-0.000709596
-0.000876361
-0.000913477
-0.00104484
0.000546762
0.000668494
0.000623911
0.000771205
0.000657295
0.000860904
0.000654692
0.000909107
0.000643854
0.00087082
0.000620268
0.000413808
0.000355843
2.80408e-05
8.52595e-05
-0.000194591
-0.00010407
-0.000389036
-0.000344884
-0.000560625
-0.000569062
-0.000718106
-0.000740093
-0.000861007
0.000412906
0.000525496
0.000479088
0.000614709
0.000505465
0.000690058
0.000503813
0.000730346
0.000502409
0.000705272
0.000494231
0.000301756
0.000260571
-1.89557e-05
4.41418e-05
-0.000174721
-8.30721e-05
-0.000316355
-0.000262339
-0.000444278
-0.000436495
-0.000565751
-0.000574707
-0.000682104
0.000292494
0.000391746
0.000345635
0.000465604
0.0003645
0.000526306
0.000363829
0.000560675
0.000370262
0.000549979
0.000371629
0.000200094
0.000174804
-6.15675e-05
1.34432e-05
-0.00014873
-5.79194e-05
-0.000241968
-0.000182817
-0.000330494
-0.000310856
-0.000418065
-0.00041643
-0.000506994
0.000172498
0.000248574
0.000207705
0.000301001
0.000217948
0.000343606
0.000216719
0.000369426
0.000226632
0.000372563
0.000241275
0.000107392
0.000100012
-7.55308e-05
-1.88999e-06
-0.000108758
-2.97505e-05
-0.00015963
-0.000104304
-0.000210509
-0.000185206
-0.000263205
-0.000254156
-0.000320458
0.000111506
0.000164381
0.000132367
0.000198991
0.000137664
0.000228385
0.000138797
0.00025259
0.000154384
0.000272085
0.00010303
2.25028e-05
2.31482e-05
-0.000172914
-1.43172e-05
-6.58231e-05
3.55771e-06
-8.06449e-05
-3.59634e-05
-0.000106828
-8.37682e-05
-0.000135992
-0.000125462
-0.000169219
-0.0641356
-0.115482
-0.000962972
-0.106091
-0.181098
-0.128525
-0.0909212
-0.164869
-0.183559
-0.0471345
-0.103305
-0.15854
-0.00131847
-0.0344741
-0.0945204
0.0287126
0.0965231
0.0917698
0.0144187
-0.0266244
0.0306115
0.0981132
0.0140303
0.0468565
-0.026757
-0.0563837
0.0156363
-0.0868869
0.0500895
-0.106116
-0.062982
-0.0251447
-0.0510047
-0.0961614
-0.064164
-0.0925736
-0.13402
-0.107847
-0.225471
-0.186298
-0.166607
-0.098675
-0.074414
-0.0511321
-0.084335
-0.0971539
-0.104803
-0.142034
-0.149592
-0.253192
-0.257827
-0.155414
-0.100753
-0.102439
-0.0330855
-0.0450008
-0.0800723
-0.0703721
-0.08482
-0.111787
-0.163312
-0.204129
-0.0981852
-0.0753028
-0.096222
-0.0716057
-0.112292
-0.0359983
-0.0405392
-0.0667819
0.016865
-0.0202075
0.0296159
0.0344827
0.0873906
0.0330696
0.0233685
0.0166445
-0.102931
-0.0519748
-0.032113
-0.0575889
-0.110713
0.0561816
-0.0475038
-0.182457
-0.0989904
-0.0701481
-0.0943062
-0.178443
-0.14898
-0.136713
-0.0972447
-0.141303
-0.154827
-0.115537
-0.140601
-0.25542
-0.227391
-0.166052
-0.226426
-0.244918
-0.181635
-0.224604
-0.158657
-0.115313
-0.139103
-0.102221
-0.144725
-0.11749
-0.154446
-0.146771
-0.206425
-0.251064
-0.179605
-0.240163
-0.207591
-0.246327
-0.242088
-0.182591
-0.0833722
-0.0548293
-0.115103
-0.0874238
-0.115251
-0.159867
-0.128043
-0.157315
-0.114822
-0.204978
-0.160107
-0.136189
-0.0171785
0.00809414
-0.0506821
-0.0212273
-0.0258813
-0.0660165
-0.109394
-0.070875
-0.0680528
0.0363308
0.0543255
0.0108684
0.0337739
0.0464514
0.0207481
-0.0196041
-0.0415064
0.0499829
-0.0362166
0.120299
-0.00976236
-0.00294037
-0.0395332
-0.0232598
-0.0215133
-0.0497464
0.00565566
-0.0171926
0.00910053
-0.0116948
-0.032238
0.107289
-0.0197123
0.0413668
-0.0804873
-0.0528337
-0.0536665
-0.0809095
-0.0646924
-0.0761811
-0.0603304
0.00115463
0.0142371
-0.0577123
-0.0401949
-0.0206528
-0.0434532
-0.0594876
-0.065286
-0.0270642
0.0153316
0.0254231
-0.0217069
0.0119436
-0.00503546
0.160432
0.105626
0.0704352
0.0663335
0.104455
0.161186
-0.0545171
-0.0314683
-0.0518283
0.108742
-0.0340311
-0.0114479
-0.213915
-0.210704
-0.259565
-0.25976
-0.183482
-0.185958
-0.0883489
-0.0731033
-0.0897704
0.0323797
0.00883737
-0.017812
0.00445493
-0.00340158
-0.0948252
-0.0853302
-0.119187
-0.0906718
-0.121329
-0.0926091
-0.0851586
-0.0253137
-0.00681887
-0.0335045
-0.0894269
-0.149691
-0.145026
-0.149929
-0.15003
-0.128193
-0.129285
-0.248026
-0.247948
-0.236373
-0.204348
-0.193898
-0.214207
-0.207101
-0.23712
-0.204171
-0.170419
-0.151192
-0.189973
-0.175846
-0.20751
-0.133639
-0.131297
-0.154626
-0.153436
-0.234835
-0.236404
-0.225671
-0.20372
-0.212689
-0.186921
-0.199934
-0.223857
-0.248956
-0.218577
-0.21584
-0.214958
-0.218414
-0.248829
-0.0778317
-0.0719268
-0.0781817
-0.0929748
-0.0593557
-0.0756527
-0.0675742
-0.103922
-0.0947541
-0.0994986
-0.13543
-0.138438
-0.184239
-0.167793
-0.181978
-0.14821
-0.162936
-0.180718
-0.0177353
-0.00064454
-0.037927
-0.0398318
-0.0567132
-0.0198765
-0.0374043
-0.0337826
-0.0377279
-0.0202654
-0.0430494
-0.0443594
-0.021101
-0.069939
-0.0469622
-0.0490686
-0.0463298
0.047806
0.0611986
0.0793503
0.0272455
0.0426615
0.0937487
0.0550445
0.0349743
0.220165
0.0078404
0.0214683
0.001554
0.0166165
0.0284903
0.0110841
0.056839
0.0427401
0.0466064
0.156272
0.00608538
-0.0176574
-0.017489
0.0148522
0.0162282
0.0809623
0.063918
0.0710322
0.0172885
0.0189729
0.0656083
0.0599207
0.0903567
0.240468
0.170354
0.122034
0.139652
0.179575
0.244705
-0.12477
-0.103871
-0.114179
-0.221074
-0.205532
-0.198413
-0.148121
-0.12604
-0.123006
-0.127056
-0.127774
-0.149192
-0.256938
-0.25846
-0.172688
-0.195874
0.0413265
0.0326086
0.00197837
0.00745467
0.0277483
0.053372
0.0462132
0.0582641
0.00871891
-0.0132519
0.100385
-0.169549
-0.192222
-0.203602
-0.133767
-0.10898
-0.0761273
-0.143862
-0.117881
-0.144677
-0.145317
-0.123431
-0.127639
-0.11567
-0.12297
-0.143629
-0.146116
-0.159236
-0.152247
-0.167615
-0.166417
-0.152738
-0.150694
-0.147327
-0.135737
-0.253469
-0.235808
-0.231961
-0.215379
-0.213793
-0.233462
-0.229166
-0.242254
-0.120279
-0.114411
-0.129714
-0.140566
-0.149693
-0.156084
-0.155589
-0.169049
-0.167931
-0.158636
-0.164276
-0.150045
-0.217933
-0.245861
-0.234736
-0.225561
-0.229618
-0.196675
-0.203794
-0.215734
-0.247883
-0.236526
-0.233388
-0.23191
-0.234311
-0.246061
-0.124024
-0.126307
-0.118029
-0.168503
-0.158324
-0.150866
-0.138305
-0.128359
-0.143222
-0.108535
-0.123231
-0.132375
-0.00547591
-0.0024579
-0.0175166
0.012259
0.00173728
-0.00192089
0.0528714
0.0594854
0.0206669
0.0241151
0.0151176
0.0378061
0.0498374
0.0524251
0.044424
0.0254337
0.166583
0.0500283
0.00776591
-0.00439496
-0.00319195
0.00871246
-0.00607114
-0.00763832
0.0460923
0.0430027
0.147934
0.0159504
0.0271027
-0.0713952
-0.0656208
0.00537643
0.0136231
0.00777827
0.0113332
0.00343432
0.0167273
0.0129937
0.00940708
-0.0488747
-0.045254
-0.0302508
-0.0335752
0.0190506
0.0192533
0.0176814
0.019897
0.0237983
-0.0913742
-0.071378
-0.0324586
-0.111929
-0.0823897
-0.101786
-0.219605
-0.201829
-0.258217
-0.259915
-0.175413
-0.193221
-0.0858476
-0.0828315
-0.0920702
-0.0710619
-0.0799212
-0.0815331
-0.1057
-0.114219
-0.0949679
-0.102544
0.0222374
0.0289238
0.0385878
0.0116063
0.0246313
0.0191719
0.0253398
0.0118753
-0.108996
-0.0918289
-0.103544
-0.0712727
-0.0873621
-0.105262
-0.119551
-0.126394
-0.107072
-0.117017
-0.0629241
-0.0457823
-0.0658751
-0.0645089
-0.0720952
-0.167629
-0.188972
-0.166048
-0.178082
-0.144521
-0.121077
-0.174302
-0.150877
-0.12614
-0.145422
-0.163185
-0.162942
-0.160184
-0.146514
-0.161228
-0.165959
-0.15595
-0.160736
-0.17038
-0.171361
-0.166571
-0.168443
-0.15281
-0.165399
-0.163503
-0.139859
-0.145314
-0.128622
-0.137393
-0.15201
-0.154563
-0.146752
-0.151076
-0.134917
-0.146151
-0.141752
-0.25294
-0.244118
-0.222918
-0.21662
-0.233773
-0.241302
-0.22887
-0.223544
-0.141713
-0.148246
-0.138449
-0.15205
-0.145194
-0.163128
-0.154092
-0.134358
-0.124406
-0.142905
-0.136397
-0.168524
-0.168914
-0.154836
-0.173099
-0.173224
-0.171626
-0.17334
-0.16882
-0.163874
-0.172382
-0.169592
-0.151671
-0.165289
-0.167925
-0.225995
-0.242785
-0.217602
-0.222957
-0.232123
-0.217759
-0.207286
-0.214797
-0.237589
-0.235972
-0.248701
-0.247219
-0.236105
-0.236442
-0.0830599
-0.0828849
-0.0795838
-0.0740192
-0.0889018
-0.0816938
-0.0888704
-0.0636759
-0.0620341
-0.0576618
-0.071697
-0.0644325
-0.0663002
-0.11531
-0.108183
-0.121817
-0.117773
-0.0997475
-0.097412
-0.0912677
-0.105746
-0.0987935
-0.101887
-0.137896
-0.129443
-0.127231
-0.133852
-0.141619
-0.11706
-0.1304
-0.146831
-0.147764
-0.155462
-0.141577
-0.00970561
-0.00844647
-0.0164154
0.000975511
-0.00655916
-0.0071367
0.00272769
-0.0293519
-0.0198012
-0.0265813
-0.059723
-0.0600214
-0.0680957
-0.0471532
-0.0572405
-0.0566781
-0.0583596
-0.0610957
0.0615631
0.0716306
0.0258895
0.0340566
0.0709683
0.0555581
0.00688039
-0.0135922
0.00840905
0.000926473
0.0185948
0.0349001
0.320761
0.243643
0.210114
0.239304
0.268211
0.328771
0.0404854
0.0852714
0.0557899
-0.0874759
-0.101258
-0.121162
-0.223714
-0.234134
-0.23571
-0.255564
-0.258046
-0.099599
-0.0906655
-0.100348
-0.213284
-0.2105
-0.201584
-0.115369
-0.106434
-0.10351
-0.085149
-0.0656872
-0.0834918
-0.122549
-0.114883
-0.105219
-0.114393
-0.138365
-0.120383
-0.12031
-0.132792
-0.124817
-0.254286
-0.238105
-0.240463
-0.229381
-0.244542
-0.243456
-0.243814
-0.209977
-0.205631
-0.218743
-0.126201
-0.111073
-0.103243
-0.123707
-0.130906
-0.123523
-0.208959
-0.217861
-0.21521
-0.249103
-0.238344
-0.2392
-0.240798
-0.246961
-0.246412
-0.24558
-0.242449
-0.243892
-0.243987
-0.112117
-0.116086
-0.121616
-0.196992
-0.189645
-0.194139
-0.0930023
-0.0884294
-0.103428
0.0586467
0.0604067
0.0404792
0.0277813
0.0235637
0.0511795
0.0556425
0.0334743
0.0489711
0.0340966
-0.025304
-0.0197755
-0.0745276
-0.05981
-0.0617888
-0.062898
-0.0550921
-0.0557485
-0.0577255
-0.0409616
-0.0429429
-0.0415895
-0.0440522
-0.0412327
-0.0404979
0.0245262
0.0203378
0.0203462
0.0976178
0.154797
0.12626
-0.0679765
-0.0693367
-0.0587594
-0.04335
-0.126484
-0.117738
-0.0197086
0.0191929
0.0272131
-0.218917
-0.227401
-0.216706
-0.207692
-0.209729
-0.212638
-0.261059
-0.260197
-0.183139
-0.179994
-0.180858
-0.188234
-0.195215
-0.18836
-0.0907617
-0.0933086
-0.0710604
-0.0739712
-0.0759615
-0.0957899
-0.0987045
-0.100459
-0.103127
-0.094306
-0.0988412
-0.114982
-0.111002
-0.114409
-0.0829497
-0.0885271
-0.0954828
-0.132598
-0.135068
-0.117146
-0.122271
-0.124705
-0.0159033
-0.0398579
-0.0547056
-0.0447797
-0.0482599
-0.0455155
-0.082521
-0.144114
-0.136021
-0.140258
-0.135058
-0.121653
-0.137668
-0.139341
-0.248969
-0.247671
-0.189536
-0.183435
-0.195113
-0.216566
-0.200815
-0.195404
-0.125898
-0.133042
-0.139505
-0.232241
-0.238036
-0.248551
-0.248574
-0.249119
-0.249183
-0.248327
-0.248349
-0.0795001
-0.0806205
-0.0789895
-0.0766406
-0.0919871
-0.0894821
-0.0918735
-0.106771
-0.113711
-0.108358
-0.114236
-0.112395
-0.125677
-0.123294
-0.0965158
-0.0967487
-0.0943489
-0.110912
-0.109222
-0.17851
-0.184208
-0.194025
-0.171706
-0.167374
-0.172922
-0.0457862
-0.043506
-0.0392712
-0.0534143
-0.0483939
-0.0485383
-0.0344152
-0.036284
-0.0439733
-0.0240742
-0.0303247
-0.0309552
-0.0655238
-0.0655293
-0.0680689
-0.0516181
-0.048063
-0.0680985
0.0676012
0.0680384
0.0763278
0.0253972
0.0351277
0.0339069
0.0264455
0.0475806
0.0371357
0.0378635
0.0862907
0.0694857
0.0418014
0.0504959
0.0455021
0.118119
0.208213
0.0735008
0.0154882
0.0158413
0.0727999
0.0888206
0.105574
0.0177815
0.0185939
0.0186495
0.0193171
0.018901
0.0181914
0.103486
0.0870578
0.0741155
0.168051
0.241156
0.21252
-0.232692
-0.233156
-0.222327
-0.210007
-0.20205
-0.195604
-0.214453
-0.210378
-0.256815
-0.257949
-0.176201
-0.178136
-0.168933
-0.172931
-0.198689
-0.207177
-0.204063
0.0379064
0.0402066
0.0436807
0.0333961
0.0371853
0.0348872
-0.195589
-0.184971
-0.181557
-0.192375
-0.188635
-0.199447
-0.253497
-0.230989
-0.241077
-0.244791
-0.242899
-0.242508
-0.241482
-0.230039
-0.221621
-0.211575
-0.248498
-0.235697
-0.237557
-0.236932
-0.247531
-0.246918
-0.247301
-0.245273
-0.245107
-0.245966
-0.162987
-0.158139
-0.16212
-0.152851
-0.155331
-0.159946
0.0612456
0.061663
0.0379011
0.0440206
0.0419571
0.0422538
0.0372224
0.0547712
0.0521668
0.0498439
0.051969
0.054206
0.0463934
0.0488493
0.0472638
0.0171728
0.00268078
0.00130808
0.0301536
0.138368
0.119013
0.155099
0.0583769
0.0766825
0.0993296
-3.92563e-05
0.000507412
-0.00290738
0.00756516
0.00412863
0.00344797
-0.0120593
-0.0113994
-0.0162919
-0.0061418
-0.00906485
-0.00895825
0.0595635
0.0670507
0.0385737
-0.0171593
-0.0322366
0.00941845
0.00127773
-0.0735061
-0.0645634
-0.0635792
-0.065749
0.00856603
0.0115128
0.00294608
0.00545499
0.0063685
-0.0523184
-0.0540596
-0.0522581
-0.0417422
-0.0398092
-0.0440226
-0.0425163
-0.0451548
-0.0499665
-0.0292259
-0.026296
-0.0273701
-0.0264212
-0.0305786
-0.0198393
-0.0231024
-0.0371897
-0.0382096
-0.0345648
0.02093
0.0203385
0.0198119
0.0215271
0.0209595
0.0221867
-0.085301
-0.0726335
-0.0788385
-0.114269
-0.109518
-0.0963416
-0.228195
-0.217883
-0.229242
-0.231524
-0.218356
-0.217159
-0.222043
-0.219941
-0.259931
-0.260833
-0.185843
-0.189378
-0.180585
-0.183229
-0.178087
-0.177056
-0.174298
-0.201212
-0.198097
-0.190699
-0.196329
-0.0827258
-0.0878945
-0.0785982
-0.0768593
-0.079669
-0.108738
-0.112331
-0.10906
-0.117046
-0.115124
-0.111586
-0.0975768
-0.0965199
-0.0937763
-0.105456
-0.0996471
-0.0998319
-0.103352
0.0154228
0.014273
0.0106002
0.0203632
0.0158135
-0.104239
-0.104322
-0.10786
-0.112057
-0.101846
-0.0946711
-0.099868
-0.129002
-0.130747
-0.131612
-0.129456
-0.124093
-0.123412
-0.126911
-0.0670024
-0.0592422
-0.055964
-0.0446775
-0.0802116
-0.0820733
-0.0743992
-0.172502
-0.1685
-0.163033
-0.178603
-0.174177
-0.180685
-0.190264
-0.181965
-0.1375
-0.146526
-0.154869
-0.127567
-0.13813
-0.129988
-0.169055
-0.160121
-0.165767
-0.159746
-0.162848
-0.165163
-0.156843
-0.162107
-0.161083
-0.166073
-0.164441
-0.170773
-0.171009
-0.167273
-0.167885
-0.142211
-0.145184
-0.142668
-0.148258
-0.146918
-0.143909
-0.130972
-0.135416
-0.133653
-0.142869
-0.137215
-0.133487
-0.140971
-0.14462
-0.152941
-0.156277
-0.15531
-0.158248
-0.157376
-0.153852
-0.148064
-0.150717
-0.149782
-0.154566
-0.153509
-0.149853
-0.250209
-0.245605
-0.14978
-0.151102
-0.152358
-0.147286
-0.14953
-0.147513
-0.1611
-0.154395
-0.156697
-0.155988
-0.131678
-0.135833
-0.137232
-0.131394
-0.134054
-0.128141
-0.140681
-0.142797
-0.145011
-0.138516
-0.140391
-0.138448
-0.172705
-0.172457
-0.171741
-0.173369
-0.167159
-0.165671
-0.171388
-0.169845
-0.229017
-0.240255
-0.249276
-0.248557
-0.248074
-0.246957
-0.247756
-0.248451
-0.0810484
-0.0803495
-0.080121
-0.082093
-0.090941
-0.0864066
-0.0828614
-0.118484
-0.116323
-0.112927
-0.115251
-0.11758
-0.121299
-0.12405
-0.125694
-0.120059
-0.12229
-0.120013
-0.121456
-0.120485
-0.100616
-0.0991577
-0.098188
-0.107675
-0.101412
-0.135083
-0.135975
-0.138601
-0.130121
-0.133144
-0.132387
-0.136795
-0.138788
-0.120459
-0.124952
-0.120038
-0.126621
-0.151891
-0.146835
-0.149977
-0.140911
-0.143591
-0.148022
-0.0107697
-0.0118853
-0.00910102
-0.0177209
-0.0147913
-0.0135724
-0.00171773
-0.000967571
0.000963483
-0.00631995
-0.00349563
-0.00453655
-0.000706745
-0.0335581
-0.031619
-0.0377929
-0.0355089
-0.0219524
-0.0227792
-0.0205987
-0.0292452
-0.0254052
-0.0243605
-0.0604393
-0.0631936
-0.0626199
-0.0552328
-0.0640826
0.0624917
0.0638536
0.0283108
0.0250755
0.0227116
0.0327279
0.0290402
0.0309775
0.0291035
0.032915
0.0622685
0.057107
0.0277176
0.0374398
0.0298452
0.0412718
0.0467249
0.0344483
0.0460232
0.0365897
0.0297976
0.0314424
0.0190938
0.0186629
0.0145423
0.0211784
0.0223692
0.0258905
0.0459193
0.0398627
0.056223
0.0889063
0.0522806
0.0886317
0.049588
0.039499
0.0371085
0.0123792
0.0170873
0.00680345
-0.000777619
0.00393244
0.00420907
0.00540821
0.0187374
0.00798417
0.0248764
0.0458358
0.054459
0.0876699
0.0763016
0.139782
0.100202
0.0811393
0.0355777
0.0190617
0.0247514
-0.0162737
-0.0162958
-0.00720983
-0.012444
-0.0227586
-0.00103015
-0.00877354
-0.00982084
0.00155051
0.00735479
0.010009
0.024948
-0.0496652
-0.0450741
-0.0185304
-0.055786
-0.0401116
-0.0276804
-0.0266807
-0.043069
-0.0292203
-0.0416397
-0.0508772
-0.042592
-0.0803064
-0.0901671
-0.0819622
-0.145251
-0.112529
-0.0899595
-0.0859019
-0.060777
-0.0517303
-0.0304147
-0.0440091
-0.0450427
-0.0540438
-0.0645115
-0.0640929
-0.107313
-0.118654
-0.118591
-0.170016
-0.134367
-0.13098
-0.0892868
-0.0670619
-0.0660456
-0.0235279
-0.0295607
-0.0413584
-0.043569
-0.0500338
-0.0555081
-0.0811754
-0.0873073
-0.0930468
-0.129042
-0.108488
-0.121045
-0.0692413
-0.057685
-0.0640243
-0.0114037
-0.0100704
-0.0247272
-0.035156
-0.0365666
-0.0432985
-0.0662477
-0.0613295
-0.0796618
-0.0399943
-0.0395241
-0.0491319
-8.49619e-05
0.00522008
-0.00558836
-0.00894398
-0.0187063
-0.0294833
-0.0147679
-0.0212031
-0.0299281
0.00677276
0.0101299
0.00735722
0.0148107
0.0256136
0.0248751
0.0317926
0.0424701
0.0470685
0.0602779
0.0614938
0.0638433
0.0172573
0.00225842
-0.00684187
-0.00396716
-0.00832576
-0.0139959
0.00903043
0.0119739
0.0116266
0.0153831
0.0192134
0.0239274
0.0207829
0.0223903
0.0361913
0.0215992
0.0167664
0.0215487
0.0131604
0.00675432
0.00339298
0.00201528
-0.00218117
-0.00466805
0.0128014
0.0139409
0.0162331
0.0144525
0.016972
0.0192467
0.0152713
0.0115602
0.0154905
0.00906499
0.00670588
0.0073751
-0.0725609
-0.0617824
-0.0544507
-0.100584
-0.113156
-0.136645
0.00680569
-0.0121278
-0.0175965
-0.117496
-0.115356
-0.10401
-0.177305
-0.19738
-0.203725
-0.143411
-0.162015
-0.139945
-0.0985371
-0.103649
-0.095185
-0.170562
-0.189534
-0.179476
-0.2048
-0.206659
-0.184646
-0.0498252
-0.0559851
-0.053037
-0.111278
-0.120303
-0.106378
-0.175441
-0.162592
-0.151567
-0.0426151
-0.0421155
-0.0334653
-0.0980545
-0.0883685
-0.0855378
0.0448836
0.033814
0.0197235
0.0998255
0.0893745
0.08291
0.0856066
0.0809268
0.0985082
-0.0247474
-0.0161058
-0.0189587
0.062165
0.0888136
0.0514463
0.375503
0.327866
0.334428
0.0839843
0.102009
0.139399
0.374437
0.390724
0.0254798
0.0370338
0.0242088
0.0724024
0.0839781
0.0447723
-0.0326908
-0.0215413
-0.0178953
-0.0275454
-0.0245448
-0.0387186
0.00517467
-0.00943814
-0.0168375
-0.0702589
-0.0767065
-0.105518
0.0614806
0.0387907
0.0310346
-0.0826081
-0.0541812
-0.0646418
-0.05046
-0.0538482
-0.0696988
-0.0224923
-0.0376979
-0.0377151
-0.0617062
-0.0572746
-0.0470489
-0.0873511
-0.0689142
-0.0740601
-0.0510978
-0.0612373
-0.0830341
-0.103226
-0.0972104
-0.0868485
-0.131156
-0.124113
-0.127031
-0.100738
-0.10552
-0.111981
-0.193325
-0.197065
-0.190475
-0.130235
-0.116682
-0.152179
-0.0925501
-0.10656
-0.113848
-0.0841625
-0.0966093
-0.0844749
-0.0599528
-0.0630449
-0.0532341
-0.0937925
-0.0746278
-0.0704528
-0.0766636
-0.076799
-0.0959807
-0.115423
-0.117574
-0.106453
-0.144535
-0.136809
-0.134832
-0.141287
-0.141523
-0.14989
-0.125867
-0.131894
-0.167882
-0.103391
-0.11888
-0.115274
-0.1183
-0.119976
-0.104087
-0.0370039
-0.0437767
-0.0385675
-0.0608853
-0.0499118
-0.041579
-0.0646784
-0.0577149
-0.0660837
-0.0751149
-0.0812888
-0.0758423
-0.0963046
-0.0869164
-0.0773562
-0.107528
-0.104146
-0.108551
-0.166748
-0.166621
-0.163523
-0.0861126
-0.102431
-0.121559
-0.0832049
-0.0929186
-0.0830468
-0.109448
-0.101864
-0.0903269
-0.0771584
-0.0795208
-0.071089
-0.113299
-0.11052
-0.109496
-0.041537
-0.0525983
-0.0585472
-0.0491428
-0.051474
-0.0412137
-0.0725954
-0.0618698
-0.0579761
0.0121616
0.0153535
0.0204119
-0.0190792
-0.0131413
-0.0145559
0.0341155
0.0400427
0.0313888
0.0509279
0.0433183
0.0386049
0.0686848
0.0615741
0.0615899
0.0366165
0.0403533
0.050056
0.0235885
0.0351636
0.029391
0.0381464
0.0362116
0.0229967
-0.0975335
-0.0901869
-0.0957157
-0.0375238
-0.0599598
-0.0780629
-0.0438213
-0.0496072
-0.0359727
-0.0681438
-0.0823935
-0.0675304
0.0408291
0.0447702
0.0638646
-0.0545429
-0.0418241
-0.0355969
-0.178458
-0.185552
-0.189663
-0.10382
-0.112429
-0.107545
-0.075561
-0.0940889
-0.0863471
-0.108841
-0.10146
-0.0881195
-0.160913
-0.153527
-0.163591
-0.148019
-0.13998
-0.140837
-0.12961
-0.132095
-0.139359
-0.101149
-0.11228
-0.108213
-0.143385
-0.146852
-0.145186
-0.15906
-0.158569
-0.153754
-0.14383
-0.142357
-0.13856
-0.184677
-0.194918
-0.17227
-0.228584
-0.221671
-0.218336
-0.192225
-0.17688
-0.169452
-0.217195
-0.214459
-0.222553
-0.149967
-0.167131
-0.181039
-0.118956
-0.114602
-0.111151
-0.132475
-0.130002
-0.136043
-0.0990484
-0.108286
-0.112249
-0.143687
-0.146837
-0.148666
-0.119871
-0.121764
-0.119392
-0.155379
-0.15966
-0.159285
-0.150578
-0.152153
-0.147623
-0.200539
-0.192878
-0.175538
-0.202916
-0.206027
-0.2105
-0.184306
-0.206087
-0.202764
-0.0793298
-0.0811217
-0.0874611
-0.0569738
-0.0606329
-0.0587937
-0.112143
-0.117456
-0.118082
-0.0896853
-0.0955626
-0.09128
-0.117995
-0.11871
-0.116006
-0.160996
-0.158869
-0.15674
-0.139508
-0.125272
-0.119742
-0.151466
-0.145826
-0.150819
-0.112831
-0.118269
-0.120569
-0.202501
-0.197216
-0.199713
-0.156122
-0.161714
-0.168762
-0.144056
-0.157946
-0.144303
-0.0131605
-0.0126097
-0.016859
0.00938332
0.00617684
0.00487751
-0.0463867
-0.0476614
-0.0524564
-0.0210848
-0.0253616
-0.0253488
-0.0316045
-0.031222
-0.0251105
-0.0682345
-0.0615134
-0.0604918
-0.103897
-0.102017
-0.107454
-0.068498
-0.0832856
-0.0878724
-0.0767405
-0.0788671
-0.0695427
0.0452971
0.0567117
0.0449311
0.0652654
0.0593912
0.0467093
0.0143316
0.015607
0.0124336
0.0366644
0.0531804
0.0585449
-0.0210837
-0.00546292
-0.00622959
-0.00445172
-0.00457675