/*--------------------------------*- C++ -*----------------------------------*\
| =========                 |                                                 |
| \\      /  F ield         | OpenFOAM: The Open Source CFD Toolbox           |
|  \\    /   O peration     | Version:  5.x                                   |
|   \\  /    A nd           | Web:      www.OpenFOAM.org                      |
|    \\/     M anipulation  |                                                 |
\*---------------------------------------------------------------------------*/
FoamFile
{
    version     2.0;
    format      ascii;
    class       surfaceScalarField;
    location    "200";
    object      phi;
}
// * * * * * * * * * * * * * * * * * * * * * * * * * * * * * * * * * * * * * //

dimensions      [0 3 -1 0 0 0 0];

internalField   nonuniform List<scalar> 
13181
(
8.44668e-06
0.00915681
8.01255e-06
0.00916743
6.74133e-06
0.00916777
5.36809e-06
0.00916787
3.23047e-06
0.00916914
-4.42378e-06
0.00917415
-9.25898e-06
0.00917149
-1.01119e-05
0.00916755
-8.96743e-06
0.00916551
-4.11669e-06
0.0091618
4.98313e-06
0.0091576
1.66256e-05
0.00915501
2.74982e-05
0.00915578
3.42934e-05
0.0091599
3.58376e-05
0.00916511
3.30208e-05
0.00916947
2.74391e-05
0.00917228
2.04507e-05
0.00917364
9.15963e-06
0.00917779
-5.93332e-07
0.00917675
-1.31701e-05
0.00917908
-1.83468e-05
0.00917168
-1.94269e-05
0.00916808
0.00914542
1.18896e-05
0.00914175
3.44971e-05
0.00914483
3.45685e-05
0.0091677
3.37548e-05
0.00916869
2.74124e-05
0.00917548
7.88418e-06
0.00919368
-1.7569e-05
0.00919694
-2.58496e-05
0.00917583
-2.49971e-05
0.00916465
-1.55432e-05
0.00457607
0.00457627
2.87437e-06
0.00456954
0.00456964
2.73688e-05
0.00456506
0.00456546
5.02978e-05
0.00456595
0.0045669
6.44626e-05
0.00457229
0.00457345
6.73997e-05
0.00458051
0.00458166
5.38541e-05
0.00918301
3.24407e-05
0.0091937
1.09066e-05
0.00919517
-1.19077e-05
0.00920061
-1.99409e-05
0.00918479
-2.06138e-05
0.00917975
-2.17686e-05
0.00917283
8.44191e-08
0.00914623
0.00914136
-4.57015e-06
0.00914115
-1.77235e-06
0.00914203
1.77802e-05
0.00914815
1.54854e-05
0.00917098
1.61515e-05
0.00917481
1.7018e-05
0.00919282
-1.62939e-05
0.00923025
-3.84235e-05
0.00919796
-2.02594e-05
0.00917164
-2.51523e-05
0.00457288
-1.70671e-05
0.00456425
-7.66175e-06
1.29592e-05
5.65063e-07
0.00455682
7.67013e-06
-1.67473e-05
0.00455726
2.54332e-05
-3.29931e-05
0.00456649
3.87864e-05
-4.20085e-05
0.00458009
4.24314e-05
4.29067e-05
0.0046092
-3.29072e-05
-4.41834e-05
0.004608
5.51147e-06
0.00923109
-6.83527e-06
0.00920752
-5.37817e-06
0.00919915
-6.84679e-06
0.00918625
-8.51248e-06
0.00918142
8.67613e-06
0.00915564
9.2696e-06
0.00914563
0.00914395
-1.06964e-05
0.00914474
-1.39637e-05
0.0091453
-1.47781e-05
0.00914896
-1.45836e-06
0.00915766
-6.4858e-06
0.00917984
-6.73868e-06
0.00919307
-1.17061e-05
0.00923522
-3.26269e-05
0.00921888
-3.64095e-05
0.00461615
-3.9596e-05
0.00459887
0.0045679
-3.28319e-05
-0.00457148
0.0045501
-2.04027e-05
-0.00455776
2.80591e-05
8.81511e-06
0.00453048
6.29632e-06
-0.00454559
-2.35453e-05
0.00452839
4.02951e-05
-0.00454514
-5.30056e-05
0.00456065
5.25155e-05
-0.00456016
-3.61755e-05
0.00460943
1.56286e-05
-0.00458888
-2.17821e-06
0.00461179
-4.1837e-07
3.41866e-05
0.00461149
-1.42214e-05
-2.68263e-06
0.00460232
2.79447e-05
0.00921376
1.97056e-05
0.00920739
8.83985e-06
0.00919712
2.00437e-05
0.00917021
1.89414e-05
0.00915675
1.32229e-05
0.00915135
0.00914825
-1.27632e-05
0.00914871
-1.77795e-05
0.00915031
-2.36281e-05
0.00915481
-2.60247e-05
0.00916006
-2.00828e-05
0.0091739
-2.41487e-05
0.00919713
8.40425e-06
0.00920266
1.83369e-05
0.00459137
6.09701e-06
0.00461149
0.00464374
-9.24611e-06
0.00457605
-3.61001e-05
-0.00456902
2.90737e-05
0.00454824
-4.42184e-05
-0.00454371
3.96937e-05
2.83728e-05
-1.67153e-06
-0.0045104
0.00224155
0.00224214
-3.15982e-05
6.46326e-05
-0.00450546
0.00223623
0.00223619
-7.62101e-05
4.14584e-05
-0.0045775
0.00230003
0.00231223
-5.30426e-05
0.00460805
5.52126e-05
-0.00461022
-4.75344e-05
0.00461852
4.82002e-05
-0.00461918
-4.65537e-05
0.00461234
4.57023e-05
5.48424e-05
0.0092413
-4.42149e-05
-3.81673e-05
3.48838e-05
0.00922735
3.64994e-05
0.00919551
3.06825e-05
0.00917603
2.19835e-05
0.00916544
1.55729e-05
0.00915776
0.00915318
-1.40304e-05
0.00915267
-1.93375e-05
0.00915562
-2.61543e-05
0.00916163
-3.5556e-05
0.00916946
-4.13112e-05
0.00917965
-4.4822e-05
0.00920065
-2.81395e-05
0.00922267
-3.66873e-05
0.0046006
-3.73747e-05
0.00460636
-7.10153e-07
-0.00463809
3.24363e-05
0.00458362
1.744e-05
-0.0045858
-1.52564e-05
-0.00228357
1.15235e-06
0.00228895
-6.52758e-06
-0.00222891
1.65331e-05
0.00223088
-1.8502e-05
-0.00221264
-1.91526e-05
0.00219934
3.24535e-05
-0.00228874
-2.75333e-05
0.00225993
5.6335e-05
-4.20262e-05
0.00010651
-0.00461402
-4.61026e-05
0.00229359
0.00230204
-0.000103264
0.00463343
8.94949e-05
-0.00461966
-7.39204e-05
-0.00462246
0.00463575
6.06245e-05
7.04169e-05
0.00927767
-5.57887e-05
-5.10013e-05
5.66106e-05
0.00924115
4.47772e-05
0.00920734
3.21294e-05
0.00918868
2.33038e-05
0.00917427
1.64798e-05
0.00916459
0.00915811
-1.48223e-05
0.00915672
-2.03473e-05
0.00916114
-2.68548e-05
0.00916813
-3.56258e-05
0.00917823
-4.81475e-05
0.00919218
-6.00848e-05
0.00921258
-3.92328e-05
0.00924103
-3.92119e-05
-0.00460976
0.00461968
-4.91516e-05
-0.00460829
0.0046236
-7.69387e-05
6.16255e-05
-0.00459489
0.00461996
9.67e-05
-5.75787e-05
-6.41932e-05
-0.00227736
5.92074e-05
0.00227862
-6.04745e-05
-0.00111188
2.15931e-05
0.00110799
-1.77079e-05
-1.04301e-05
-0.00105483
0.00104907
1.61896e-05
-4.69696e-05
-0.00227672
9.29659e-05
-3.34075e-05
0.00111908
0.00114506
-0.000106524
-0.0023074
0.0023193
9.46216e-05
-0.000143928
-0.00465689
0.00468569
0.000115135
-9.16458e-05
-0.00465118
0.0046703
7.25312e-05
8.16269e-05
0.00930966
-5.66385e-05
-5.69696e-05
6.13848e-05
0.00926139
4.2515e-05
0.00922621
2.97728e-05
0.00920142
2.10151e-05
0.00918303
1.46907e-05
0.00917091
0.00916137
-1.4076e-05
0.00915997
-1.92288e-05
0.0091663
-2.50836e-05
0.00917399
-3.38507e-05
0.009187
-4.53968e-05
0.00920372
-6.195e-05
0.00922914
-3.78613e-05
0.00925967
-4.27315e-05
-0.00463016
0.00464112
-4.88184e-05
-0.00464322
0.0046623
-8.23282e-05
6.32462e-05
-0.00465458
0.00469247
0.000108811
-7.19551e-05
-7.47399e-05
-0.00231511
0.000100417
0.00233569
-0.000120994
-0.00112818
0.000106472
0.0011421
-0.000120391
-0.000145714
-0.00115577
0.00116959
0.000131897
-0.000150126
-0.00236479
0.00238661
0.000128298
-0.000169329
-0.00472369
0.00476125
0.000131771
-0.000103664
-0.00469327
0.00471379
8.31395e-05
7.87783e-05
0.00935727
-6.02501e-05
-6.61416e-05
4.80867e-05
0.00929209
3.30854e-05
0.00924121
2.28833e-05
0.00921162
1.65397e-05
0.00918937
1.26569e-05
0.00917479
0.00916387
-1.28936e-05
0.00916264
-1.61659e-05
0.00916957
-2.06191e-05
0.00917844
-2.6076e-05
0.00919246
-3.34458e-05
0.00921109
-4.3587e-05
0.00923928
-3.26896e-05
0.00927571
-2.69395e-05
-0.00464404
0.00465281
-4.14654e-05
-0.00468465
0.00469927
-7.12188e-05
5.66007e-05
-0.00472906
0.00475526
8.99448e-05
-6.12464e-05
-5.48993e-05
-0.00239427
8.53434e-05
0.00240928
-0.000100351
-0.00123097
8.84009e-05
0.00123953
-9.69658e-05
-0.000125075
-0.00127112
0.00128206
0.000114131
-0.000118158
-0.00244819
0.00246635
9.99995e-05
-0.000121875
-0.00479676
0.00482402
9.46206e-05
-7.35899e-05
-0.0047323
0.00474654
5.9355e-05
5.98806e-05
0.0093793
-3.55105e-05
-4.64039e-05
3.32137e-05
0.00931875
1.82147e-05
0.00925621
1.29989e-05
0.00921684
9.72026e-06
0.00919265
7.55317e-06
0.00917696
0.00916366
-1.05438e-05
0.00916411
-1.31725e-05
0.0091722
-1.53296e-05
0.0091806
-1.83027e-05
0.00919543
-2.03501e-05
0.00921314
-2.26593e-05
0.00924159
-1.55811e-05
0.00927758
-8.94043e-06
-0.00466058
0.00466833
-2.33303e-05
-0.00470826
0.00471135
-2.94783e-05
2.63841e-05
-0.00477003
0.0047722
3.1861e-05
-2.10972e-05
-1.29333e-05
-0.00243524
2.62777e-05
0.00243693
-2.79684e-05
-0.00126916
1.87506e-05
0.00126926
-1.88528e-05
-2.95455e-05
-0.00132424
0.00132547
2.83083e-05
-3.37682e-05
-0.00249931
0.00250297
3.01064e-05
-3.38756e-05
-0.00484046
0.00484457
2.9757e-05
-2.63892e-05
-0.00475611
0.00476002
2.24726e-05
2.51251e-05
0.00937933
-7.32722e-06
-1.78294e-05
2.49139e-05
0.00931896
6.64876e-06
0.00927447
4.31623e-07
0.00922305
1.85363e-06
0.00919123
2.33659e-06
0.00917648
0.00916156
-8.41114e-06
0.00916498
-9.42097e-06
0.00917321
-9.86717e-06
0.00918105
-9.00099e-06
0.00919456
-8.08056e-06
0.00921222
-2.52168e-06
0.00923603
7.29683e-07
0.00927003
4.29155e-06
-0.00467082
0.00467132
2.24823e-07
-0.00470879
0.0047011
1.27664e-05
-5.07305e-06
-0.00476279
0.00474476
-2.51326e-05
1.81825e-05
2.49757e-05
-0.00242371
-2.99597e-05
0.00241463
3.90431e-05
-0.00124605
-3.98442e-05
0.0012407
4.51984e-05
5.95193e-05
-0.00130165
0.00129476
-5.26313e-05
5.10542e-05
-0.00249107
0.00248144
-4.14214e-05
5.25375e-05
-0.00483704
0.00482032
-3.58217e-05
2.22967e-05
-0.00475728
0.00474951
-1.45206e-05
-9.86228e-06
0.00936113
1.78303e-05
1.0232e-05
2.53395e-06
0.00930657
9.05526e-06
0.00926795
-1.198e-05
0.00924409
-7.46907e-06
0.00918672
-3.37167e-06
0.00917238
0.00915769
-5.88079e-06
0.00916497
-5.06967e-06
0.0091724
-3.8053e-06
0.00917978
-9.92704e-07
0.00919175
4.86879e-06
0.00920636
1.57112e-05
0.00922519
1.22296e-05
0.00925821
1.53105e-05
-0.0046658
0.00465979
1.82327e-05
-0.00469014
0.00467739
4.02571e-05
-2.7505e-05
-0.00472082
0.00469501
-5.85297e-05
4.12189e-05
4.31135e-05
-0.00238011
-6.01816e-05
0.00236758
7.27095e-05
-0.00119853
-6.40031e-05
0.00119223
7.03103e-05
9.91376e-05
-0.00123811
0.00122992
-9.09442e-05
9.88649e-05
-0.00244009
0.00242462
-8.33924e-05
0.000107513
-0.00479474
0.00476398
-7.67554e-05
5.63188e-05
-0.00473728
0.00472271
-4.17495e-05
-3.36373e-05
0.00932928
3.45521e-05
3.094e-05
-1.45308e-05
0.00928746
-2.1098e-06
0.00925553
3.17166e-06
0.00923881
-1.56574e-05
0.00920555
-9.42562e-06
0.00916615
0.00915196
-3.76198e-06
0.0091644
-2.10041e-06
0.00917074
1.47348e-07
0.00917753
4.70204e-06
0.0091872
1.14706e-05
0.00919959
2.35422e-05
0.00921311
1.98249e-05
0.00924138
2.05406e-05
-0.00465223
0.00464488
2.71818e-05
-0.004664
0.00465155
4.84225e-05
-3.59729e-05
-0.00466959
0.00464756
-6.48669e-05
4.43481e-05
4.25488e-05
-0.00233216
-6.11422e-05
0.00232227
7.10302e-05
-0.0011523
-5.76994e-05
0.00114815
6.18568e-05
9.51555e-05
-0.00117136
0.00116351
-8.7305e-05
0.000100942
-0.00237886
0.00236546
-8.75473e-05
0.000114902
-0.00473009
0.0047021
-8.69076e-05
6.64168e-05
-0.00470761
0.00469299
-5.17938e-05
-4.31841e-05
0.00929622
3.80247e-05
3.82231e-05
-2.21678e-05
0.00926645
-7.8688e-06
0.00924123
-6.351e-06
0.00923729
-1.89141e-05
0.00921811
-1.48074e-05
0.00916204
0.0091449
-1.71707e-06
0.00916312
-1.99139e-07
0.00916922
2.82332e-06
0.00917451
7.00479e-06
0.00918301
1.3488e-05
0.00919311
2.3034e-05
0.00920357
3.55102e-05
0.00922891
3.22348e-05
0.00926046
2.31697e-05
-0.00463847
-0.00464188
-0.00464123
0.0046344
3.90628e-05
-0.00463042
0.00463788
3.30596e-05
-4.05166e-05
-0.00230871
-4.06208e-06
0.00233445
-2.16717e-05
-0.00115626
3.78209e-05
0.00113807
-1.96317e-05
-0.000332752
7.13458e-06
0.000342037
-1.64195e-05
3.42513e-05
-0.0011303
0.0022729
-7.03005e-05
2.92129e-05
-0.00113577
-0.00233667
6.98927e-05
0.00233247
-6.56861e-05
8.56118e-05
-0.00468071
0.00466457
-6.94747e-05
5.59026e-05
-0.00468218
0.0046789
-5.26158e-05
-4.028e-05
0.00927154
3.02907e-05
3.46632e-05
-2.21682e-05
0.00924833
-9.27016e-06
0.00922834
-2.19171e-05
0.00924994
4.22923e-06
0.00919196
-1.6692e-05
0.00918297
0.00913959
-1.28161e-06
0.0091624
1.83754e-07
0.00916775
2.43423e-06
0.00917226
5.48315e-06
0.00917997
1.06551e-05
0.00918793
1.55109e-05
0.00919871
8.96257e-06
0.00923545
-9.68243e-06
0.00931069
-3.15869e-05
-0.00464435
0.00466261
-2.79456e-05
-0.00464858
0.00462884
-6.8731e-06
2.66162e-05
-0.00230118
-1.42098e-05
0.00229739
1.79982e-05
-0.00227853
-8.07437e-06
0.00228482
1.78553e-06
-0.00088766
2.88944e-05
0.00184344
-5.11769e-05
-0.000933501
-0.0022995
6.076e-05
0.00229358
-5.48417e-05
-0.00463789
6.64812e-05
0.00464912
-0.000120645
4.29332e-05
0.000112068
-0.00465601
0.00464469
-0.000100748
-0.000122054
0.00927038
6.0826e-05
9.22711e-05
-0.00469493
-0.0046065
-9.58469e-05
0.00924533
-7.63841e-05
0.00922887
-5.87896e-05
0.00921074
-4.93438e-06
0.00919608
4.1174e-06
0.00918291
1.1062e-05
0.00917602
0.00916511
-8.83857e-07
0.00916193
-2.55762e-07
0.00916712
8.9461e-07
0.00917111
2.93389e-06
0.00917793
4.87657e-06
0.00918599
2.84978e-06
0.00920074
-2.16642e-05
0.00925997
-3.14283e-05
0.00931357
6.88339e-06
-0.00465938
0.00463066
-2.70631e-06
-0.00461622
0.00461572
1.28317e-05
-1.2331e-05
-0.00460183
0.00461005
5.78093e-07
-8.79836e-06
-0.00229744
6.4856e-06
0.00229732
-6.36159e-06
-0.00188939
1.99148e-05
0.00190411
-3.46335e-05
-0.00229331
3.5931e-05
0.00460347
-8.26726e-05
-0.00229842
3.50081e-05
-0.00464069
9.19077e-05
0.0046348
-8.60132e-05
-0.00463782
8.14562e-05
0.00463198
-7.56186e-05
-8.96179e-05
0.00923451
5.8448e-05
6.70425e-05
-6.12668e-05
0.00921698
-5.1705e-05
0.00921931
-4.65843e-05
0.00920562
-4.1133e-05
0.00919063
-3.45857e-05
0.00917637
-2.52059e-05
0.00916664
0.00915676
-1.41467e-06
0.00916233
-7.75069e-07
0.00916648
-3.62465e-07
0.0091707
6.83046e-08
0.0091775
-1.93556e-07
0.00918625
-1.13481e-05
0.00921189
-2.77659e-05
0.00927639
2.67303e-06
0.00928313
3.17347e-06
0.00925256
-0.00462961
-0.00462385
3.96791e-07
-0.00461828
0.0046203
1.15113e-06
-0.00461707
0.0046231
-8.50336e-06
2.47141e-06
-0.0045544
1.61136e-05
0.00455558
-1.7295e-05
-0.00395982
3.35994e-05
0.00398502
-5.88045e-05
-0.00461167
6.03145e-05
0.00461384
-6.24857e-05
-0.00462983
6.17023e-05
0.00462724
-5.91092e-05
-0.00462806
5.82163e-05
0.00462499
-5.51416e-05
-8.84893e-05
0.00922363
4.8522e-05
5.08465e-05
-7.28059e-05
0.0092013
-5.67427e-05
0.00920325
-3.99982e-05
0.00918888
-2.51761e-05
0.00917581
-1.91429e-05
0.00917033
-1.7622e-05
0.00916512
0.00915783
-1.74693e-06
0.00916314
-2.15072e-06
0.00916689
-2.98002e-06
0.00917153
-3.56612e-06
0.00917808
-7.76676e-06
0.00919045
-2.989e-05
0.00923402
-2.90154e-05
0.00927551
-7.03201e-06
0.00926115
-1.23341e-05
0.00925786
-7.93699e-06
0.00925575
-0.00462374
-0.00462594
-1.04712e-05
-0.00462845
0.00463503
-1.45149e-05
-0.00455234
2.13547e-05
0.00453834
-7.3599e-06
-0.00400923
2.99362e-05
0.00403936
-6.00644e-05
-0.00461612
4.37585e-05
0.00461865
-4.62822e-05
-8.72404e-05
0.00924465
-0.00462637
-0.00462307
4.47883e-05
4.72482e-05
-8.37433e-05
0.00923884
-0.00462221
-0.00462012
-7.62858e-05
0.00921618
-6.95885e-05
0.0091946
-5.55075e-05
0.00918916
-4.32565e-05
0.00917663
-3.31429e-05
0.00916569
-2.48915e-05
0.00916208
-1.31875e-05
0.00915342
0.00916455
-2.27171e-06
0.00916435
-3.69856e-06
0.00916832
-4.68574e-06
0.00917251
-6.10928e-06
0.0091795
-9.37979e-06
0.00919373
-2.61937e-05
0.00925083
-1.79978e-05
0.00926732
-9.62626e-06
0.00925278
-1.78998e-05
0.00926613
-2.82848e-05
0.00926614
-3.37731e-05
0.00929685
-0.00464516
-0.0046462
-5.42094e-05
0.00874066
-0.00448724
-0.00423298
-7.72918e-05
0.00851189
-0.00410058
-0.00438823
-7.38389e-05
0.00925499
-0.00462392
-0.00463452
-7.29747e-05
0.00924378
-7.17236e-05
0.00923759
-6.63829e-05
0.00921083
-6.1167e-05
0.00918939
-5.11344e-05
0.00917913
-4.25018e-05
0.00916799
-3.64583e-05
0.00915965
-2.64684e-05
0.00915209
-1.81898e-05
0.00914514
0.009167
-2.90191e-06
0.00916593
-4.2889e-06
0.0091697
-6.32647e-06
0.00917455
-8.39899e-06
0.00918158
-1.19391e-05
0.00919727
-2.14678e-05
0.00926036
-1.69843e-05
0.00926283
-1.42e-05
0.00925
-2.01937e-05
0.00927213
-2.90368e-05
0.00927498
-3.42276e-05
0.00930204
-4.63429e-05
0.00875278
-5.97889e-05
0.00852534
-6.02818e-05
0.00925548
-6.26165e-05
0.00924612
-6.19538e-05
0.00923692
-5.84299e-05
0.00920731
-5.42288e-05
0.00918519
-4.70974e-05
0.009172
-4.01719e-05
0.00916107
-3.40167e-05
0.0091535
-2.6655e-05
0.00914473
-1.98073e-05
0.00913829
0.00916819
-3.5751e-06
0.00916781
-5.85039e-06
0.00917198
-8.32093e-06
0.00917702
-1.08759e-05
0.00918413
-1.34289e-05
0.00919982
-1.68919e-05
0.00926382
-1.66329e-05
0.00926257
-1.70767e-05
0.00925044
-2.20384e-05
0.00927709
-3.0052e-05
0.00928299
-3.34706e-05
0.00930546
-4.17066e-05
0.00876101
-5.09782e-05
0.00853461
-5.08581e-05
0.00925536
-5.42914e-05
0.00924955
-5.39005e-05
0.00923653
-5.16275e-05
0.00920504
-4.87178e-05
0.00918228
-4.35449e-05
0.00916683
-3.7973e-05
0.0091555
-3.25006e-05
0.00914802
-2.61433e-05
0.00913837
-2.01687e-05
0.00913232
0.0091691
-4.24907e-06
0.00916995
-6.83182e-06
0.00917456
-9.12372e-06
0.00917931
-1.2024e-05
0.00918703
-1.49013e-05
0.0092027
-1.61318e-05
0.00926505
-1.79666e-05
0.00926441
-2.21283e-05
0.0092546
-2.31634e-05
0.00927812
-3.00675e-05
0.0092899
-3.30193e-05
0.00930841
-3.82064e-05
0.0087662
-4.43126e-05
0.00854071
-4.44057e-05
0.00925546
-4.74869e-05
0.00925263
-4.73254e-05
0.00923637
-4.60223e-05
0.00920373
-4.41134e-05
0.00918037
-3.95563e-05
0.00916227
-3.60429e-05
0.00915198
-3.05536e-05
0.00914253
-2.55636e-05
0.00913338
-2.0871e-05
0.00912762
0.00916917
-5.39944e-06
0.00917278
-7.21188e-06
0.00917637
-1.02354e-05
0.00918234
-1.28694e-05
0.00918967
-1.59262e-05
0.00920575
-1.73072e-05
0.00926644
-1.92837e-05
0.00926639
-2.32832e-05
0.0092586
-2.36728e-05
0.00927851
-2.96064e-05
0.00929583
-3.21631e-05
0.00931097
-3.53914e-05
0.00876943
-3.9334e-05
0.00854466
-3.92852e-05
0.00925541
-4.1999e-05
0.00925535
-4.19497e-05
0.00923632
-4.12159e-05
0.009203
-3.93467e-05
0.0091785
-3.66362e-05
0.00915956
-3.34496e-05
0.0091488
-2.87578e-05
0.00913784
-2.4502e-05
0.00912913
-1.99996e-05
0.00912312
0.00916983
-5.50559e-06
0.00917525
-8.49089e-06
0.00917936
-1.1163e-05
0.00918501
-1.39515e-05
0.00919245
-1.70854e-05
0.00920889
-1.80236e-05
0.00926737
-2.00839e-05
0.00926845
-2.38446e-05
0.00926236
-2.63039e-05
0.00928097
-2.90722e-05
0.0092986
-3.11172e-05
0.00931301
-3.30738e-05
0.00877138
-3.55622e-05
0.00854715
-3.52119e-05
0.00925506
-3.75386e-05
0.00925767
-3.75788e-05
0.00923636
-3.71928e-05
0.00920261
-3.58226e-05
0.00917713
-3.32524e-05
0.00915699
-3.06966e-05
0.00914624
-2.76561e-05
0.0091348
-2.40048e-05
0.00912548
-2.05947e-05
0.00911971
0.0091695
-6.06595e-06
0.00917781
-8.66446e-06
0.00918196
-1.19279e-05
0.00918827
-1.48085e-05
0.00919533
-1.74494e-05
0.00921153
-1.83867e-05
0.00926831
-2.05638e-05
0.00927062
-2.40531e-05
0.00926585
-2.72757e-05
0.0092842
-2.83582e-05
0.00929968
-3.00226e-05
0.00931468
-3.09132e-05
0.00877227
-3.26742e-05
0.00854891
-3.1643e-05
0.00925403
-3.38297e-05
0.00925986
-3.3938e-05
0.00923647
-3.38945e-05
0.00920257
-3.29356e-05
0.00917617
-3.13443e-05
0.0091554
-2.92769e-05
0.00914417
-2.57701e-05
0.0091313
-2.26176e-05
0.00912232
-1.97066e-05
0.0091168
0.00916962
-6.57589e-06
0.00918043
-9.24573e-06
0.00918463
-1.20477e-05
0.00919108
-1.49747e-05
0.00919826
-1.80877e-05
0.00921464
-1.89876e-05
0.00926921
-2.07289e-05
0.00927236
-2.39944e-05
0.00926912
-2.69583e-05
0.00928716
-3.34492e-05
0.00930617
-3.31484e-05
0.00931438
-3.27976e-05
0.00877192
-3.30119e-05
0.00854912
-3.16269e-05
0.00925264
-3.30709e-05
0.0092613
-3.31723e-05
0.00923657
-3.34704e-05
0.00920287
-3.30746e-05
0.00917577
-3.28455e-05
0.00915517
-2.86618e-05
0.00913999
-2.55903e-05
0.00912822
-2.2344e-05
0.00911908
-1.93539e-05
0.00911381
0.00916959
-7.03521e-06
0.00918307
-9.74191e-06
0.00918733
-1.20492e-05
0.00919338
-1.54935e-05
0.00920171
-1.8047e-05
0.00921719
-1.93907e-05
0.00927055
-2.07645e-05
0.00927374
-2.38145e-05
0.00927217
-2.90579e-05
0.0092924
-3.4756e-05
0.00931187
-3.56565e-05
0.00931528
-3.57201e-05
0.00877199
-3.65005e-05
0.0085499
-3.52409e-05
0.00925138
-3.66115e-05
0.00926268
-3.67021e-05
0.00923666
-3.6821e-05
0.00920299
-3.56814e-05
0.00917463
-3.4726e-05
0.00915421
-3.32968e-05
0.00913856
-3.10514e-05
0.00912598
-2.91138e-05
0.00911714
-2.64653e-05
0.00911116
0.00916193
-7.44297e-06
0.00918571
-1.01617e-05
0.00919005
-1.29556e-05
0.00919618
-1.53873e-05
0.00920414
-1.78744e-05
0.00921968
-1.91484e-05
0.00927183
-2.07311e-05
0.00927532
-2.60089e-05
0.00927745
-3.06111e-05
0.009297
-3.42123e-05
0.00931547
-3.47285e-05
0.00931579
-3.46067e-05
0.00877186
-3.50451e-05
0.00855034
-3.33167e-05
0.00924965
-3.45009e-05
0.00926386
-3.46411e-05
0.0092368
-3.48046e-05
0.00920315
-3.42336e-05
0.00917406
-3.29881e-05
0.00915297
-3.17734e-05
0.00913735
-3.02959e-05
0.0091245
-2.81148e-05
0.00911496
-2.62394e-05
0.00910929
0.00915401
-7.79972e-06
0.00918832
-1.00094e-05
0.00919226
-1.27716e-05
0.00919894
-1.51845e-05
0.00920655
-1.81045e-05
0.0092226
-1.93106e-05
0.00927303
-2.29873e-05
0.009279
-2.81545e-05
0.00928261
-3.04027e-05
0.00929925
-3.36485e-05
0.00931872
-3.40213e-05
0.00931616
-3.37082e-05
0.00877155
-3.3875e-05
0.00855051
-3.18653e-05
0.00924764
-3.28606e-05
0.00926485
-3.29936e-05
0.00923693
-3.31728e-05
0.00920333
-3.26412e-05
0.00917353
-3.20445e-05
0.00915237
-3.04948e-05
0.0091358
-2.87358e-05
0.00912274
-2.77453e-05
0.00911397
-2.55972e-05
0.00910714
0.00914628
-7.60131e-06
0.00919039
-1.0798e-05
0.00919546
-1.30172e-05
0.00920116
-1.59088e-05
0.00920944
-1.77591e-05
0.00922445
-2.1924e-05
0.0092772
-2.59543e-05
0.00928303
-2.80699e-05
0.00928473
-3.02179e-05
0.0093014
-3.32816e-05
0.00932178
-3.33405e-05
0.00931622
-3.30121e-05
0.00877122
-3.29527e-05
0.00855045
-3.06264e-05
0.00924532
-3.15694e-05
0.0092658
-3.16393e-05
0.009237
-3.18694e-05
0.00920356
-3.13513e-05
0.00917301
-3.08689e-05
0.00915189
-2.94422e-05
0.00913437
-2.83484e-05
0.00912165
-2.65152e-05
0.00911214
-2.50405e-05
0.00910566
0.00913871
-8.35218e-06
0.00919292
-1.05187e-05
0.00919762
-1.26955e-05
0.00920334
-1.55626e-05
0.00921231
-2.0887e-05
0.00922978
-2.75169e-05
0.00928383
-2.5927e-05
0.00928144
-2.79417e-05
0.00928674
-2.99766e-05
0.00930344
-3.29673e-05
0.00932477
-3.28894e-05
0.00931615
-3.25077e-05
0.00877084
-3.23923e-05
0.00855033
-2.97696e-05
0.00924269
-3.048e-05
0.00926651
-3.06356e-05
0.00923716
-3.08569e-05
0.00920378
-3.03317e-05
0.00917249
-2.94326e-05
0.00915099
-2.90925e-05
0.00913403
-2.76311e-05
0.00912019
-2.64117e-05
0.00911092
-2.50742e-05
0.00910433
0.00913075
-8.03685e-06
0.0091949
-1.06816e-05
0.00920027
-1.33174e-05
0.00920597
-1.51606e-05
0.00921415
-3.05198e-05
0.00924514
-2.70315e-05
0.00928034
-2.59415e-05
0.00928035
-2.78931e-05
0.00928869
-2.98971e-05
0.00930544
-3.27639e-05
0.00932764
-3.25268e-05
0.00931591
-3.21863e-05
0.0087705
-3.19793e-05
0.00855012
-2.91189e-05
0.00923983
-2.97655e-05
0.00926715
-2.98434e-05
0.00923724
-3.00469e-05
0.00920399
-2.95496e-05
0.00917199
-2.92076e-05
0.00915065
-2.79381e-05
0.00913276
-2.75727e-05
0.00911982
-2.59406e-05
0.00910928
-2.47094e-05
0.00910309
0.00912288
-8.65725e-06
0.00919733
-1.02779e-05
0.00920189
-1.28724e-05
0.00920857
-2.37817e-05
0.00922506
-3.10371e-05
0.00925239
-2.7538e-05
0.00927684
-2.5898e-05
0.00927871
-2.78299e-05
0.00929063
-2.9828e-05
0.00930744
-3.26849e-05
0.0093305
-3.22682e-05
0.00931549
-3.2052e-05
0.00877028
-3.19027e-05
0.00854997
-2.87083e-05
0.00923664
-2.92441e-05
0.00926769
-2.93353e-05
0.00923733
-2.95177e-05
0.00920417
-2.89785e-05
0.00917145
-2.86838e-05
0.00915035
-2.79553e-05
0.00913203
-2.66749e-05
0.00911854
-2.56009e-05
0.00910821
-2.39556e-05
0.00910145
0.00911556
-8.19172e-06
0.00919919
-1.08147e-05
0.00920451
-1.28657e-05
0.00921062
-2.63162e-05
0.00923851
-2.99989e-05
0.00925607
-2.70262e-05
0.00927387
-2.58982e-05
0.00927758
-2.78103e-05
0.00929254
-2.98148e-05
0.00930944
-3.27126e-05
0.0093334
-3.2281e-05
0.00931506
-3.21051e-05
0.00877011
-3.19979e-05
0.00854987
-2.85445e-05
0.00923319
-2.89623e-05
0.00926811
-2.89825e-05
0.00923735
-2.9146e-05
0.00920433
-2.8591e-05
0.0091709
-2.83419e-05
0.00915011
-2.7634e-05
0.00913132
-2.6922e-05
0.00911783
-2.53892e-05
0.00910668
-2.43061e-05
0.00910037
0.00910777
-8.11631e-06
0.00920099
-1.02744e-05
0.00920667
-1.22652e-05
0.00921261
-2.27722e-05
0.00924902
-2.8386e-05
0.00926169
-2.75348e-05
0.00927302
-2.58079e-05
0.00927585
-2.79037e-05
0.00929464
-2.9886e-05
0.00931142
-3.29469e-05
0.00933646
-3.2516e-05
0.00931463
-3.24182e-05
0.00877001
-3.24016e-05
0.00854985
-2.86235e-05
0.00922941
-2.89365e-05
0.00926842
-2.87813e-05
0.00923719
-2.90278e-05
0.00920458
-2.88639e-05
0.00917073
-2.81902e-05
0.00914943
-2.74674e-05
0.0091306
-2.63392e-05
0.0091167
-2.58078e-05
0.00910615
-2.42985e-05
0.00909886
0.00909999
-8.45641e-06
-1.06723e-05
-1.21091e-05
-1.76743e-05
-2.11922e-05
-2.75438e-05
-2.57865e-05
-2.79892e-05
-2.98151e-05
-3.29674e-05
-3.29774e-05
-3.27985e-05
-3.26815e-05
-2.91552e-05
-2.91339e-05
-2.87533e-05
-2.89935e-05
-2.82543e-05
-2.81555e-05
-2.74093e-05
-2.68586e-05
-2.53358e-05
-2.48901e-05
9.59361e-05
-0.000105543
-0.00122136
0.00127728
0.000134162
-0.00126351
-7.28203e-05
-7.51037e-05
-0.00114552
-0.000161082
0.00116089
2.79582e-05
-2.89855e-05
-0.00126813
0.00133402
4.24352e-05
-0.0013318
-2.1012e-05
-2.36375e-05
0.00128933
-6.75422e-05
-6.95821e-05
-3.43447e-05
3.94586e-05
-0.00125117
0.00130592
-5.08603e-05
-0.00131279
2.98255e-05
2.79092e-05
0.00133482
-1.38795e-05
-1.64729e-05
-6.2678e-05
6.89107e-05
-0.00120477
0.00123748
-9.72999e-05
-0.0012468
0.000106616
0.00129849
3.43394e-05
3.26053e-05
-5.97084e-05
6.46679e-05
-0.00115726
0.00116398
-9.79071e-05
-0.00117283
0.000106756
0.000108988
0.00122763
3.99646e-05
-5.51491e-05
-0.00114108
-7.73093e-06
0.000401865
-1.81233e-06
-0.000205249
-0.000187073
-2.14859e-05
-0.00014356
-0.000175437
0.00112007
-5.24601e-05
-0.0011195
5.18826e-05
0.000102505
0.00115663
0.000100454
-0.000111149
-0.00111749
-0.00104895
2.02741e-06
0.0010365
0.0001348
-0.00113248
-0.000147838
-0.0011097
-5.25409e-05
0.00111528
9.5797e-05
-0.000114061
-0.00237601
0.00122565
-0.00121709
8.7381e-05
-0.00113964
9.56489e-05
0.00115046
0.000307339
0.000125037
-0.000606809
0.000308557
-6.63113e-05
-6.7813e-05
0.000112265
-0.000534567
-0.00012177
0.000544072
0.00012188
-0.00125884
0.0024622
0.000133579
-0.00243767
-0.000158117
-0.00235835
-0.000176072
0.00238429
4.23893e-05
-4.74824e-05
-0.00243015
0.00126146
-0.00126038
2.68785e-05
8.05185e-05
0.00123353
0.00125848
6.40726e-05
-6.92751e-05
-0.00125327
0.000645464
-2.19207e-05
-0.000643768
4.09977e-05
-2.07732e-05
-0.000631476
-6.46853e-05
6.21357e-05
0.000634026
0.000323726
1.01218e-05
-0.000332217
-1.63117e-06
-0.000327755
5.17133e-05
-5.66601e-05
0.000332702
3.99903e-05
-0.00132179
0.00252192
5.71548e-05
-0.00251407
-6.50055e-05
-0.000139918
0.00248396
-1.77532e-05
2.50114e-05
-0.00243097
0.00124239
-0.00124691
-2.98236e-05
1.82912e-05
0.00126192
0.00126372
-7.05592e-06
9.66945e-06
-0.00126633
0.000656611
9.69257e-06
-0.000658564
-1.18172e-05
4.07795e-06
-0.000659598
-6.38558e-06
1.07172e-05
0.0006591
-3.83289e-06
0.000296023
3.43513e-07
-0.000295841
-5.25684e-07
-0.00030043
6.47288e-07
0.000300644
-8.61395e-07
-4.45102e-05
-0.001308
0.00250766
-3.17806e-05
-0.00251738
4.15008e-05
-3.69375e-05
0.00252509
-5.56682e-05
6.79273e-05
-0.00239237
0.00119877
-0.0012046
-5.68502e-05
-3.50872e-05
0.00123763
0.00122318
-5.27903e-05
5.88424e-05
-0.00122923
4.15201e-05
0.00061381
-0.000616029
-3.93008e-05
-0.000632591
1.69066e-05
-3.1013e-05
0.000629224
1.74738e-05
0.000314212
-3.88622e-05
-0.000322162
4.68126e-05
-0.000303187
-8.10351e-06
1.46149e-06
0.000309829
-8.82926e-05
-0.00124712
0.00244481
-8.97132e-05
-0.00246307
0.00010798
6.35277e-05
0.00249519
0.000550661
-7.26155e-05
-0.000552621
3.76248e-05
3.69512e-05
-0.000287434
-3.51801e-05
3.57618e-05
0.000286852
-8.98621e-05
-0.00117941
0.00237258
-0.000104022
-0.0023897
0.000121137
0.000117169
0.0024265
0.000506994
-5.56772e-05
-0.000509321
5.80043e-05
-0.000529198
-6.78633e-05
7.07276e-05
0.000526334
-1.47323e-05
7.46756e-06
-0.00227127
-1.4802e-05
0.000956154
-0.000945556
4.20416e-06
3.7015e-07
0.00040863
-3.02801e-05
-0.000872181
-6.65968e-05
0.0022753
-0.00228555
7.68415e-05
3.05193e-05
0.00112381
-6.61384e-05
-0.000630033
6.46946e-05
-9.01282e-05
-0.000600094
8.45316e-05
0.000605691
-0.00118561
0.000111736
0.00119839
-0.000124514
-0.000601371
0.000607822
-4.86709e-05
-4.79083e-05
0.000632939
-0.000634224
-3.27145e-05
-3.21385e-05
8.72189e-05
-0.000538563
0.000545905
-9.45609e-05
9.23065e-05
-9.81117e-05
-0.000595566
4.60682e-05
-0.000329927
-4.38961e-05
6.23148e-05
-6.41071e-05
0.000309131
-0.00121565
0.000153654
-0.000170583
0.00123258
-0.000612591
-6.1562e-05
0.000620238
0.00011623
0.000329674
4.62356e-05
-0.000329841
-5.23218e-06
-0.000660144
1.3906e-05
-8.1285e-06
-2.21768e-05
3.96774e-05
0.000651082
-2.31183e-05
5.5129e-05
0.00126278
-5.94301e-05
-0.000321561
0.000324369
-2.49842e-05
0.000335541
-5.50251e-06
-0.00033527
0.000318487
0.000318702
-3.32064e-05
-3.57291e-05
-2.24337e-05
-0.000321048
-1.01597e-06
-0.000302348
2.93418e-06
1.63816e-05
-6.03291e-06
0.000313377
-0.00131651
8.02256e-05
0.00132302
-4.21329e-05
-4.46052e-05
-0.000327777
0.000321193
2.29659e-05
0.000329665
1.90321e-06
-0.000332584
0.000333298
4.80895e-05
1.77725e-05
-0.000335428
9.23567e-05
-0.00130891
-4.87428e-05
-5.12129e-05
1.71899e-05
-0.00063574
-2.92855e-05
1.52447e-05
8.8193e-06
-1.62957e-05
0.000650234
1.38526e-05
-1.45936e-05
0.00125999
1.83185e-05
-0.000334327
0.000330087
1.30588e-05
0.000313636
1.88249e-05
-0.000315271
0.000334143
-4.98773e-06
9.33459e-06
-0.000333969
-1.4278e-05
-0.00029511
6.20143e-06
-3.83254e-07
0.000295886
5.20464e-07
-0.00132878
-1.98874e-05
0.00132432
1.32457e-05
1.10994e-05
-0.000324822
0.000326106
-1.66644e-06
0.000308521
-1.91682e-05
-0.000303631
0.000328077
2.23508e-06
-1.17648e-06
-0.000323302
-8.196e-06
-0.00133209
6.87095e-06
4.63191e-06
-0.000600872
-4.21286e-05
0.00060006
2.06912e-05
2.22487e-05
0.000584494
-4.68424e-05
4.86033e-05
-0.000586255
0.000310986
1.95567e-05
-0.000602011
2.1406e-05
2.1253e-05
-3.64737e-05
-0.000288979
3.80193e-05
-4.2455e-05
5.40555e-05
0.000302612
-0.00127356
-8.53119e-05
0.00126467
4.7431e-05
4.6772e-05
-0.000313319
0.000306766
-3.59027e-05
0.000586244
3.598e-05
-6.81701e-05
-0.000590528
0.000314374
-1.39567e-05
-3.4245e-05
-0.000317936
-8.02034e-05
-0.00128221
4.50026e-05
4.38496e-05
-0.000565963
-4.65984e-05
0.000563649
4.89119e-05
0.000549043
-4.17376e-05
4.36387e-05
-0.000550944
-4.73862e-05
0.000583381
4.84992e-05
-4.70136e-05
4.95647e-05
-0.000568514
-6.84028e-05