/*--------------------------------*- C++ -*----------------------------------*\
| =========                 |                                                 |
| \\      /  F ield         | OpenFOAM: The Open Source CFD Toolbox           |
|  \\    /   O peration     | Version:  5.x                                   |
|   \\  /    A nd           | Web:      www.OpenFOAM.org                      |
|    \\/     M anipulation  |                                                 |
\*---------------------------------------------------------------------------*/
FoamFile
{
    version     2.0;
    format      ascii;
    class       volScalarField;
    location    "200";
    object      pSat;
}
// * * * * * * * * * * * * * * * * * * * * * * * * * * * * * * * * * * * * * //

dimensions      [0 2 -2 0 0 0 0];

internalField   nonuniform List<scalar> 
6584
(
697.948
697.948
697.948
697.948
697.948
697.948
697.948
697.948
697.948
697.948
697.948
697.948
697.948
697.948
697.948
697.948
697.948
697.948
697.948
697.948
697.948
697.948
697.948
697.948
697.948
697.948
697.948
697.948
697.948
697.948
697.948
697.948
697.948
697.948
697.948
697.948
697.948
697.948
697.948
697.948
697.948
697.948
697.948
697.948
697.948
697.948
697.948
697.948
697.948
697.948
697.948
697.948
697.948
697.948
697.948
697.948
697.948
697.948
697.948
697.948
697.948
697.948
697.948
697.948
697.948
697.948
697.948
697.948
697.948
697.948
697.948
697.948
697.948
697.948
697.948
697.948
697.948
697.948
697.948
697.948
697.948
697.948
697.948
697.948
697.948
697.948
697.948
697.948
697.948
697.948
697.948
697.948
697.948
697.948
697.948
697.948
697.948
697.948
697.948
697.948
697.948
697.948
697.948
697.948
697.948
697.948
697.948
697.948
697.948
697.948
697.948
697.948
697.948
697.948
697.948
697.948
697.948
697.948
697.948
697.948
697.948
697.948
697.948
697.948
697.948
697.948
697.948
697.948
697.948
697.948
697.948
697.948
697.948
697.948
697.948
697.948
697.948
697.948
697.948
697.948
697.948
697.948
697.948
697.948
697.948
697.948
697.948
697.948
697.948
697.948
697.948
697.948
697.948
697.948
697.948
697.948
697.948
697.948
697.948
697.948
697.948
697.948
697.948
697.948
697.948
697.948
697.948
697.948
697.948
697.948
697.948
697.948
697.948
697.948
697.948
697.948
697.948
697.948
697.948
697.948
697.948
697.948
697.948
697.948
697.948
697.948
697.948
697.948
697.948
697.948
697.948
697.948
697.948
697.948
697.948
697.948
697.948
697.948
697.948
697.948
697.948
697.948
697.948
697.948
697.948
697.948
697.948
697.948
697.948
697.948
697.948
697.948
697.948
697.948
697.948
697.948
697.948
697.948
697.948
697.948
697.948
697.948
697.948
697.948
697.948
697.948
697.948
697.948
697.948
697.948
697.948
697.948
697.948
697.948
697.948
697.948
697.948
697.948
697.948
697.948
697.948
697.948
697.948
697.948
697.948
697.948
697.948
697.948
697.948
697.948
697.948
697.948
697.948
697.948
697.948
697.948
697.948
697.948
697.948
697.948
697.948
697.948
697.948
697.948
697.948
697.948
697.948
697.948
697.948
697.948
697.948
697.948
697.948
697.948
697.948
697.948
697.948
697.948
697.948
697.948
697.948
697.948
697.948
697.948
697.948
697.948
697.948
697.948
697.948
697.948
697.948
697.948
697.948
697.948
697.948
697.948
697.948
697.948
697.948
697.948
697.948
697.948
697.948
697.948
697.948
697.948
697.948
697.948
697.948
697.948
697.948
697.948
697.948
697.948
697.948
697.948
697.948
697.948
591.197
697.948
697.948
697.948
697.948
697.948
697.948
697.948
697.948
697.948
697.948
697.948
697.948
697.948
697.948
697.948
697.948
697.948
697.948
697.948
697.948
697.948
697.948
697.948
669.119
697.948
697.948
697.948
697.948
697.948
697.948
697.948
697.948
697.948
697.948
697.948
697.948
697.948
697.948
697.948
697.948
697.948
697.948
697.948
697.948
697.948
697.948
697.948
671.573
697.948
697.948
697.948
697.948
697.948
697.948
697.948
697.948
697.948
697.948
697.948
697.948
697.948
697.948
697.948
697.948
697.948
697.948
697.948
697.948
697.948
697.948
697.756
685.357
697.948
697.948
697.948
697.948
697.948
697.948
697.948
697.948
697.948
697.948
697.948
697.948
697.948
697.948
697.948
697.948
697.948
697.948
697.948
697.948
697.948
697.948
697.659
685.784
697.948
697.948
697.948
697.948
697.948
697.948
697.948
697.948
697.948
697.948
697.948
697.948
697.948
697.948
697.948
697.948
697.948
697.948
697.948
697.948
697.948
697.912
688.918
692.247
697.948
697.948
697.948
697.948
697.948
697.948
697.948
697.948
697.948
697.948
697.948
697.948
697.948
697.948
697.948
697.948
697.948
697.948
697.948
697.948
697.948
697.878
688.996
692.303
697.947
697.948
697.948
697.948
697.948
697.948
697.948
697.948
697.948
697.948
697.948
697.948
697.948
697.948
697.948
697.948
697.948
697.948
697.948
697.948
697.948
697.846
689.072
692.351
697.946
697.948
697.948
697.948
697.948
697.948
697.948
697.948
697.948
697.948
697.948
697.948
697.948
697.948
697.948
697.948
697.948
697.948
697.948
697.948
697.947
697.814
689.146
692.395
697.946
697.948
697.948
697.948
697.948
697.948
697.948
697.948
697.948
697.948
697.948
697.948
697.948
697.948
697.948
697.948
697.948
697.948
697.948
697.948
697.947
697.784
689.219
692.435
697.945
697.948
697.948
697.948
697.948
697.948
697.948
697.948
697.948
697.948
697.948
697.948
697.948
697.948
697.948
697.948
697.948
697.948
697.948
697.948
697.946
697.756
689.291
692.473
697.944
697.948
697.948
697.948
697.948
697.948
697.948
697.948
697.948
697.948
697.948
697.948
697.948
697.948
697.948
697.948
697.948
697.948
697.948
697.948
697.946
697.729
689.361
692.509
697.944
697.948
697.948
697.948
697.948
697.948
697.948
697.948
697.948
697.948
697.948
697.948
697.948
697.948
697.948
697.948
697.948
697.948
697.948
697.948
697.945
697.7
689.432
692.545
697.943
697.948
697.948
697.948
697.948
697.948
697.948
697.948
697.948
697.948
697.948
697.948
697.948
697.948
697.948
697.948
697.948
697.948
697.948
697.948
697.944
697.669
689.504
692.583
697.942
697.948
697.948
697.948
697.948
697.948
697.948
697.948
697.948
697.948
697.948
697.948
697.948
697.948
697.948
697.948
697.948
697.948
697.948
697.948
697.942
697.64
689.575
692.62
697.942
697.948
697.948
697.948
697.948
697.948
697.948
697.948
697.948
697.948
697.948
697.948
697.948
697.948
697.948
697.948
697.948
697.948
697.948
697.948
697.941
697.611
689.645
692.656
697.941
697.948
697.948
697.948
697.948
697.948
697.948
697.948
697.948
697.948
697.948
697.948
697.948
697.948
697.948
697.948
697.948
697.948
697.948
697.948
697.94
697.585
689.714
692.692
697.94
697.948
697.948
697.948
697.948
697.948
697.948
697.948
697.948
697.948
697.948
697.948
697.948
697.948
697.948
697.948
697.948
697.948
697.948
697.948
697.939
697.559
689.783
692.727
697.94
697.948
697.948
697.948
697.948
697.948
697.948
697.948
697.948
697.948
697.948
697.948
697.948
697.948
697.948
697.948
697.948
697.948
697.948
697.948
697.937
697.534
689.851
692.761
697.939
697.948
697.948
697.948
697.948
697.948
697.948
697.948
697.948
697.948
697.948
697.948
697.948
697.948
697.948
697.948
697.948
697.948
697.948
697.948
697.936
697.509
689.919
692.796
697.939
697.948
697.948
697.948
697.948
697.948
697.948
697.948
697.948
697.948
697.948
697.948
697.948
697.948
697.948
697.948
697.948
697.948
697.948
697.948
697.934
697.486
689.986
692.83
697.938
697.948
697.948
697.948
697.948
697.948
697.948
697.948
697.948
697.948
697.948
697.948
697.948
697.948
697.948
697.948
697.948
697.948
697.948
697.948
697.933
697.462
690.053
692.865
697.937
697.948
697.948
697.948
697.948
697.948
697.948
697.948
697.948
697.948
697.948
697.948
697.948
697.948
697.948
697.948
697.948
697.948
697.948
697.948
697.931
697.439
690.119
692.899
697.937
697.948
697.948
697.948
697.948
697.948
697.948
697.948
697.948
697.948
697.948
697.948
697.948
697.948
697.948
697.948
697.948
697.948
697.948
697.948
697.948
697.948
697.948
697.948
697.948
697.948
697.948
607.074
587.533
697.948
697.948
697.948
697.948
697.948
697.948
697.948
697.948
697.948
697.948
697.948
697.948
697.948
697.948
697.948
697.948
697.948
697.948
697.825
697.924
697.448
697.881
697.948
697.948
697.948
697.948
697.948
697.948
697.948
697.527
697.547
692.046
694.966
697.948
697.948
697.948
697.948
697.948
697.948
697.948
697.698
697.616
696.182
693.569
697.948
697.948
697.948
697.603
697.501
697.948
697.948
697.948
697.867
697.801
697.948
635.967
607.132
645.718
697.948
697.948
697.932
697.948
697.948
697.947
697.877
697.948
697.948
697.895
697.948
697.948
697.948
697.929
697.566
697.796
697.948
697.431
696.42
697.845
697.487
695.181
697.427
697.948
697.682
697.127
697.922
697.696
697.948
697.604
697.534
697.948
696.467
697.002
696.389
696.435
693.473
691.897
697.948
696.882
697.098
697.116
696.895
697.948
696.997
697.332
697.036
696.94
697.465
696.339
697.948
697.539
697.797
697.111
697.512
697.948
697.606
697.728
697.37
697.583
697.787
697.635
697.808
697.868
697.948
697.821
697.78
697.742
697.814
697.897
697.874
697.948
697.948
697.948
697.934
697.948
697.948
697.948
697.948
697.948
697.841
697.79
692.126
688.511
697.948
697.948
697.948
697.948
697.938
697.948
697.948
697.948
697.781
697.709
697.948
606.937
624.661
676.148
683.233
625.804
645.708
687.819
681.444
697.948
697.874
697.906
684.041
688.147
697.909
697.925
697.948
697.948
697.948
697.948
697.948
697.948
697.948
697.928
697.948
697.939
697.948
697.942
697.948
697.608
697.717
693.792
693.927
695.265
694.961
697.488
680.419
697.679
694.763
692.529
692.275
694.508
697.835
696.066
697.94
692.436
697.307
691.372
697.932
697.445
697.938
697.948
697.908
696.581
697.937
697.94
696.814
696.751
697.749
697.723
696.12
696.236
697.171
697.942
697.944
697.939
697.941
697.166
697.841
697.947
697.948
697.945
697.947
697.804
696.739
696.77
696.309
696.312
689.951
690.238
696.747
697.938
697.937
697.939
697.938
696.745
697.048
697.937
697.938
697.937
697.937
697.037
608.931
697.156
629.927
611.443
650.752
631.255
697.203
696.687
613.441
696.752
697.109
697.031
697.296
697.94
697.939
697.942
697.941
697.338
664.42
674.626
697.473
666.496
652.189
677.955
668.07
697.503
647.668
662.772
697.735
687.9
691.842
681.26
687.128
697.714
679.938
688.506
689.828
628.947
688.605
687.979
616.289
695.055
694.967
697.946
697.948
697.948
697.948
697.948
697.913
697.907
638.916
697.736
697.839
697.947
697.88
697.847
697.948
618.854
622.822
591.929
688.621
688.832
626.476
633.313
694.443
695.081
541.422
697.948
697.948
697.948
697.948
697.948
697.948
697.881
697.947
697.946
697.467
697.282
697.811
697.518
697.942
697.942
697.942
697.942
697.519
692.897
694.569
695.788
693.802
675.25
670.554
697.845
694.741
696.087
697.609
697.631
633.913
697.948
697.945
697.948
697.914
697.567
697.355
697.946
697.948
697.948
697.948
697.948
697.945
697.649
697.944
697.943
697.946
697.944
697.682
697.153
684.204
692.175
680.003
680.706
696.538
692.945
693.725
697.603
695.559
696.653
697.388
697.899
697.903
697.861
697.868
697.143
697.942
697.942
697.561
696.6
683.076
679.57
696.326
679.386
679.898
678.813
678.341
696.357
692.075
690.895
696.797
697.856
697.853
697.842
697.874
696.963
697.092
697.854
697.859
697.852
697.85
696.968
697.334
690.266
691.854
688.078
687.222
696.675
697.744
697.943
697.942
697.944
697.943
697.758
697.666
685.166
679.037
690.476
688.876
697.683
655.738
659.428
697.778
692.192
690.956
650.606
654.541
680.877
676.498
697.946
697.947
697.948
668.946
690.792
670.594
673.451
671.874
690.318
697.948
697.942
697.948
697.926
697.947
609.123
614.889
619.475
618.962
679.605
631.357
627.491
639.038
632.526
680.534
631.428
635.227
685.427
684.368
686.088
648.689
642.219
634.318
638.629
697.906
697.945
697.948
697.932
697.944
697.891
697.477
697.797
693.041
694.429
695.694
693.96
681.274
692.842
691.681
694.081
693.209
681.118
689.075
687.984
691.318
689.679
693.995
680.887
683.9
675.476
679.451
693.667
668.145
668.304
694.822
697.781
697.624
697.919
697.825
695.445
696.58
696.242
697.497
696.73
697.853
697.945
697.93
697.79
697.669
697.823
697.609
697.921
697.667
697.878
697.926
697.708
697.857
697.945
697.905
697.838
681.895
683.064
697.049
670.176
664.507
685.435
671.309
657.127
652.994
662.831
659.227
696.588
681.023
681.64
691.728
690.253
696.063
693.043
688.67
687.139
690.019
689.055
697.635
693.899
694.385
695.686
696.589
697.883
697.895
697.267
697.151
697.871
697.88
684.516
683.74
696.64
659.498
660.841
641.712
657.125
661.23
666.427
660.837
660.958
679.004
679.289
696.314
648.231
646.026
652.352
648.965
641.828
640.251
645.074
643.271
696.347
678.578
678.859
691.108
690.658
697.862
697.857
696.779
696.877
697.872
697.864
697.85
697.852
697.083
696.98
697.849
697.849
612.755
619.688
687.243
689.127
684.55
686.535
613.486
643.16
691.517
688.347
689.631
691.076
639.168
674.522
676.197
669.229
673.895
619.646
681.715
683.961
676.982
680.562
619.871
688.887
689.877
697.285
684.963
686.759
687.483
684.915
686.713
696.76
686.655
688.063
668.679
612.006
612.181
625.056
613.539
670.158
619.359
653.393
612.448
655.877
684.274
695.076
694.351
695.935
695.319
684.811
677.312
678.006
660.914
664.517
641.265
648.977
684.137
681.925
697.948
697.948
697.948
697.948
697.934
697.936
697.948
697.948
697.948
697.948
697.948
697.948
697.948
697.948
697.948
697.948
697.948
697.894
697.455
696.681
696.581
692.261
694.83
697.943
697.943
697.651
690.29
689.78
693.637
692.211
693.049
697.589
697.945
697.948
697.948
697.203
697.421
697.9
697.939
697.917
697.946
697.83
696.067
697.104
695.307
696.475
696.335
697.357
697.553
697.557
697.133
697.912
697.917
697.718
697.571
697.942
697.943
686.848
685.444
696.898
693.293
690.958
690.776
691.748
696.869
697.533
697.532
697.108
697.546
697.549
697.531
697.53
696.914
696.562
688.865
687.493
697.148
697.851
697.847
697.838
697.945
697.944
628.808
629.317
693.473
692.553
697.788
627.864
628.342
696.231
696.565
697.889
697.938
697.929
605.6
605.117
606.977
623.098
627.015
601.518
603.219
620.399
617.352
643.068
677.199
676.476
682.428
654.51
650.008
686.65
697.948
697.948
697.948
697.906
697.926
697.94
697.944
697.868
697.884
697.948
697.948
697.948
697.187
697.138
697.533
697.763
697.576
697.48
693.428
694.062
691.482
691.854
695.464
694.583
689.88
690.723
682.148
682.225
686.553
685.958
680.279
682.511
682.849
697.614
693.382
694.301
695.604
693.608
696.416
696.092
697.702
697.573
697.006
687.82
686.552
695.25
692.85
689.433
697.948
697.947
697.895
697.876
697.74
697.808
696.983
697.765
697.83
694.547
695.467
697.815
684.887
683.385
696.002
696.35
697.935
697.939
697.883
697.728
697.923
697.929
696.866
685.206
684.677
689.954
690.375
697.534
697.535
697.058
697.013
697.531
697.533
610.998
628.298
655.781
657.393
639.098
640.577
609.73
689.947
689.149
696.625
619.568
617.46
631.555
631.75
615.631
637.132
638.088
616.226
617.198
697.86
697.855
697.17
697.418
697.87
697.865
659.762
690.289
690.889
689.008
689.651
657.348
689.719
695.676
696.102
696.101
695.9
690.325
682.481
688.088
687.302
678.315
677.379
679.34
636.316
638.083
639.129
625.96
689.813
662.354
656.526
667.585
663.833
687.408
669.691
670.084
684.721
687.196
695.463
697.946
697.946
697.941
619.084
620.197
661.171
661.436
587.23
630.027
623.618
623.51
622.108
622.983
632.047
543.153
682.958
684.194
697.948
697.948
697.948
696.872
696.778
697.46
697.097
697.426
697.649
697.33
697.387
692.613
694.698
687.803
688.369
688.395
687.776
693.706
689.401
689.163
674.136
668.35
668.312
668.642
668.815
672.769
697.516
697.756
697.765
697.721
697.746
697.459
695.432
697.163
696.209
695.892
697.138
697.56
697.564
690.923
691.049
692.909
691.247
697.536
697.535
696.829
697.541
697.543
697.1
696.944
697.53
697.53
688.157
690.112
689.295
690.792
690.537
687.988
629.886
630.776
627.245
627.47
651.997
637.392
636.021
670.268
670.103
679.535
672.031
673.819
668.833
670.174
677.995
697.942
697.94
697.944
697.937
697.946
697.948
697.948
697.944
697.946
697.943
670.244
681.176
680.351
683.338
682.223
671.244
674.37
677.381
675.858
679.653
678.793
673.328
697.945
697.947
697.946
697.888
697.841
697.937
697.929
605.742
620.293
608.407
608.455
619.348
619.155
644.282
646.15
629.052
601.642
600.535
628.721
607.661
607.016
607.126
639.429
611.741
605.77
678.611
680.09
686.363
675.514
675.675
675.042
675.057
683.335
676.306
677.066
635.357
620.617
621.268
621.551
620.535
636.69
697.931
697.935
697.917
697.849
697.894
697.924
696.747
697.495
697.067
696.971
697.16
697.236
696.985
697.079
693.19
694.204
689.029
689.229
688.589
688.819
695.594
692.049
692.183
689.108
689.369
694.222
689.229
683.741
682.594
680.656
685.45
684.811
688.627
683.073
682.986
684.714
683.762
688.304
690.89
685.932
686.56
683.683
684.856
690.328
682.902
676.809
685.158
684.342
667.077
667.323
694.521
696.683
696.55
694.214
695.981
697.219
696.898
689.891
688.785
694.074
694.304
696.362
692.279
691.097
697.369
697.542
697.836
697.653
697.148
696.42
697.102
697.789
697.872
697.889
697.785
697.821
697.638
697.413
697.617
697.892
697.828
697.792
697.898
697.844
697.907
697.744
697.758
697.668
697.781
668.741
666.474
681.423
663.453
665.483
659.291
672.343
655.389
654.012
661.449
660.375
690.952
683.547
685.229
680.281
681.841
690.532
695.72
692.875
693.682
686.186
690.936
694.88
682.014
679.409
688.28
670.269
671.804
667.731
668.977
687.84
689.783
677.778
678.929
673.565
675.561
689.435
695.884
696.499
660.505
643.89
646.234
638.776
641.171
660.799
645.905
647.077
646.713
651.862
662.134
626.371
628.467
631.12
626.972
663.859
660.854
634.821
636.679
631.159
633.22
660.906
647.913
647.417
651.734
650.131
640.698
639.939
644.539
644.386
690.382
690.51
697.068
697.537
697.539
697.53
697.53
696.992
612.62
650.301
653.531
625.392
609.846
642.994
646.478
624.385
621.867
675.049
647.49
647.273
671.525
643.027
637.364
646.844
645.671
672.997
630.223
627.157
632.894
635.694
617.863
620.855
627.159
689.326
693.169
692.85
693.64
693.411
689.601
685.557
686.403
686.563
684.999
685.013
685.563
686.592
691.397
691.042
692.407
691.884
687.173
611.729
626.873
628.686
624.008
625.439
611.889
620.95
638.464
641.794
631.25
634.693
616.824
618.561
604.996
606.264
606.008
605.273
612.479
619.53
622.253
609.85
614.763
611.663
689.299
688.772
683.603
677.334
678.852
632.522
635.258
644.212
628.212
624.373
634.383
632.031
646.894
626.793
627.088
669.903
669.757
697.948
697.948
697.948
697.948
697.948
697.948
697.948
697.948
697.948
697.948
697.948
697.948
697.948
697.948
697.948
697.948
697.948
697.948
697.948
697.948
697.948
697.948
697.948
697.948
697.948
697.948
697.948
697.948
697.948
697.948
697.948
697.948
697.948
697.948
697.948
697.948
697.948
697.948
697.948
697.948
697.948
697.948
697.948
697.948
697.948
697.948
697.948
697.948
697.948
697.948
697.948
697.948
697.948
697.948
697.948
697.948
697.948
697.948
697.948
697.948
697.948
697.948
697.948
697.948
697.948
697.948
697.948
697.948
697.948
697.948
697.948
697.948
697.948
697.948
697.948
697.948
697.948
697.948
697.948
697.948
697.948
697.948
697.948
697.948
697.948
697.948
697.948
697.948
697.948
697.948
697.948
697.948
697.948
697.948
697.948
697.948
697.948
697.948
697.948
697.948
697.948
697.948
697.948
697.948
697.948
697.948
697.948
697.948
697.948
697.948
697.948
697.948
697.948
697.948
697.948
697.948
697.948
697.948
697.948
697.948
697.948
697.948
697.948
697.948
697.948
697.948
697.948
697.948
697.948
697.948
697.948
697.948
697.948
697.948
697.948
697.948
697.908
697.906
602.707
692.983
693.33
697.948
697.948
697.948
697.948
697.948
697.948
697.948
697.948
697.948
697.948
697.948
697.948
697.948
660.976
659.844
671.031
697.948
697.948
697.948
697.948
697.948
697.948
697.948
697.948
697.948
697.948
697.948
697.832
678.777
661.334
685.137
697.94
697.948
697.948
697.948
697.948
697.948
697.948
697.948
697.948
697.948
697.948
697.948
697.948
697.948
697.948
697.948
697.948
697.948
697.946
697.946
697.948
697.948
697.948
697.948
697.948
697.948
697.948
697.945
697.945
697.945
697.945
697.948
697.948
697.948
697.948
697.948
697.947
697.947
697.946
697.946
697.948
697.948
697.948
697.948
697.948
697.948
697.948
697.905
697.915
697.948
586.779
655.246
655.895
661.514
661.519
544.052
697.948
697.948
697.948
697.948
697.948
697.948
697.948
697.948
697.947
697.948
697.948
697.948
697.948
697.948
697.948
697.948
697.948
697.948
697.948
697.948
697.948
697.948
697.948
697.948
697.948
697.948
697.948
697.948
697.948
697.948
697.947
697.942
697.948
697.948
697.948
697.948
697.948
697.948
697.948
697.948
697.948
697.948
697.948
697.948
697.948
697.948
697.948
697.948
697.948
697.948
697.948
697.948
697.948
697.948
697.948
697.948
697.847
697.921
697.915
697.943
697.94
697.915
697.806
697.727
697.856
697.948
697.948
697.948
697.948
697.948
697.948
697.948
697.948
697.948
697.948
697.948
697.948
697.948
697.948
697.948
697.948
697.948
697.948
697.948
697.948
697.948
697.522
697.841
697.842
697.847
697.844
697.533
697.948
697.948
697.948
697.948
697.948
697.948
697.948
697.948
697.948
697.948
697.948
697.948
697.948
697.948
697.948
697.948
697.948
697.948
697.948
697.948
697.948
697.663
697.944
697.944
697.861
697.864
697.628
696.027
692.798
693.222
697.948
697.948
697.948
697.948
697.948
697.948
697.948
697.948
697.948
697.568
695.437
695.958
696.655
696.75
697.533
697.948
697.948
697.948
697.948
697.948
697.948
697.948
697.948
697.948
697.86
697.649
697.673
697.428
697.476
697.814
697.926
697.909
697.948
634.408
697.636
697.646
689.04
689.539
607.96
697.769
697.744
640.808
697.948
697.929
697.938
697.937
697.928
697.948
697.938
697.946
697.945
697.948
697.948
697.946
697.948
697.948
697.948
697.946
697.911
697.941
697.948
697.948
697.948
697.945
697.947
697.948
697.903
697.85
697.837
697.947
697.946
697.947
697.948
697.948
697.948
697.948
697.948
697.948
697.945
697.946
697.938
697.59
697.859
697.852
697.908
697.9
697.758
697.948
697.948
697.948
697.358
696.513
696.734
694.294
694.349
696.454
696.876
696.975
697.531
697.947
697.947
697.948
697.652
697.799
697.815
697.892
697.941
697.943
697.824
697.831
697.704
697.948
697.948
697.948
697.592
697.856
697.858
697.843
697.845
697.543
697.948
697.948
697.948
696.514
694.613
694.5
695.743
695.655
696.966
696.364
694.209
694.247
694.41
694.34
696.399
697.945
697.945
697.948
697.652
697.641
697.075
697.948
697.945
697.945
697.052
693.543
692.81
695.909
695.774
697.291
697.069
695.915
695.83
692.567
691.721
696.88
697.425
696.428
696.549
693.677
694.057
696.477
697.946
697.947
697.948
697.606
697.887
697.883
697.907
697.904
697.784
697.121
697.668
697.66
697.879
697.874
697.438
697.948
697.946
697.946
697.627
696.912
696.84
697.251
697.205
697.714
697.407
696.158
696.036
696.761
696.677
697.558
697.771
697.315
697.374
696.11
696.506
697.664
697.819
697.912
697.91
697.946
697.945
697.846
697.948
697.948
697.948
697.837
694.349
693.727
693.628
694.163
697.836
697.755
697.334
697.294
697.892
696.627
696.739
697.948
697.948
697.948
697.948
697.948
697.948
697.948
697.948
697.948
697.948
697.948
697.948
697.948
697.948
697.948
697.948
697.948
697.948
697.948
697.948
697.948
697.821
697.941
697.942
697.941
697.941
697.814
691.693
687.818
688.522
683.092
684.171
689.183
697.948
697.948
697.948
697.948
697.948
697.948
697.917
697.934
697.944
697.948
697.948
697.948
697.948
697.948
697.948
697.948
697.948
697.948
697.752
697.945
697.94
697.944
697.945
697.742
697.948
697.948
697.948
677.445
663.183
661.539
671.509
670.015
682.346
687.125
681.092
682.028
697.948
697.948
697.948
697.89
697.947
697.946
697.945
697.947
697.895
684.802
674.344
672.968
680.403
679.498
687.671
697.917
697.946
697.946
697.946
697.946
697.92
697.948
697.948
697.948
697.948
697.948
697.948
697.948
697.948
697.948
697.948
697.948
697.948
697.948
697.948
697.948
697.948
697.948
697.948
697.948
697.948
697.948
697.948
697.947
697.948
697.948
697.948
697.948
697.946
697.947
697.944
697.948
697.948
697.948
694.539
695.228
697.53
697.66
697.142
697.205
694.54
692.167
692.546
689.169
689.74
692.894
693.394
696.443
696.282
696.716
696.587
693.7
697.825
697.518
697.557
697.824
697.894
697.944
697.918
697.503
697.777
697.562
697.821
697.767
697.946
697.942
697.927
697.948
697.948
697.948
697.922
697.913
697.933
697.942
697.932
697.927
694.98
695.115
696.882
696.693
694.761
694.864
697.452
697.519
697.773
697.695
697.323
697.388
697.593
697.604
697.182
697.943
697.929
697.927
697.935
697.932
697.944
697.939
697.921
697.919
697.925
697.923
697.94
697.163
697.58
697.585
697.901
697.909
697.862
697.948
697.945
697.944
697.947
697.946
697.948
697.946
697.939
697.937
697.943
697.941
697.946
697.768
697.874
697.888
695.156
695.09
696.707
696.802
695.288
695.222
694.132
694.129
696.304
696.324
694.163
694.141
697.547
697.544
696.756
697.938
697.916
697.917
697.915
697.916
697.938
697.939
697.919
697.92
697.917
697.918
697.938
696.758
697.561
697.552
697.937
697.915
697.915
697.917
697.916
697.938
697.937
697.915
697.915
697.915
697.915
697.937
695.302
693.785
697.106
649.003
670.186
671.728
658.77
660.244
632.932
697.248
695.621
695.463
696.817
691.36
690.248
695.574
695.747
697.175
696.942
695.125
695.362
697.73
697.716
697.249
697.94
697.923
697.924
697.921
697.922
697.94
697.941
697.927
697.928
697.925
697.926
697.941
697.371
697.751
697.741
665.878
646.69
644.989
659.579
657.268
673.21
696.388
696.277
697.441
664.591
680.844
681.92
672.988
674.271
653.637
673.854
692.387
692.818
691.423
691.917
672.346
697.531
696.587
696.491
649.403
623.859
622.259
642.981
640.301
660.802
697.176
697.249
697.754
688.526
692.148
691.726
694.465
694.185
691.386
691.246
690.73
686.261
697.69
697.004
697.094
688.996
671.935
668.696
675.667
673.042
689.457
689.035
682.156
681.293
694.868
687.865
689.39
692.895
693.224
695.149
697.948
697.948
697.948
697.948
697.948
697.948
697.911
697.944
697.944
697.943
697.944
697.909
689.387
689.062
636.745
697.735
696.571
696.614
696.501
696.563
697.746
697.867
697.943
697.943
697.942
697.942
697.863
697.948
697.948
697.948
630.73
625.224
587.808
688.533
676.464
672.566
677.34
676.855
688.639
694.988
685.359
684.047
689.283
691.19
695.149
541.867
618.991
637.393
697.948
697.948
697.948
697.948
697.948
697.948
697.948
697.948
697.948
697.948
697.948
697.948
697.948
697.948
697.948
697.948
697.948
697.948
697.93
697.926
697.865
697.947
697.943
697.944
697.94
697.941
697.947
697.83
697.671
697.641
697.84
697.84
697.519
697.942
697.921
697.921
697.921
697.921
697.942
697.942
697.922
697.923
697.921
697.921
697.942
697.524
697.841
697.84
692.316
692.5
695.895
697.591
697.622
697.853
695.756
696.932
696.83
697.102
697.022
695.929
697.618
695.188
693.746
695.287
695.243
697.625
633.439
683.949
683.704
697.948
697.948
697.948
697.948
697.948
697.948
697.948
697.948
697.948
697.867
697.859
697.908
697.948
697.948
697.947
697.948
697.948
697.948
697.948
697.948
697.948
697.948
697.948
697.947
697.948
697.948
697.948
697.942
697.947
697.947
697.874
697.866
697.618
697.943
697.928
697.93
697.924
697.926
697.943
697.946
697.936
697.938
697.932
697.934
697.945
697.718
697.891
697.882
695.813
696.18
697.261
686.603
693.395
692.274
695.226
694.559
690.293
680.169
689.726
689.653
689.942
689.825
680.407
696.494
694.416
694.493
693.31
695.755
695.561
696.012
695.894
693.539
697.568
697.054
697.125
697.714
697.769
697.572
697.902
697.889
697.869
697.863
697.774
697.77
697.782
697.778
697.865
697.942
697.922
697.922
697.923
697.922
697.942
697.552
697.847
697.849
694.843
694.731
696.557
682.01
690.868
691.203
690.147
690.494
680.722
694.151
694.176
696.342
679.561
689.495
689.452
689.598
689.549
679.786
678.411
689.709
689.886
689.514
689.596
678.214
696.381
694.29
694.249
697.855
697.757
697.759
697.754
697.755
697.854
697.792
697.798
697.877
697.033
697.625
697.608
697.855
697.76
697.758
697.766
697.763
697.857
697.851
697.752
697.753
697.751
697.751
697.85
696.16
696.296
697.381
690.797
694.184
693.895
694.742
694.476
691.366
696.587
694.321
694.513
697.894
697.891
697.729
697.943
697.931
697.932
697.929
697.93
697.942
697.944
697.935
697.936
697.933
697.934
697.944
697.772
697.901
697.898
697.042
696.979
697.647
682.718
693.9
694.206
693.21
693.569
681.843
689.968
694.956
695.166
694.478
694.728
689.439
697.699
697.155
697.101
656.912
642.297
641.12
644.969
643.522
658.117
697.406
697.371
697.767
691.807
695.701
695.851
695.361
695.538
691.398
639.924
638.681
653.298
697.948
697.947
697.946
686.478
687.125
691.245
689.793
685.111
685.841
697.947
697.948
697.948
697.948
697.948
697.948
697.946
697.941
697.945
665.947
664.609
678.567
630.26
647.671
649.07
636.15
653.962
656.133
650.488
652.078
634.014
681.476
668.605
667.257
676.659
675.578
685.481
647.129
662.229
663.687
658.395
660.481
645.04
697.946
697.943
697.941
697.947
697.945
697.947
697.937
697.919
697.912
697.938
697.928
697.941
697.624
697.609
697.784
692.443
688.32
689.063
687.049
687.612
692.047
693.808
690.627
691.056
689.708
690.203
693.525
691.291
691.752
694.283
682.123
688.135
687.438
689.28
688.737
683.079
686.679
685.914
678.044
693.299
690.273
690.794
697.738
697.389
697.469
697.166
697.307
697.691
697.901
697.81
697.859
697.573
697.702
697.869
696.466
694.473
694.653
697.234
695.963
696.824
694.903
695.324
696.949
697.917
697.875
697.695
697.942
697.928
697.939
697.888
697.91
697.937
697.928
697.897
697.88
697.941
697.937
697.944
697.878
697.92
697.93
697.899
697.909
697.854
682.192
690.832
690.627
691.536
691.109
682.552
696.96
695.283
695.507
694.579
694.667
696.638
681.235
690.196
690.073
690.461
690.32
681.422
697.192
697.258
697.666
694.069
696.234
696.124
696.451
696.343
694.233
697.886
697.82
697.811
697.849
697.832
697.891
697.209
697.624
697.66
697.569
697.575
697.159
697.874
697.792
697.787
697.804
697.798
697.877
684.34
691.775
691.898
691.455
691.634
684.11
696.674
695.019
694.94
679.193
689.426
689.413
689.433
689.43
679.262
696.308
694.131
694.137
694.218
694.189
696.33
678.758
689.46
689.48
689.413
689.43
678.792
697.86
697.765
697.768
697.761
697.763
697.859
696.767
697.541
697.538
697.59
697.573
696.801
697.869
697.78
697.786
697.771
697.775
697.866
697.85
697.752
697.752
697.756
697.754
697.851
697.849
697.75
697.75
697.751
697.751
697.849
687.899
674.75
673.129
677.151
676.066
688.552
685.159
668.121
666.963
671.32
669.575
685.824
666.269
668.223