/*--------------------------------*- C++ -*----------------------------------*\
| =========                 |                                                 |
| \\      /  F ield         | OpenFOAM: The Open Source CFD Toolbox           |
|  \\    /   O peration     | Version:  5.x                                   |
|   \\  /    A nd           | Web:      www.OpenFOAM.org                      |
|    \\/     M anipulation  |                                                 |
\*---------------------------------------------------------------------------*/
FoamFile
{
    version     2.0;
    format      ascii;
    class       volVectorField;
    location    "200";
    object      U;
}
// * * * * * * * * * * * * * * * * * * * * * * * * * * * * * * * * * * * * * //

dimensions      [0 1 -1 0 0 0 0];

internalField   nonuniform List<vector> 
6584
(
(1.00008 -0.000207216 4.89762e-27)
(1.00006 -0.00045454 2.37671e-25)
(1.00007 -0.000616014 2.13141e-30)
(1.00007 -0.00083729 -4.24828e-25)
(1.00008 -0.00106928 0)
(1.00008 -0.00132486 0)
(1.00008 -0.00157804 0)
(1.00003 -0.00174993 4.40048e-25)
(0.999961 -0.0017761 4.50637e-25)
(0.999842 -0.00149738 0)
(0.999721 -0.000707475 2.15081e-25)
(0.999636 0.000539091 -1.37075e-25)
(0.999656 0.00193787 -1.08878e-26)
(0.999779 0.00303699 2.7984e-26)
(0.999925 0.00355469 9.54541e-27)
(1.00008 0.00349779 8.75145e-25)
(1.00015 0.00310929 7.86284e-25)
(1.00018 0.00259762 6.33185e-26)
(1.00017 0.00206906 5.56442e-25)
(1.00015 0.00159373 4.03926e-25)
(1.00012 0.00120075 0)
(1.00011 0.000854938 0)
(1.00008 0.000612375 6.20641e-25)
(1.0001 0.000273741 3.82201e-25)
(1.00032 -0.000435699 -2.32156e-25)
(1.00027 -0.00091606 -9.06712e-25)
(1.00033 -0.00121644 -1.21329e-24)
(1.00035 -0.00166325 0)
(1.0004 -0.00213054 -1.61288e-25)
(1.00041 -0.00265955 -1.35104e-24)
(1.00037 -0.0032086 -8.24275e-25)
(1.00016 -0.00360818 1.39463e-24)
(0.999863 -0.00372872 -4.95184e-26)
(0.99908 -0.00321906 -3.40266e-25)
(0.998136 -0.00161021 -1.22262e-28)
(0.997528 0.00101718 0)
(0.997666 0.00400526 4.62541e-25)
(0.998521 0.00631847 3.17194e-25)
(0.999653 0.00738328 -1.93051e-24)
(1.00043 0.00720861 -5.12298e-25)
(1.00075 0.00631867 -1.21186e-24)
(1.00086 0.00521733 -1.58113e-24)
(1.00081 0.00411298 -4.12964e-24)
(1.00071 0.0031447 -3.41931e-24)
(1.00058 0.00236403 -2.32503e-25)
(1.0005 0.00167331 -9.93445e-26)
(1.00039 0.00122369 0)
(1.00043 0.000570621 3.32586e-25)
(1.00071 -0.000670137 -5.86843e-25)
(1.00067 -0.00135774 0)
(1.0008 -0.00177308 -2.36168e-25)
(1.00088 -0.0024455 -1.58076e-24)
(1.00101 -0.00315925 -2.38794e-24)
(1.00107 -0.00400891 0)
(1.00099 -0.00497616 0)
(1.00053 -0.0057298 -3.71543e-25)
(0.999644 -0.00653136 -1.07874e-25)
(0.998282 -0.00463102 1.01211e-25)
(0.996718 -0.00266225 -1.79846e-25)
(0.995505 0.000779247 -2.56805e-25)
(0.99563 0.00498081 0)
(0.997168 0.00832574 0)
(0.999156 0.009925 3.78073e-26)
(1.00109 0.0116479 -2.20052e-24)
(1.00198 0.00975061 0)
(1.00222 0.00786064 -6.87775e-25)
(1.00205 0.00606435 0)
(1.00175 0.00456639 -5.28237e-25)
(1.00143 0.0034087 -1.48311e-24)
(1.0012 0.00239047 -8.99248e-25)
(1.00096 0.00177825 0)
(1.00094 0.000861163 2.59283e-25)
(1.00118 -0.000890273 -3.60485e-25)
(1.0012 -0.00174545 0)
(1.00142 -0.00225188 -3.17274e-25)
(1.00162 -0.00313664 0)
(1.0019 -0.00409928 0)
(1.00211 -0.00532987 0)
(1.00209 -0.00686877 -5.82196e-25)
(1.00147 -0.00837204 4.3647e-24)
(0.99979 -0.0102432 -2.73582e-25)
(0.997168 -0.00831495 3.18653e-25)
(0.993785 -0.00602758 -1.88253e-25)
(0.990387 -0.000517069 5.13632e-26)
(0.990062 0.00748455 4.86836e-26)
(0.993702 0.013802 0)
(0.998316 0.0158397 -3.23963e-24)
(1.00164 0.0146418 0)
(1.00437 0.0134276 0)
(1.00441 0.0104879 5.25453e-24)
(1.00392 0.00781591 3.4947e-24)
(1.00323 0.00575377 -1.18685e-24)
(1.00259 0.00424811 -8.40285e-25)
(1.00212 0.00294546 0)
(1.00169 0.00221757 3.71298e-25)
(1.00156 0.00111086 3.09346e-25)
(1.00171 -0.00107596 -1.40369e-25)
(1.00182 -0.00204441 -9.36783e-27)
(1.00218 -0.00260729 -4.43084e-26)
(1.00257 -0.00367204 -6.69348e-26)
(1.00309 -0.00484848 1.46893e-25)
(1.00365 -0.00648448 3.46096e-24)
(1.00392 -0.00871479 -5.5008e-24)
(1.00371 -0.0111917 5.07909e-24)
(1.00034 -0.0121473 2.65951e-25)
(0.996924 -0.0135713 1.48597e-24)
(0.990318 -0.0122139 -2.02328e-25)
(0.981198 -0.0040971 2.78118e-25)
(0.979272 0.0113147 -1.28194e-26)
(0.9885 0.0228849 4.54204e-24)
(0.998539 0.0245357 0)
(1.00431 0.0209063 3.21838e-24)
(1.00625 0.0159156 -7.49628e-25)
(1.00751 0.0123007 -4.4203e-24)
(1.00644 0.00911037 -2.53435e-24)
(1.0051 0.00651595 9.41814e-25)
(1.00402 0.0047739 -6.46473e-26)
(1.00319 0.00326357 -3.88598e-26)
(1.00254 0.00248557 4.26053e-25)
(1.00221 0.00128758 -1.65597e-25)
(1.00227 -0.00120742 6.99945e-26)
(1.00251 -0.00221945 -1.8441e-25)
(1.00303 -0.00278643 -1.09132e-26)
(1.00368 -0.00396122 0)
(1.00454 -0.00523528 -7.2808e-25)
(1.00566 -0.00720797 -3.05775e-25)
(1.00651 -0.00962444 -2.17376e-24)
(1.0054 -0.0122469 -5.28839e-25)
(1.00345 -0.0161932 2.1357e-24)
(0.999697 -0.021348 8.37056e-24)
(0.987227 -0.0217087 1.78622e-24)
(0.969823 -0.0137305 2.73757e-28)
(0.961593 0.0143112 -6.93969e-26)
(0.981579 0.0359289 7.32574e-25)
(1.00245 0.037701 -7.24506e-24)
(1.01027 0.0282049 0)
(1.01142 0.0200847 4.11651e-28)
(1.01159 0.0133392 9.60212e-25)
(1.00949 0.00969912 2.68555e-25)
(1.00727 0.00668972 1.01413e-24)
(1.00561 0.00487333 -3.99798e-25)
(1.00434 0.00327491 0)
(1.00342 0.00253201 -2.22778e-25)
(1.00285 0.00136154 -3.2259e-25)
(1.0028 -0.00126858 9.10542e-28)
(1.0032 -0.00224455 -8.54181e-26)
(1.00389 -0.00274954 1.08302e-25)
(1.00484 -0.00393459 6.95687e-27)
(1.00611 -0.00513647 1.46928e-26)
(1.00792 -0.00727747 -1.1607e-24)
(1.0097 -0.00965591 -1.59594e-24)
(1.00927 -0.0133571 -7.09439e-26)
(1.0097 -0.0195014 -3.20838e-25)
(1.00805 -0.0293333 1.26251e-24)
(0.993373 -0.039655 0)
(0.955028 -0.0424455 1.16554e-24)
(0.909629 0.020178 4.3811e-26)
(0.978146 0.0739144 3.20601e-24)
(1.01153 0.052748 -4.19737e-26)
(1.02146 0.0341584 0)
(1.01908 0.0220991 2.18817e-24)
(1.01645 0.0127602 3.36266e-25)
(1.01284 0.00919017 2.82579e-25)
(1.00954 0.00609282 -7.96031e-26)
(1.00722 0.0044475 -8.58826e-25)
(1.00545 0.0029282 0)
(1.00425 0.00232147 -2.07555e-25)
(1.0034 0.00130962 -2.06126e-25)
(1.00327 -0.00125119 -8.77777e-26)
(1.00383 -0.00211202 7.67604e-26)
(1.00467 -0.00248539 4.05102e-26)
(1.00592 -0.00356025 3.13356e-26)
(1.00759 -0.00448668 -4.213e-26)
(1.01011 -0.00646869 5.47079e-25)
(1.013 -0.00827521 1.34736e-28)
(1.01409 -0.0124641 -2.16206e-25)
(1.01814 -0.0192543 2.10868e-28)
(1.02303 -0.0314254 -3.06576e-24)
(1.01892 -0.0540307 -1.0867e-25)
(0.99569 -0.108372 4.188e-26)
(1.01948 0.13116 5.68552e-25)
(1.04049 0.0645299 -5.47923e-25)
(1.03782 0.0340787 1.16313e-24)
(1.02858 0.0202428 -2.16241e-25)
(1.02131 0.010001 7.13835e-25)
(1.01598 0.00732052 7.21632e-25)
(1.0116 0.00462814 5.38762e-25)
(1.00861 0.00345514 -2.84802e-25)
(1.00637 0.00221263 0)
(1.00492 0.00184646 0)
(1.00379 0.00112182 -2.02585e-30)
(1.00362 -0.00115853 -1.67609e-26)
(1.00433 -0.00183944 -3.44777e-27)
(1.00528 -0.0020249 -1.38315e-26)
(1.00676 -0.00287498 6.34975e-26)
(1.00874 -0.00334687 7.30038e-26)
(1.01176 -0.00481584 3.97658e-25)
(1.01554 -0.00554154 1.09949e-24)
(1.01851 -0.00916438 0)
(1.02607 -0.0139432 0)
(1.03828 -0.0222536 0)
(1.05282 -0.0420003 -1.0513e-25)
(1.08542 -0.0866818 1.43627e-26)
(1.12253 0.111564 0)
(1.07817 0.0489819 0)
(1.05355 0.0235823 0)
(1.03722 0.0133861 2.42139e-25)
(1.02493 0.00518981 0)
(1.0182 0.00416508 -8.02697e-25)
(1.01304 0.00240065 -5.05793e-25)
(1.00956 0.00196405 -4.76751e-26)
(1.00695 0.00118148 0)
(1.00532 0.00113859 1.25208e-26)
(1.00395 0.000805827 2.42239e-26)
(1.00385 -0.00100618 3.52143e-27)
(1.00466 -0.00147062 -5.1058e-27)
(1.00565 -0.00144439 5.74217e-27)
(1.00724 -0.00199994 2.96057e-26)
(1.00933 -0.00193994 -7.39477e-26)
(1.01248 -0.00268042 -5.59945e-27)
(1.01659 -0.00216786 -1.07375e-25)
(1.02094 -0.0042509 -6.86439e-27)
(1.02991 -0.00519646 0)
(1.04478 -0.00589559 -2.70357e-25)
(1.06827 -0.010757 1.0419e-30)
(1.11617 -0.0168495 -3.56796e-26)
(1.16696 0.0261157 -8.89639e-26)
(1.09833 0.0117003 -3.23108e-25)
(1.06082 0.00534939 -2.4785e-24)
(1.04164 0.00293271 0)
(1.02624 -0.00065247 -1.64773e-24)
(1.01896 0.000244638 0)
(1.01357 -0.000256623 -1.58323e-26)
(1.00988 0.000165525 0)
(1.00709 -4.38496e-05 -1.64208e-26)
(1.0054 0.000269934 1.97085e-27)
(1.00386 0.000388882 -1.71367e-26)
(1.00395 -0.000819027 0)
(1.0048 -0.00106607 -2.99746e-26)
(1.00576 -0.000845782 -3.20801e-26)
(1.00732 -0.00110406 1.33802e-26)
(1.00932 -0.000568924 2.41808e-27)
(1.0122 -0.000593584 7.12422e-26)
(1.01601 0.000906425 3.47222e-25)
(1.02069 0.000667551 1.65318e-25)
(1.02849 0.00335322 0)
(1.04044 0.00927262 1.32009e-24)
(1.06057 0.018413 3.9538e-25)
(1.09407 0.0417861 -1.71287e-26)
(1.14519 -0.0534171 -4.09545e-26)
(1.09207 -0.025882 5.44279e-25)
(1.05711 -0.0131355 9.76312e-26)
(1.04042 -0.00780098 1.43493e-24)
(1.02498 -0.00614145 7.16616e-24)
(1.0181 -0.00365771 3.98786e-24)
(1.01309 -0.0028843 -2.6859e-24)
(1.00951 -0.00168114 -1.88535e-24)
(1.00676 -0.00130154 8.75442e-26)
(1.00512 -0.000661277 3.74235e-26)
(1.0035 -8.7431e-05 -9.45179e-26)
(1.00394 -0.00062493 3.14321e-27)
(1.00478 -0.000686609 4.47828e-27)
(1.00565 -0.000324995 7.47222e-27)
(1.00706 -0.000343903 1.52312e-26)
(1.00882 0.000506323 -3.92045e-34)
(1.01119 0.000993868 1.57929e-25)
(1.01423 0.00298478 5.4381e-25)
(1.01828 0.00417759 1.90199e-25)
(1.02336 0.0088432 0)
(1.02951 0.0176571 -3.68783e-25)
(1.03999 0.0331754 -8.73936e-26)
(1.05179 0.0653579 -1.69892e-26)
(1.09021 -0.093859 -5.60275e-27)
(1.06813 -0.0481877 0)
(1.04572 -0.0256909 -2.33321e-24)
(1.0347 -0.0158203 1.85747e-24)
(1.02171 -0.0102175 1.04365e-23)
(1.01598 -0.00684299 6.7958e-24)
(1.01174 -0.00508132 0)
(1.00854 -0.00332719 -1.68782e-24)
(1.00601 -0.00244136 -9.73541e-25)
(1.00451 -0.00155434 6.45481e-26)
(1.00291 -0.000577178 -8.48283e-26)
(1.00384 -0.000447908 0)
(1.00463 -0.000377433 5.01389e-27)
(1.00538 5.58923e-05 -6.1721e-27)
(1.0066 0.000186145 -1.71602e-26)
(1.00805 0.00115769 0)
(1.00984 0.00187384 -5.68775e-26)
(1.01202 0.003868 8.27724e-26)
(1.0149 0.00569921 -3.11002e-26)
(1.01721 0.0104399 -4.91098e-26)
(1.01797 0.0182903 1.95101e-25)
(1.01864 0.0323302 3.80314e-26)
(1.01129 0.0583731 0)
(1.03349 -0.0935142 1.39136e-27)
(1.04046 -0.0521974 8.20449e-26)
(1.03225 -0.0301985 1.14375e-24)
(1.027 -0.0198017 1.24e-25)
(1.01747 -0.0124879 4.70877e-24)
(1.01317 -0.00893395 4.85118e-24)
(1.00984 -0.0066195 0)
(1.00716 -0.00460579 -2.22604e-26)
(1.00494 -0.00335478 3.71317e-25)
(1.00365 -0.00233243 2.12433e-25)
(1.00214 -0.00103935 7.40657e-27)
(1.0037 -0.000304016 0)
(1.00441 -0.000161195 0)
(1.00505 0.00027732 0)
(1.00606 0.000466278 0)
(1.00723 0.00139274 -1.57535e-26)
(1.00853 0.00210719 -1.58732e-26)
(1.01002 0.00369401 -1.65953e-25)
(1.01115 0.00593194 2.73281e-24)
(1.0123 0.00907659 0)
(1.01001 0.0138413 0)
(1.00567 0.0212714 5.89504e-25)
(0.989275 0.0286121 2.03098e-24)
(0.581615 -0.024171 -7.3524e-26)
(0.997882 -0.057337 -3.87387e-24)
(1.02027 -0.0431701 -6.91925e-25)
(1.02121 -0.0283702 -5.06176e-27)
(1.01964 -0.0202046 -2.80683e-26)
(1.01326 -0.0131714 -1.49756e-24)
(1.01026 -0.00992218 1.80961e-25)
(1.00773 -0.0074719 3.01653e-27)
(1.00557 -0.00545514 -1.79131e-24)
(1.00371 -0.00399908 0)
(1.00262 -0.00295036 7.95398e-26)
(1.00125 -0.00144453 -1.76661e-25)
(1.00356 -0.000200307 0)
(1.00418 -3.93701e-05 -2.669e-26)
(1.00471 0.000354611 2.69788e-27)
(1.00556 0.000532388 0)
(1.00651 0.00131375 0)
(1.00749 0.00187132 -1.01234e-24)
(1.00854 0.00304584 1.59147e-25)
(1.00931 0.00433751 3.44917e-24)
(1.00939 0.00645504 3.88252e-24)
(1.00694 0.00833972 2.17452e-24)
(1.00262 0.00998986 0)
(0.995141 0.00440718 -1.88433e-25)
(0.797001 -0.0187863 3.86622e-25)
(0.9952 -0.0325904 -3.64266e-25)
(1.01043 -0.0286056 3.64093e-25)
(1.01434 -0.0235516 -3.73361e-25)
(1.01199 -0.016472 6.27223e-25)
(1.0097 -0.0127041 -1.07262e-25)
(1.00763 -0.0100055 -1.77373e-27)
(1.00568 -0.00774491 -4.63118e-27)
(1.00398 -0.00590964 0)
(1.00242 -0.00438325 -8.05224e-25)
(1.00153 -0.00339449 -9.2403e-25)
(1.00032 -0.00177916 -2.41193e-25)
(1.00343 -0.000136578 1.07902e-27)
(1.00398 7.59973e-07 -3.00263e-26)
(1.00444 0.000321357 4.20765e-26)
(1.00517 0.00044459 6.112e-30)
(1.00597 0.00103997 -1.73848e-25)
(1.00679 0.00138458 -7.35982e-25)
(1.00766 0.00211751 -1.84284e-24)
(1.00825 0.00279334 -2.43707e-24)
(1.00821 0.00382181 -8.77135e-25)
(1.00671 0.00397173 -1.21682e-25)
(1.00443 0.00258442 0)
(1.00139 -0.00198603 -2.93989e-26)
(0.826184 -0.0150216 -6.70958e-25)
(1.0018 -0.0180191 -1.67132e-25)
(1.00849 -0.0206818 -1.14919e-25)
(1.01074 -0.018778 -1.90522e-25)
(1.00901 -0.0143449 -3.03159e-24)
(1.00704 -0.0117836 0)
(1.00545 -0.0095781 -4.06371e-25)
(1.00385 -0.00762927 -9.67621e-26)
(1.00248 -0.00604446 -3.78246e-26)
(1.00117 -0.00454683 1.17244e-25)
(1.00044 -0.0036721 0)
(0.999386 -0.00203519 0)
(1.00334 -0.000108018 -1.03327e-27)
(1.00382 -2.15171e-05 5.12962e-28)
(1.00424 0.00021488 2.73711e-26)
(1.00489 0.00026465 0)
(1.00563 0.000669107 -9.06613e-26)
(1.00639 0.000820062 0)
(1.00727 0.00112955 -1.6159e-24)
(1.00797 0.00144663 6.19056e-25)
(1.0086 0.00090925 -3.69766e-26)
(1.00764 0.00133121 -6.51351e-26)
(1.00759 -0.00023807 3.05787e-25)
(0.99316 -0.00411266 -3.39199e-25)
(0.865535 -0.0124383 -8.81641e-25)
(1.00396 -0.0135531 6.88706e-26)
(1.00847 -0.0152879 3.08665e-25)
(1.00895 -0.0149812 1.01053e-25)
(1.00684 -0.0123345 -1.47033e-24)
(1.00509 -0.0105498 1.607e-24)
(1.00371 -0.00886879 0)
(1.00231 -0.00726217 6.12517e-25)
(1.00115 -0.00595605 -3.84493e-26)
(1.00001 -0.00454702 1.48743e-25)
(0.999406 -0.00381372 0)
(0.998491 -0.0022203 0)
(1.0033 -0.000107739 7.52487e-27)
(1.00373 -8.59883e-05 1.873e-27)
(1.00413 6.821e-05 -1.79056e-26)
(1.00474 4.41786e-05 1.72703e-26)
(1.00547 0.000276924 0)
(1.00625 0.000281605 0)
(1.00723 0.000300551 -5.16014e-25)
(1.00818 0.000290919 -8.64936e-26)
(1.00919 -0.000254878 1.07452e-25)
(1.00939 -0.00164676 -3.91316e-25)
(1.00998 -0.00146702 0)
(0.990775 -0.00319085 -4.40039e-25)
(0.877505 -0.0133408 -2.79599e-24)
(1.00602 -0.00944375 4.5409e-25)
(1.00823 -0.0107256 1.16208e-24)
(1.00745 -0.0112317 2.01314e-24)
(1.00558 -0.0104319 1.34078e-24)
(1.00375 -0.00921903 1.35999e-24)
(1.00237 -0.0080512 -2.02557e-25)
(1.00106 -0.00675312 -1.26238e-25)
(1.00001 -0.00572306 -2.94391e-25)
(0.99899 -0.00443338 -1.05892e-24)
(0.998457 -0.00384737 2.10063e-26)
(0.997662 -0.00234242 -4.32578e-26)
(1.0033 -0.000128585 4.43826e-27)
(1.00369 -0.000175079 2.67937e-27)
(1.00409 -9.37519e-05 -1.99857e-26)
(1.00469 -0.000181553 -9.30308e-27)
(1.00545 -9.10914e-05 0)
(1.00627 -0.000180964 0)
(1.00739 -0.000362423 8.96435e-25)
(1.00851 -0.00046521 2.26214e-25)
(1.01012 -0.00138964 -2.57414e-25)
(1.01003 -0.00120791 -3.53049e-25)
(1.01405 -0.00595479 0)
(0.951855 0.00120266 -7.52308e-25)
(0.927034 -0.0135489 -2.69656e-26)
(1.00971 -0.00641088 2.24962e-25)
(1.00791 -0.00999918 8.62341e-26)
(1.00741 -0.00917821 -5.34835e-25)
(1.0049 -0.00896707 -4.09833e-25)
(1.00287 -0.00805378 2.28519e-25)
(1.00137 -0.00726404 -6.35146e-26)
(1.00007 -0.00619743 -1.02823e-24)
(0.999056 -0.00541481 -3.23439e-25)
(0.998104 -0.0042507 -1.37823e-24)
(0.997609 -0.00380265 0)
(0.99691 -0.00241324 -1.94716e-25)
(1.00334 -0.000164213 -4.47911e-27)
(1.00371 -0.000275396 -2.93888e-27)
(1.00412 -0.00025507 0)
(1.00472 -0.000392322 -1.78945e-27)
(1.00553 -0.000418202 0)
(1.0064 -0.000550379 -3.94261e-25)
(1.00767 -0.000906691 -1.37009e-25)
(1.00888 -0.000907466 5.61329e-26)
(1.01093 -0.00229329 -1.9524e-25)
(1.01099 -0.00121981 -2.18794e-25)
(1.01415 -0.00644326 -4.89324e-26)
(0.953702 -8.996e-05 -2.18248e-24)
(0.928844 -0.0108785 8.87359e-25)
(1.00926 -0.00476787 -2.17458e-25)
(1.00818 -0.00894978 -7.36013e-26)
(1.00742 -0.00743568 -2.5956e-27)
(1.00441 -0.00785629 -2.09651e-25)
(1.00226 -0.00702403 -2.60062e-25)
(1.00062 -0.00655093 -5.74789e-25)
(0.999283 -0.00564617 -1.38547e-25)
(0.998262 -0.00507819 -8.32729e-26)
(0.99735 -0.00403192 -4.47868e-25)
(0.996866 -0.00370606 -1.93411e-25)
(0.996242 -0.00244393 -8.68749e-26)
(1.00343 -0.000209535 0)
(1.00378 -0.000377586 -1.13865e-26)
(1.00421 -0.000406742 -1.90444e-26)
(1.00481 -0.000577617 5.91362e-27)
(1.00567 -0.000700584 1.42235e-25)
(1.00659 -0.00082957 -5.73194e-25)
(1.008 -0.00134973 0)
(1.00929 -0.00117496 -1.80948e-25)
(1.01156 -0.00290002 0)
(1.01199 -0.00132352 0)
(1.0146 -0.00642055 2.91128e-28)
(0.955113 -0.000692155 8.01999e-27)
(0.930379 -0.00924198 3.98756e-25)
(1.00931 -0.00378589 -1.338e-25)
(1.00863 -0.00794574 -2.06217e-26)
(1.00741 -0.00608864 -1.45265e-26)
(1.0041 -0.00697562 4.46018e-26)
(1.00183 -0.00611555 -1.1549e-25)
(1.00004 -0.00592363 -1.5412e-25)
(0.998664 -0.00512291 2.58582e-25)
(0.997606 -0.00474079 -8.38432e-26)
(0.996713 -0.00379907 0)
(0.996223 -0.00357796 3.45179e-30)
(0.995654 -0.00244419 0)
(1.00354 -0.000260696 0)
(1.00388 -0.000475551 -2.08074e-26)
(1.00433 -0.000544276 -1.32466e-26)
(1.00495 -0.000733386 2.7743e-26)
(1.00587 -0.000938968 0)
(1.00682 -0.00103205 4.84052e-26)
(1.00834 -0.00169671 -5.42915e-25)
(1.00972 -0.00133664 -3.97649e-25)
(1.0121 -0.00327436 -5.59963e-26)
(1.01287 -0.00139167 -1.69209e-28)
(1.01506 -0.00623018 2.73193e-25)
(0.955883 -0.00103564 -2.66715e-25)
(0.931269 -0.00806168 5.02743e-25)
(1.00945 -0.00312885 -7.73445e-26)
(1.00905 -0.00711507 9.8936e-26)
(1.00742 -0.00506348 -3.43598e-27)
(1.00393 -0.00626218 -8.74155e-26)
(1.00152 -0.00533469 7.90916e-26)
(0.999597 -0.0053838 1.93873e-25)
(0.998176 -0.00464134 -3.75217e-30)
(0.997067 -0.00441957 -4.00404e-26)
(0.996178 -0.00356658 -2.81262e-25)
(0.99567 -0.00343334 1.45163e-25)
(0.995141 -0.00242215 1.34055e-25)
(1.00367 -0.000314907 -1.50781e-26)
(1.00401 -0.000565769 -2.80687e-26)
(1.00449 -0.000666132 -7.07174e-34)
(1.00512 -0.000860001 7.04608e-26)
(1.00608 -0.00113631 1.93772e-25)
(1.00708 -0.00117441 3.31335e-26)
(1.00867 -0.00195978 -5.453e-25)
(1.01014 -0.00143194 -3.72353e-25)
(1.01255 -0.00349491 2.10641e-25)
(1.0136 -0.00144669 0)
(1.01542 -0.00598512 5.51494e-26)
(0.95635 -0.00124382 -9.98401e-26)
(0.93182 -0.00716861 1.4909e-25)
(1.00951 -0.0026562 -6.15173e-26)
(1.0094 -0.00641274 -5.49354e-31)
(1.00744 -0.00427181 -1.56234e-25)
(1.00384 -0.00567574 -7.12249e-26)
(1.00129 -0.00467495 -1.56937e-26)
(0.999261 -0.00492411 1.03489e-25)
(0.99779 -0.00420839 -1.51647e-25)
(0.996624 -0.00412381 -2.37455e-25)
(0.995731 -0.00334368 -1.18437e-25)
(0.995199 -0.00328322 -1.24779e-25)
(0.994697 -0.00238436 1.16734e-25)
(1.00383 -0.000370147 -2.24307e-34)
(1.00417 -0.000646623 -1.669e-26)
(1.00466 -0.000772398 1.94717e-26)
(1.00531 -0.000960394 4.00964e-26)
(1.00631 -0.00129696 2.78112e-29)
(1.00734 -0.00127185 0)
(1.00899 -0.00215377 -2.63296e-26)
(1.01055 -0.00148712 -3.54619e-25)
(1.01295 -0.00360963 1.78351e-25)
(1.01423 -0.00149252 0)
(1.0157 -0.00571931 -1.5502e-30)
(0.956652 -0.00136392 7.48998e-26)
(0.932186 -0.00648367 -1.56814e-25)
(1.00953 -0.00231411 0)
(1.00969 -0.00581648 2.98771e-27)
(1.00746 -0.00365778 4.14623e-26)
(1.0038 -0.00518779 0)
(1.00113 -0.00412283 3.60577e-26)
(0.999005 -0.00453412 3.32022e-26)
(0.997482 -0.00382576 -3.85187e-25)
(0.99626 -0.00385733 -9.89514e-26)
(0.995357 -0.00313587 9.99601e-26)
(0.994797 -0.00313487 -1.25966e-25)
(0.994313 -0.00233607 0)
(1.00399 -0.000424997 1.89463e-26)
(1.00434 -0.000717704 -1.85127e-26)
(1.00485 -0.000864057 0)
(1.00551 -0.00103855 1.92987e-26)
(1.00655 -0.00142567 7.04859e-26)
(1.00761 -0.00133698 1.35503e-26)
(1.00929 -0.00229212 0)
(1.01093 -0.00151855 3.834e-28)
(1.0133 -0.00365148 1.62414e-25)
(1.01479 -0.00153192 0)
(1.01594 -0.00545648 3.9615e-26)
(0.95684 -0.00142719 2.84487e-26)
(0.932418 -0.00594591 -1.07039e-25)
(1.00949 -0.00206633 1.11957e-26)
(1.00995 -0.00531218 -3.9736e-26)
(1.00749 -0.00318219 -5.98699e-29)
(1.0038 -0.00477818 2.43028e-26)
(1.001 -0.00366469 -9.68528e-27)
(0.998809 -0.00420362 1.61668e-27)
(0.997233 -0.00349234 -1.37718e-25)
(0.99596 -0.00362099 5.33403e-26)
(0.995043 -0.00294617 5.98195e-26)
(0.994454 -0.00299331 -1.81762e-26)
(0.99398 -0.00228144 -7.59946e-27)
(1.00417 -0.000478374 -1.97317e-27)
(1.00451 -0.000779363 -2.60094e-26)
(1.00505 -0.000942373 -5.61773e-27)
(1.00572 -0.00109859 0)
(1.00678 -0.00152715 4.13505e-25)
(1.00788 -0.00137971 0)
(1.00956 -0.00238641 -2.45842e-25)
(1.01129 -0.00153676 0)
(1.01361 -0.00364435 1.36185e-25)
(1.01528 -0.00156774 9.17458e-26)
(1.01611 -0.00520606 0)
(0.956938 -0.00146032 2.24474e-26)
(0.932564 -0.00552094 0)
(1.0094 -0.00189001 9.09799e-27)
(1.01016 -0.00488261 -1.08641e-26)
(1.00752 -0.00281468 0)
(1.00382 -0.00443182 0)
(1.00089 -0.0032882 -7.91573e-27)
(0.998659 -0.00392372 1.17348e-26)
(0.99703 -0.00320585 0)
(0.995711 -0.00341372 0)
(0.994778 -0.00277598 4.76578e-26)
(0.994161 -0.00286149 8.57419e-27)
(0.99369 -0.00222378 -3.87281e-26)
(1.00435 -0.000529392 1.99294e-27)
(1.0047 -0.000832286 1.90962e-27)
(1.00525 -0.0010087 0)
(1.00593 -0.0011444 -5.80582e-27)
(1.00701 -0.00160571 2.12629e-25)
(1.00813 -0.00140762 4.15868e-27)
(1.00982 -0.00244651 -2.14337e-25)
(1.01162 -0.00154884 -2.08457e-27)
(1.01389 -0.00360601 0)
(1.01571 -0.00159969 8.91188e-26)
(1.01621 -0.00497473 0)
(0.956964 -0.00148675 0)
(0.932676 -0.00518207 0)
(1.00928 -0.001762 4.81594e-26)
(1.01034 -0.00451274 8.58853e-26)
(1.00754 -0.00253238 0)
(1.00384 -0.00413735 -1.18152e-27)
(1.00081 -0.00298247 0)
(0.998543 -0.0036868 0)
(0.996861 -0.00296306 0)
(0.995504 -0.0032336 0)
(0.994551 -0.00262616 -4.11278e-26)
(0.99391 -0.00274125 -3.17109e-26)
(0.993437 -0.0021661 4.64683e-31)
(1.00453 -0.000577255 0)
(1.00489 -0.000877259 1.01744e-26)
(1.00544 -0.00106424 -2.00155e-26)
(1.00614 -0.0011792 2.22168e-26)
(1.00723 -0.00166513 2.02347e-25)
(1.00839 -0.00142627 4.15629e-25)
(1.01006 -0.0024807 0)
(1.01193 -0.00155976 0)
(1.01415 -0.00354979 1.28513e-26)
(1.0161 -0.00163217 3.33302e-27)
(1.01628 -0.00476804 -2.49692e-33)
(0.956954 -0.00150981 1.11807e-26)
(0.93274 -0.00490218 1.31793e-25)
(1.00912 -0.00166959 3.86732e-26)
(1.01049 -0.00420101 3.6344e-27)
(1.00757 -0.00231772 0)
(1.00388 -0.00388713 -5.68192e-26)
(1.00074 -0.00273648 -8.12718e-26)
(0.998451 -0.00348633 0)
(0.996718 -0.00275974 -7.75177e-26)
(0.99533 -0.00307854 -6.68696e-41)
(0.994355 -0.0024961 1.01043e-25)
(0.993692 -0.00263366 5.78856e-26)
(0.993212 -0.00211044 4.79665e-26)
(1.0047 -0.000621172 -2.19674e-26)
(1.00507 -0.000914945 8.5053e-27)
(1.00564 -0.00110992 -1.06123e-26)
(1.00635 -0.00120564 4.35692e-26)
(1.00744 -0.00170859 1.83069e-25)
(1.00863 -0.00143976 7.93275e-25)
(1.01029 -0.00249557 0)
(1.01223 -0.00157201 0)
(1.01439 -0.003484 1.14971e-26)
(1.01646 -0.00166781 0)
(1.01632 -0.00458483 0)
(0.956925 -0.0015331 0)
(0.93277 -0.00467258 0)
(1.00892 -0.00160856 -3.03175e-26)
(1.01062 -0.00393813 -5.44183e-26)
(1.00759 -0.00215747 -5.13133e-26)
(1.00391 -0.00367499 -9.22065e-26)
(1.00069 -0.00254177 -6.75592e-26)
(0.998379 -0.00331731 0)
(0.996595 -0.00259235 -1.8728e-26)
(0.995182 -0.00294645 0)
(0.994183 -0.00238536 0)
(0.993501 -0.00253926 2.60642e-26)
(0.993011 -0.00205865 1.71901e-26)
(1.00488 -0.000660332 -1.83701e-26)
(1.00526 -0.000945879 -1.19872e-26)
(1.00583 -0.00114642 -3.776e-27)
(1.00656 -0.00122571 2.95167e-27)
(1.00765 -0.0017387 -5.12418e-34)
(1.00887 -0.00145112 3.77454e-25)
(1.0105 -0.0024963 0)
(1.0125 -0.00158708 -2.24765e-26)
(1.01462 -0.0034143 6.02878e-27)
(1.0168 -0.00170826 -4.73242e-28)
(1.01634 -0.004424 5.75149e-26)
(0.956887 -0.00155955 6.0777e-27)
(0.932775 -0.00448697 4.32331e-26)
(1.00869 -0.0015754 0)
(1.01073 -0.00371673 0)
(1.00762 -0.00204204 2.73069e-28)
(1.00395 -0.00349606 3.75084e-26)
(1.00064 -0.00239131 2.28285e-31)
(0.998321 -0.00317587 -3.24068e-26)
(0.996488 -0.00245767 0)
(0.995054 -0.00283541 0)
(0.99403 -0.00229346 1.11972e-26)
(0.993331 -0.00245827 0)
(0.992829 -0.00201231 0)
(1.00505 -0.000693871 0)
(1.00544 -0.000970249 -1.90591e-26)
(1.00601 -0.0011741 -1.32302e-26)
(1.00676 -0.00124067 -2.17728e-26)
(1.00785 -0.00175758 0)
(1.0091 -0.00146217 0)
(1.01071 -0.00248655 0)
(1.01276 -0.00160633 -2.41779e-26)
(1.01484 -0.00334514 0)
(1.01712 -0.00175511 -2.89242e-27)
(1.01634 -0.00428503 2.29977e-26)
(0.956844 -0.0015918 8.25574e-28)
(0.932766 -0.00434026 3.38274e-26)
(1.00843 -0.00156748 3.22915e-26)
(1.01083 -0.00353172 3.36117e-26)
(1.00764 -0.00196461 0)
(1.00398 -0.00334646 -2.98817e-26)
(1.0006 -0.00227933 -3.68158e-26)
(0.998274 -0.0030589 0)
(0.996393 -0.00235278 0)
(0.994943 -0.00274388 0)
(0.993892 -0.00221989 1.041e-26)
(0.993179 -0.00239082 0)
(0.99266 -0.00197285 0)
(1.00521 -0.000720723 9.04744e-28)
(1.00562 -0.000988025 -1.55028e-26)
(1.00619 -0.00119296 3.05077e-27)
(1.00697 -0.00125146 0)
(1.00804 -0.00176669 2.13761e-26)
(1.00933 -0.001473 -1.24205e-28)
(1.0109 -0.00246894 0)
(1.01302 -0.00163016 -1.14232e-26)
(1.01505 -0.00327915 4.29209e-27)
(1.01743 -0.00180928 -8.29563e-28)
(1.01631 -0.00416776 -2.00515e-27)
(0.956804 -0.00163197 -1.87057e-27)
(0.932749 -0.00422846 5.06889e-26)
(1.00813 -0.00158344 8.25174e-28)
(1.01091 -0.00337972 -7.41217e-28)
(1.00766 -0.00192019 2.23019e-26)
(1.00402 -0.00322328 3.01227e-28)
(1.00056 -0.0022011 -2.30096e-27)
(0.998234 -0.00296382 0)
(0.996306 -0.00227512 -2.29641e-26)
(0.994844 -0.00267047 -1.88155e-26)
(0.993764 -0.00216419 0)
(0.993039 -0.00233706 2.2495e-26)
(0.992502 -0.00194161 2.89819e-27)
(1.00537 -0.000739571 0)
(1.0058 -0.000998813 -9.71228e-27)
(1.00637 -0.00120279 -3.97363e-27)
(1.00717 -0.00125884 -7.93086e-28)
(1.00823 -0.00176678 0)
(1.00955 -0.00148417 1.67901e-25)
(1.0111 -0.00244567 -4.12711e-26)
(1.01327 -0.00165848 -1.62032e-26)
(1.01526 -0.00321822 -2.73366e-27)
(1.01773 -0.00187152 2.82857e-27)
(1.01627 -0.0040733 9.33585e-27)
(0.956771 -0.00168301 -1.05012e-26)
(0.93273 -0.00414982 1.72031e-26)
(1.0078 -0.0016229 7.04542e-28)
(1.01098 -0.00325804 -1.76381e-26)
(1.00768 -0.00190472 -1.49846e-26)
(1.00405 -0.00312391 7.29051e-28)
(1.00052 -0.00215268 -2.32823e-27)
(0.998199 -0.00288866 0)
(0.996224 -0.00222264 -1.52853e-26)
(0.994755 -0.00261425 -1.45215e-26)
(0.993645 -0.00212614 0)
(0.99291 -0.00229726 7.74344e-27)
(0.992352 -0.00191991 -1.12845e-26)
(1.00553 -0.000748793 -7.58719e-27)
(1.00598 -0.00100207 8.73204e-27)
(1.00654 -0.00120315 -1.92939e-26)
(1.00737 -0.00126252 -5.68559e-28)
(1.00842 -0.00175829 1.44752e-26)
(1.00978 -0.00149589 1.73958e-25)
(1.01129 -0.00241813 -1.79781e-26)
(1.01352 -0.00169078 -5.6375e-27)
(1.01548 -0.00316323 -1.03358e-27)
(1.01804 -0.00193932 5.70987e-27)
(1.01622 -0.00400173 -5.21518e-27)
(0.956747 -0.00174832 9.38941e-27)
(0.932714 -0.00410065 -9.82547e-27)
(1.00744 -0.00168633 0)
(1.01103 -0.00316752 -9.78308e-27)
(1.00769 -0.00191527 -8.40839e-27)
(1.00408 -0.00304631 4.2077e-28)
(1.00048 -0.00213052 0)
(0.998169 -0.00283134 1.25339e-27)
(0.996145 -0.00219316 1.85787e-27)
(0.994672 -0.00257398 -1.04775e-26)
(0.993528 -0.0021053 -1.26457e-26)
(0.992787 -0.00227149 5.11302e-27)
(0.992202 -0.00190905 0)
(1.00566 -0.000744596 -5.14595e-27)
(1.00614 -0.000996132 7.43032e-27)
(1.0067 -0.00119193 -6.71978e-27)
(1.00756 -0.00126209 0)
(1.00858 -0.00174027 0)
(1.00999 -0.00150786 -3.73578e-26)
(1.01146 -0.00238565 1.71773e-26)
(1.01375 -0.00172546 2.39576e-27)
(1.01567 -0.00311437 1.19793e-27)
(1.01833 -0.00201493 -2.1568e-27)
(1.01617 -0.00396703 -4.44848e-27)
(0.956733 -0.00183741 0)
(0.932709 -0.00409037 0)
(1.00708 -0.00177602 0)
(1.01108 -0.00310124 0)
(1.0077 -0.00194613 -6.5124e-28)
(1.00411 -0.0029876 0)
(1.00045 -0.00213253 0)
(0.998146 -0.00279095 1.16457e-27)
(0.996075 -0.00218675 0)
(0.994604 -0.00254992 0)
(0.993425 -0.00210301 0)
(0.992682 -0.00226129 4.6414e-27)
(0.99207 -0.00191186 0)
(1.00585 -0.000727804 0)
(1.0064 -0.000983217 -6.21433e-28)
(1.00692 -0.00117147 -2.04895e-27)
(1.00786 -0.00125954 -1.62597e-28)
(1.00881 -0.00171565 3.50667e-27)
(1.01033 -0.00152163 -7.1561e-26)
(1.01169 -0.00235213 2.90741e-27)
(1.01414 -0.00176408 3.6159e-30)
(1.01596 -0.00307312 2.36316e-33)
(1.0188 -0.00206023 -4.66004e-31)
(1.01613 -0.00393863 -6.05588e-27)
(0.956718 -0.00195597 0)
(0.932705 -0.00406834 1.67606e-27)
(1.00652 -0.0018934 -1.71609e-26)
(1.01111 -0.00310145 1.26586e-26)
(1.00767 -0.00199885 7.24724e-28)
(1.00415 -0.00294503 0)
(1.00038 -0.00215137 0)
(0.998128 -0.00276135 0)
(0.995965 -0.00219643 0)
(0.994517 -0.00253647 0)
(0.993272 -0.00211434 0)
(0.992537 -0.00226262 3.02805e-27)
(0.99187 -0.00192687 0)
(1.07733 -0.0939866 1.96069e-26)
(1.11762 0.131014 7.16475e-26)
(1.01032 0.146421 3.18383e-25)
(1.11555 -0.0260108 -3.52029e-26)
(1.17432 0.0394694 -1.18057e-26)
(1.12911 0.121553 -5.90802e-26)
(1.09862 0.0364195 -1.58534e-26)
(1.15556 -0.0562409 -1.52992e-25)
(1.17598 0.0264027 -4.48796e-26)
(1.05734 0.0640575 -7.50588e-26)
(1.09842 -0.0995653 2.17759e-25)
(1.14952 -0.0645635 0)
(1.01563 0.0606898 6.8946e-30)
(1.03549 -0.103186 -1.43885e-25)
(1.09028 -0.102269 1.37186e-25)
(0.990371 0.0328604 0)
(0.693627 0.0158449 -9.60179e-26)
(0.559378 -0.0283253 1.52199e-25)
(0.992383 -0.0686737 8.21771e-25)
(1.02828 -0.100767 -2.14926e-25)
(0.984184 -0.102369 1.85339e-25)
(0.909383 -0.000157287 4.37042e-26)
(0.995633 0.138416 4.5434e-25)
(0.959066 0.0655035 1.02099e-24)
(1.04536 -0.0476675 -1.26771e-25)
(1.07258 -0.084215 5.60206e-27)
(1.0041 -0.0973421 -2.4377e-25)
(1.071 0.241546 0)
(0.943857 0.224683 -2.53791e-25)
(1.11215 0.119723 0)
(1.07524 0.0677079 1.15211e-26)
(1.03906 0.0761936 -1.37607e-24)
(1.06676 -0.0191802 1.28891e-25)
(1.10822 -0.0241772 -3.28351e-26)
(1.07997 -0.0777665 6.5237e-27)
(1.10386 -0.0620724 -6.12992e-27)
(1.1373 -0.0763835 5.60375e-27)
(1.11219 -0.1184 -7.3305e-27)
(1.17783 0.103219 7.62809e-26)
(1.15404 0.173294 2.95402e-26)
(1.16509 0.0376904 5.21099e-27)
(1.10632 0.027321 -3.88882e-25)
(1.08573 0.0598711 1.49478e-25)
(1.06421 0.0122096 2.63887e-25)
(1.09441 0.0320652 1.38749e-26)
(1.10896 -0.0158048 -1.70487e-28)
(1.11264 0.00902902 2.15628e-30)
(1.13995 0.0222736 -3.35317e-26)
(1.15096 -0.0207564 -4.42257e-28)
(1.16535 -0.024605 2.12191e-27)
(1.18657 0.0446594 -4.09847e-26)
(1.15082 -0.0453806 -1.72157e-25)
(1.10452 -0.0202513 5.14639e-26)