/*--------------------------------*- C++ -*----------------------------------*\
| =========                 |                                                 |
| \\      /  F ield         | OpenFOAM: The Open Source CFD Toolbox           |
|  \\    /   O peration     | Version:  5.x                                   |
|   \\  /    A nd           | Web:      www.OpenFOAM.org                      |
|    \\/     M anipulation  |                                                 |
\*---------------------------------------------------------------------------*/
FoamFile
{
    version     2.0;
    format      ascii;
    class       volScalarField;
    location    "200";
    object      xf;
}
// * * * * * * * * * * * * * * * * * * * * * * * * * * * * * * * * * * * * * //

dimensions      [0 0 0 0 0 0 0];

internalField   nonuniform List<scalar> 
6584
(
0.106537
0.106537
0.106537
0.106537
0.106538
0.106538
0.106538
0.106538
0.106538
0.106538
0.106538
0.106538
0.106538
0.106538
0.106538
0.106538
0.106538
0.106538
0.106538
0.106538
0.106537
0.106537
0.106537
0.106537
0.106421
0.106421
0.106421
0.106421
0.106421
0.106422
0.106422
0.106422
0.106422
0.106422
0.106422
0.106422
0.106422
0.106422
0.106422
0.106422
0.106422
0.106422
0.106422
0.106422
0.106421
0.106421
0.106421
0.106421
0.106305
0.106305
0.106305
0.106305
0.106305
0.106305
0.106306
0.106306
0.106307
0.106364
0.106364
0.106364
0.106364
0.106364
0.106364
0.106307
0.106306
0.106306
0.106306
0.106305
0.106305
0.106305
0.106305
0.106305
0.106189
0.106189
0.106189
0.106189
0.106189
0.106189
0.10619
0.10619
0.106191
0.106249
0.106248
0.106248
0.106248
0.106248
0.106248
0.106249
0.10619
0.10619
0.10619
0.106189
0.106189
0.106189
0.106189
0.106189
0.106073
0.106073
0.106073
0.106073
0.106073
0.106073
0.106074
0.106074
0.106132
0.106132
0.106132
0.106131
0.106131
0.106131
0.106132
0.106132
0.106132
0.106075
0.106074
0.106074
0.106073
0.106073
0.106073
0.106073
0.105957
0.105957
0.105957
0.105957
0.105957
0.105958
0.105958
0.106016
0.106015
0.106015
0.106044
0.106042
0.106041
0.106043
0.106015
0.106016
0.106017
0.10596
0.105959
0.105958
0.105958
0.105957
0.105957
0.105957
0.105841
0.105841
0.105841
0.105841
0.105842
0.105842
0.105843
0.1059
0.1059
0.105899
0.105924
0.105936
0.105934
0.105922
0.105928
0.105901
0.105902
0.105845
0.105844
0.105843
0.105842
0.105842
0.105841
0.105841
0.105725
0.105725
0.105725
0.105726
0.105726
0.105727
0.105728
0.105785
0.105785
0.105785
0.105808
0.105812
0.105815
0.105812
0.105788
0.105788
0.105731
0.105729
0.105728
0.105727
0.105726
0.105726
0.105725
0.105609
0.105609
0.10561
0.10561
0.105611
0.105612
0.105614
0.105671
0.105671
0.105672
0.105695
0.1057
0.105703
0.105701
0.105676
0.105675
0.105618
0.105614
0.105613
0.105612
0.105611
0.10561
0.10561
0.105493
0.105494
0.105494
0.105495
0.105496
0.105497
0.1055
0.105557
0.105558
0.105561
0.105585
0.105594
0.105599
0.105593
0.105566
0.105563
0.105505
0.1055
0.105498
0.105496
0.105495
0.105494
0.105494
0.105378
0.105378
0.105379
0.10538
0.105381
0.105382
0.105385
0.105443
0.105445
0.10545
0.105476
0.105488
0.105497
0.105486
0.105456
0.105451
0.105391
0.105386
0.105383
0.105381
0.10538
0.105379
0.105378
0.105262
0.105262
0.105263
0.105264
0.105266
0.105268
0.105271
0.105329
0.105332
0.105338
0.105365
0.105378
0.10539
0.105378
0.105345
0.105339
0.105278
0.105272
0.105269
0.105266
0.105264
0.105263
0.105262
0.105146
0.105147
0.105148
0.105149
0.105151
0.105153
0.105157
0.105214
0.105218
0.105224
0.105252
0.105263
0.105277
0.105266
0.105233
0.105226
0.105164
0.105158
0.105154
0.105151
0.105149
0.105148
0.105147
0.105031
0.105031
0.105032
0.105034
0.105035
0.105038
0.105042
0.105043
0.105103
0.105108
0.105134
0.10514
0.0509918
0.105141
0.105151
0.10512
0.105112
0.10505
0.105043
0.105039
0.105035
0.105033
0.105032
0.105031
0.104915
0.104916
0.104917
0.104918
0.10492
0.104923
0.104926
0.104927
0.104986
0.104992
0.105017
0.105004
0.0873859
0.10502
0.105004
0.105004
0.104937
0.104934
0.104927
0.104923
0.10492
0.104918
0.104916
0.104915
0.104799
0.1048
0.104801
0.104803
0.104805
0.104807
0.10481
0.104811
0.10487
0.104876
0.104872
0.104884
0.0879499
0.104873
0.104887
0.104889
0.104822
0.104819
0.104812
0.104807
0.104804
0.104801
0.1048
0.104799
0.104683
0.104684
0.104685
0.104687
0.104689
0.104692
0.104695
0.104696
0.104699
0.104761
0.104756
0.104579
0.0956193
0.104753
0.10477
0.104773
0.104706
0.104703
0.104696
0.104691
0.104688
0.104685
0.104683
0.104682
0.104568
0.104569
0.10457
0.104572
0.104574
0.104576
0.104579
0.104581
0.104584
0.104585
0.104639
0.104349
0.0955928
0.104634
0.104598
0.104595
0.10459
0.104587
0.10458
0.104575
0.104572
0.104569
0.104567
0.104565
0.104452
0.104453
0.104454
0.104456
0.104458
0.10446
0.104464
0.104466
0.104469
0.104469
0.104438
0.0966662
0.0999123
0.104463
0.104482
0.104479
0.104474
0.104471
0.104464
0.104459
0.104455
0.104452
0.10445
0.104449
0.104336
0.104337
0.104338
0.10434
0.104343
0.104345
0.104349
0.10435
0.104354
0.104354
0.104303
0.0965674
0.0998059
0.104344
0.104365
0.104363
0.104358
0.104355
0.104348
0.104343
0.104339
0.104336
0.104334
0.104332
0.10422
0.104221
0.104223
0.104225
0.104227
0.104229
0.104234
0.104235
0.104239
0.104238
0.104169
0.0964667
0.0996972
0.104224
0.104248
0.104247
0.104242
0.104239
0.104231
0.104226
0.104222
0.104219
0.104217
0.104215
0.104105
0.104106
0.104107
0.104109
0.104112
0.104114
0.104118
0.10412
0.104123
0.104123
0.104036
0.0963645
0.0995864
0.104104
0.104132
0.10413
0.104125
0.104123
0.104115
0.10411
0.104106
0.104103
0.104101
0.104098
0.103989
0.10399
0.103991
0.103994
0.103996
0.103999
0.104003
0.104005
0.104008
0.104007
0.103905
0.0962613
0.0994742
0.103984
0.104015
0.104014
0.104009
0.104007
0.103999
0.103994
0.103989
0.103986
0.103984
0.103982
0.103873
0.103874
0.103876
0.103878
0.103881
0.103883
0.103888
0.10389
0.103893
0.103891
0.103775
0.0961574
0.0993607
0.103864
0.103899
0.103898
0.103893
0.103891
0.103883
0.103877
0.103873
0.103869
0.103867
0.103865
0.103757
0.103759
0.10376
0.103762
0.103765
0.103768
0.103773
0.103775
0.103778
0.103776
0.103646
0.0960528
0.0992462
0.103743
0.103782
0.103782
0.103777
0.103775
0.103766
0.103761
0.103756
0.103753
0.103751
0.103748
0.103641
0.103643
0.103644
0.103647
0.10365
0.103653
0.103658
0.10366
0.103663
0.10366
0.103516
0.0959478
0.0991319
0.103623
0.103666
0.103666
0.103661
0.103659
0.10365
0.103644
0.10364
0.103636
0.103634
0.103631
0.103526
0.103527
0.103529
0.103531
0.103534
0.103538
0.103543
0.103545
0.103549
0.103545
0.103386
0.0958429
0.0990191
0.103504
0.10355
0.10355
0.103545
0.103543
0.103534
0.103528
0.103523
0.10352
0.103517
0.103515
0.10341
0.103411
0.103413
0.103416
0.103419
0.103422
0.103428
0.10343
0.103434
0.103429
0.103256
0.0957375
0.0989058
0.103385
0.103433
0.103434
0.103429
0.103427
0.103418
0.103412
0.103407
0.103403
0.103401
0.103398
0.103294
0.103296
0.103298
0.1033
0.103303
0.103307
0.103313
0.103315
0.103319
0.103313
0.103127
0.0956319
0.098792
0.103266
0.103317
0.103318
0.103313
0.103311
0.103302
0.103296
0.103291
0.103287
0.103284
0.103282
0.103179
0.10318
0.103182
0.103185
0.103188
0.103192
0.103198
0.1032
0.103204
0.103198
0.102998
0.095526
0.0986778
0.103147
0.103201
0.103202
0.103197
0.103195
0.103186
0.103179
0.103174
0.10317
0.103168
0.103165
0.103063
0.103064
0.103066
0.103069
0.103073
0.103077
0.103083
0.103085
0.103089
0.103082
0.10287
0.09542
0.0985633
0.103027
0.103085
0.103086
0.103081
0.103079
0.10307
0.103063
0.103058
0.103054
0.103051
0.103049
0.102947
0.102949
0.102951
0.102954
0.102957
0.102962
0.102968
0.10297
0.102974
0.102966
0.102743
0.0953138
0.0984486
0.102908
0.102968
0.10297
0.102965
0.102963
0.102954
0.102947
0.102942
0.102937
0.102935
0.102932
0.102831
0.102833
0.102835
0.102838
0.102842
0.102846
0.102853
0.102855
0.102859
0.102851
0.102615
0.0952076
0.0983338
0.102789
0.102852
0.102855
0.102849
0.102847
0.102838
0.10283
0.102825
0.102821
0.102818
0.102816
0.102716
0.102717
0.10272
0.102723
0.102726
0.102731
0.102738
0.102741
0.102745
0.102735
0.102488
0.0951012
0.0982189
0.10267
0.102736
0.102739
0.102733
0.102731
0.102721
0.102714
0.102709
0.102704
0.102702
0.102699
0.1026
0.102602
0.102604
0.102607
0.102611
0.102616
0.102623
0.102626
0.10263
0.102619
0.102361
0.0949947
0.098104
0.102551
0.10262
0.102623
0.102617
0.102615
0.102605
0.102598
0.102592
0.102588
0.102585
0.102582
0.102484
0.102486
0.102488
0.102492
0.102496
0.102501
0.102508
0.102511
0.102515
0.102503
0.102234
0.0948882
0.097989
0.102432
0.102503
0.102507
0.102501
0.102499
0.102489
0.102482
0.102476
0.102471
0.102468
0.102466
0.105713
0.105715
0.105812
0.105607
0.105611
0.105701
0.105501
0.105509
0.105598
0.105392
0.105403
0.105496
0.105278
0.105291
0.10539
0.105155
0.045229
0.0497352
0.105171
0.105276
0.105827
0.105934
0.105827
0.105936
0.105723
0.105715
0.105815
0.105754
0.105809
0.105716
0.105726
0.10581
0.105613
0.105608
0.105701
0.10566
0.105624
0.105691
0.105502
0.105674
0.105612
0.105619
0.105699
0.105503
0.105501
0.105594
0.105554
0.105445
0.105504
0.103736
0.104704
0.105509
0.105513
0.105593
0.105393
0.105392
0.105488
0.105447
0.105369
0.1054
0.104584
0.10395
0.105404
0.105406
0.105487
0.104742
0.104935
0.105291
0.105296
0.105379
0.104653
0.104714
0.105034
0.0610444
0.0453929
0.0749219
0.105039
0.105154
0.1057
0.105752
0.105755
0.10575
0.105686
0.105811
0.105757
0.105681
0.10575
0.105755
0.105749
0.105694
0.105515
0.105611
0.105646
0.105535
0.105265
0.105673
0.10555
0.104768
0.105492
0.105649
0.105564
0.105341
0.105688
0.105571
0.105662
0.105404
0.105439
0.105541
0.105152
0.105209
0.105252
0.105151
0.103943
0.103673
0.105547
0.10519
0.105176
0.105333
0.105199
0.10556
0.105116
0.105164
0.105214
0.105106
0.104928
0.104637
0.105444
0.105208
0.105272
0.105169
0.105201
0.105457
0.105182
0.105167
0.105168
0.105182
0.10472
0.104743
0.105268
0.105228
0.105348
0.105127
0.104971
0.105164
0.105133
0.104466
0.104644
0.105769
0.105759
0.105813
0.105767
0.105803
0.105281
0.105278
0.105378
0.105336
0.105291
0.105328
0.101443
0.100386
0.105172
0.105181
0.105267
0.105807
0.105772
0.105812
0.105756
0.105769
0.105333
0.105365
0.105434
0.0743152
0.0788177
0.0939802
0.0965974
0.0790173
0.0846288
0.100192
0.0985263
0.105334
0.105221
0.10516
0.0969185
0.0985432
0.105151
0.105077
0.105232
0.105875
0.105869
0.105819
0.105817
0.105869
0.105875
0.105763
0.105777
0.105765
0.105806
0.10577
0.105784
0.105572
0.105605
0.104284
0.104335
0.10439
0.104291
0.104728
0.0985146
0.104956
0.102302
0.101567
0.101656
0.102352
0.10469
0.105356
0.105727
0.104659
0.105605
0.104459
0.105719
0.105637
0.10577
0.105779
0.105761
0.10546
0.105717
0.105722
0.105386
0.105369
0.105632
0.105623
0.105086
0.105126
0.10539
0.105625
0.105645
0.105598
0.105618
0.105384
0.10564
0.105679
0.1057
0.105652
0.105672
0.105626
0.105179
0.105181
0.105182
0.105175
0.102944
0.103046
0.105105
0.105521
0.10554
0.105496
0.105515
0.105095
0.10528
0.105572
0.105592
0.105547
0.105566
0.105272
0.0750263
0.105141
0.0816352
0.0768559
0.0874337
0.0819032
0.105148
0.105063
0.0775131
0.105074
0.10485
0.104827
0.105177
0.10547
0.10549
0.105445
0.105464
0.105189
0.0901828
0.0934245
0.105178
0.0921417
0.087798
0.0957773
0.0926173
0.10518
0.0851601
0.08969
0.104735
0.100384
0.101525
0.0987038
0.100171
0.104738
0.0981476
0.0981114
0.098643
0.0583762
0.0987274
0.0978916
0.0660567
0.102295
0.10237
0.105796
0.105165
0.105159
0.105264
0.105219
0.105194
0.105237
0.0728207
0.103941
0.104156
0.105798
0.105242
0.105285
0.105321
0.0680878
0.0691751
0.0360731
0.0975143
0.097241
0.0704873
0.0726966
0.101783
0.102273
0.0319394
0.105838
0.10584
0.105812
0.105809
0.105839
0.105837
0.105655
0.105675
0.105655
0.105519
0.105522
0.105644
0.105467
0.105567
0.105547
0.105594
0.105574
0.105475
0.103994
0.104559
0.104483
0.103945
0.095377
0.094123
0.104681
0.102426
0.102928
0.104747
0.104689
0.0600974
0.105787
0.105776
0.105809
0.105696
0.105606
0.105545
0.105727
0.105734
0.105756
0.105706
0.105727
0.10572
0.105554
0.105621
0.105601
0.105648
0.105627
0.105567
0.105469
0.103108
0.104554
0.102081
0.102307
0.105307
0.104693
0.104845
0.105584
0.104903
0.105261
0.105469
0.105621
0.105629
0.105569
0.105581
0.10536
0.105541
0.105521
0.105423
0.105167
0.10149
0.100752
0.105217
0.101762
0.10202
0.100634
0.100778
0.105154
0.103536
0.103349
0.105151
0.105499
0.105508
0.105454
0.105476
0.105147
0.105312
0.105553
0.105565
0.105511
0.105521
0.105233
0.104896
0.101799
0.102284
0.101414
0.101026
0.104732
0.105284
0.105418
0.105438
0.105392
0.105412
0.105282
0.105178
0.0981887
0.0961267
0.1006
0.0999892
0.105176
0.0793082
0.0803207
0.105152
0.101269
0.10079
0.0780505
0.0790198
0.0969565
0.0957051
0.105782
0.105796
0.105788
0.094215
0.101044
0.094973
0.0956001
0.0953685
0.100908
0.105792
0.105786
0.105801
0.105779
0.105787
0.0746138
0.0762273
0.0694714
0.0684054
0.0952279
0.0740243
0.0732302
0.0763385
0.0742584
0.0955615
0.0803528
0.0814743
0.0995414
0.099257
0.0977332
0.0797076
0.0775082
0.0728788
0.0739799
0.105747
0.105761
0.105774
0.105742
0.105756
0.10574
0.105525
0.105637
0.104051
0.104507
0.104477
0.103973
0.0988301
0.102314
0.101973
0.10268
0.102426
0.0987666
0.101229
0.100977
0.101876
0.1014
0.102045
0.0974954
0.0982931
0.0961172
0.0971097
0.101936
0.0934507
0.0939122
0.105109
0.105696
0.105652
0.105742
0.10571
0.105228
0.105429
0.105352
0.105623
0.105462
0.105735
0.105763
0.105748
0.105724
0.105694
0.105683
0.105621
0.105702
0.105645
0.105713
0.105736
0.105659
0.105705
0.105735
0.105718
0.10569
0.102627
0.102889
0.105445
0.100637
0.0994977
0.103392
0.100829
0.0978508
0.0967221
0.0991519
0.0983856
0.105322
0.10239
0.102563
0.104527
0.104248
0.105314
0.104764
0.103961
0.103696
0.104202
0.104028
0.105594
0.104881
0.104984
0.104947
0.105238
0.105603
0.105616
0.10543
0.105366
0.105585
0.105598
0.101672
0.101615
0.105171
0.0943648
0.094478
0.0897336
0.09378
0.0942651
0.0956148
0.0944009
0.0942445
0.101391
0.101679
0.105207
0.0948254
0.0935179
0.0964846
0.0951973
0.090823
0.0895462
0.0929734
0.091556
0.105159
0.100932
0.101273
0.103235
0.103262
0.105488
0.105496
0.105139
0.105122
0.105479
0.105486
0.105538
0.105549
0.105305
0.105242
0.105524
0.105534
0.0766394
0.0788921
0.101259
0.101849
0.100474
0.101043
0.0771532
0.0852407
0.102609
0.101268
0.102003
0.102464
0.0840419
0.0978138
0.0981385
0.0964171
0.0976869
0.0797044
0.0997037
0.100322
0.0983286
0.0993613
0.0799248
0.101479
0.101698
0.104886
0.100191
0.100735
0.100856
0.100165
0.100783
0.104747
0.100855
0.101237
0.0914488
0.0683857
0.0693001
0.0725058
0.0686769
0.0919181
0.0696875
0.0867425
0.0696475
0.0875123
0.0994428
0.102981
0.102761
0.10325
0.103056
0.0995647
0.0975418
0.0977502
0.0808301
0.0819584
0.0748994
0.0775908
0.0978192
0.0972502
0.10583
0.105838
0.105926
0.105217
0.105117
0.105012
0.105821
0.105822
0.105804
0.1058
0.105821
0.10582
0.105874
0.105871
0.10582
0.105702
0.105682
0.105665
0.105508
0.105296
0.105263
0.103808
0.104655
0.105488
0.105468
0.105386
0.102762
0.102582
0.103946
0.10238
0.102594
0.104944
0.105723
0.10573
0.105709
0.105542
0.105596
0.105698
0.105741
0.105724
0.105739
0.105662
0.105313
0.105518
0.104813
0.105228
0.105188
0.105469
0.10547
0.105475
0.105348
0.105638
0.105646
0.105588
0.105418
0.105514
0.105495
0.101998
0.101695
0.105194
0.103906
0.103043
0.102935
0.10361
0.10518
0.105394
0.105398
0.105326
0.105461
0.105465
0.105401
0.105405
0.105209
0.105044
0.10249
0.102161
0.105145
0.105444
0.105449
0.105254
0.105364
0.105385
0.0650656
0.0648548
0.101757
0.10141
0.105148
0.0655232
0.0652893
0.102972
0.103064
0.104604
0.105771
0.10577
0.0738332
0.0723566
0.0731369
0.0784876
0.0792374
0.0708565
0.0715724
0.0759191
0.0751151
0.0838641
0.0973442
0.0971057
0.0987655
0.081438
0.0800756
0.097953
0.105843
0.105841
0.105811
0.105754
0.105758
0.105763
0.105768
0.105724
0.105731
0.105779
0.105792
0.105785
0.105459
0.105442
0.105548
0.105621
0.105572
0.105542
0.104181
0.104387
0.102948
0.103043
0.104448
0.104166
0.10242
0.1027
0.0991114
0.09914
0.100197
0.10005
0.0985057
0.099244
0.0993581
0.104948
0.102696
0.102979
0.105264
0.104884
0.10541
0.105345
0.10569
0.105659
0.105541
0.103855
0.103638
0.105182
0.104735
0.104115
0.105775
0.105767
0.105749
0.10575
0.105718
0.105736
0.105543
0.105693
0.105712
0.105019
0.1052
0.105656
0.103333
0.103067
0.105045
0.105165
0.105672
0.105679
0.105663
0.105595
0.105655
0.105663
0.105191
0.101673
0.101668
0.102916
0.10312
0.105433
0.105438
0.105288
0.105261
0.105425
0.105429
0.0757855
0.0812757
0.0901195
0.0905465
0.0853134
0.0856463
0.0762663
0.102701
0.102547
0.105054
0.0803141
0.0796076
0.084692
0.0846404
0.0782669
0.0849606
0.0851295
0.0792143
0.0794651
0.105434
0.105439
0.105143
0.105195
0.105425
0.10543
0.0899897
0.101904
0.102108
0.101477
0.101687
0.0892358
0.100892
0.103079
0.103302
0.103211
0.103149
0.101071
0.0990043
0.100614
0.100398
0.0977484
0.0974265
0.098149
0.0653707
0.0673228
0.0674148
0.0665289
0.0992161
0.0842341
0.0821517
0.0858995
0.0847223
0.0976508
0.0920382
0.0923386
0.0985113
0.0992145
0.102533
0.105794
0.105798
0.105789
0.0679336
0.0682355
0.0794463
0.0783883
0.0352404
0.0717728
0.0689664
0.0691344
0.0679398
0.0685066
0.072399
0.0316985
0.0965817
0.0977345
0.105825
0.105822
0.105803
0.10536
0.105329
0.105513
0.105469
0.105552
0.105613
0.105518
0.105538
0.103911
0.104607
0.101427
0.101614
0.101574
0.101399
0.103941
0.102433
0.102313
0.0951001
0.0929918
0.0928841
0.0933653
0.0932824
0.0947459
0.105589
0.10565
0.105656
0.105634
0.105644
0.10557
0.104858
0.10541
0.105146
0.10505
0.105354
0.10548
0.105485
0.10313
0.103127
0.103796
0.103459
0.105387
0.105391
0.105165
0.105451
0.105456
0.105319
0.105222
0.105409
0.105413
0.101371
0.102122
0.101864
0.102277
0.102229
0.101258
0.0646977
0.0647171
0.0661176
0.065768
0.0784067
0.0711634
0.0709327
0.0930715
0.093117
0.0965699
0.0938637
0.0943896
0.092966
0.0933243
0.0961249
0.10578
0.105776
0.105777
0.105779
0.105792
0.105793
0.105799
0.105784
0.105788
0.105788
0.0948277
0.0978961
0.0976963
0.0984748
0.0981714
0.0950458
0.0961606
0.0969828
0.0966079
0.0975398
0.0973393
0.0958129
0.105789
0.105792
0.105787
0.105762
0.105747
0.105781
0.105775
0.0737346
0.0777663
0.0737871
0.0740142
0.0691332
0.0687666
0.0805182
0.0810399
0.073602
0.0705895
0.070382
0.0796233
0.0714847
0.0709568
0.0716004
0.0827572
0.0734647
0.0717252
0.0975654
0.0979406
0.0997962
0.0966139
0.0967033
0.096412
0.0964488
0.0989886
0.0970184
0.0971836
0.0730694
0.0668262
0.0673579
0.0665032
0.066468
0.0733884
0.105753
0.105758
0.105753
0.105726
0.105737
0.105748
0.105344
0.105534
0.105419
0.10539
0.105469
0.105493
0.105413
0.105442
0.104108
0.10444
0.102003
0.102118
0.101741
0.101873
0.10447
0.103074
0.103084
0.102237
0.102262
0.10405
0.102159
0.099509
0.0992209
0.0986262
0.0999331
0.0997812
0.101114
0.0995002
0.099468
0.0999619
0.0996928
0.101044
0.101758
0.100239
0.100393
0.0996475
0.0999547
0.101593
0.0993985
0.0964414
0.0989682
0.098748
0.0932674
0.0934853
0.105055
0.105469
0.105439
0.104997
0.105336
0.105584
0.105515
0.104203
0.104016
0.104947
0.104991
0.105379
0.104635
0.104417
0.105632
0.105672
0.105737
0.105701
0.10558
0.105429
0.105573
0.105671
0.105693
0.105701
0.105664
0.105677
0.105631
0.10558
0.105628
0.10572
0.105704
0.105692
0.105728
0.105711
0.105728
0.105671
0.105681
0.105655
0.105682
0.100382
0.0999051
0.102661
0.0994359
0.0998527
0.0987175
0.101018
0.0974025
0.0970256
0.0988692
0.0986416
0.104383
0.103097
0.103399
0.102545
0.102804
0.104303
0.105247
0.104732
0.104876
0.103562
0.104388
0.105092
0.102831
0.102411
0.103894
0.100763
0.101034
0.100322
0.10054
0.103818
0.104158
0.102144
0.102331
0.101353
0.101723
0.104095
0.105004
0.105207
0.094551
0.0893788
0.0902138
0.0875835
0.0884244
0.0945478
0.0907588
0.0905979
0.0906473
0.0923556
0.0944482
0.0833059
0.0839809
0.0846778
0.0834627
0.0948963
0.0943365
0.0861833
0.0868372
0.0849012
0.0856184
0.0942872
0.0945484
0.094179
0.096229
0.0956614
0.0902033
0.0897058
0.0925344
0.0921962
0.103014
0.10319
0.105296
0.105442
0.105447
0.105416
0.10542
0.105251
0.0764288
0.0884907
0.0894699
0.0805211
0.0761823
0.0863028
0.0873297
0.0820291
0.08113
0.0979109
0.0891576
0.0891588
0.0970714
0.0881381
0.0864832
0.0891006
0.0888474
0.0974728
0.0840813
0.0830145
0.083909
0.0846472
0.0790442
0.0804541
0.0822512
0.101586
0.102978
0.102891
0.103085
0.103033
0.101641
0.100364
0.100609
0.100604
0.100124
0.10008
0.100328
0.100821
0.102421
0.102326
0.102748
0.102575
0.100973
0.0685783
0.0751826
0.0755966
0.0746581
0.0749125
0.0689231
0.071087
0.0786573
0.0797504
0.0763237
0.0774133
0.0696572
0.0695578
0.0693801
0.069562
0.0702986
0.0697553
0.0701501
0.0735454
0.0742795
0.0705387
0.0720635
0.0702954
0.100945
0.100803
0.0992859
0.0975186
0.0979939
0.0652051
0.0662141
0.0759662
0.0685697
0.0672238
0.0705814
0.0699029
0.0769178
0.0666499
0.0664792
0.0925582
0.0926921
0.106073
0.106073
0.106131
0.106072
0.106071
0.106131
0.106071
0.106071
0.106131
0.106072
0.106073
0.106132
0.105956
0.105955
0.106014
0.105954
0.105953
0.106043
0.105951
0.10595
0.106041
0.105949
0.105951
0.106042
0.105953
0.105955
0.106044
0.105957
0.105958
0.106016
0.105842
0.105839
0.105926
0.105837
0.10583
0.105922
0.105889
0.105888
0.105935
0.105884
0.105885
0.105933
0.105892
0.105894
0.105923
0.105841
0.105844
0.105901
0.105728
0.105725
0.10581
0.105779
0.105778
0.105807
0.105798
0.105796
0.105811
0.105772
0.105778
0.105821
0.105729
0.105733
0.105788
0.105617
0.105614
0.105697
0.105667
0.105667
0.105695
0.105686
0.105686
0.1057
0.105663
0.105669
0.105709
0.10562
0.105624
0.105678
0.105505
0.105504
0.105586
0.105558
0.105559
0.105586
0.105581
0.10558
0.105594
0.105561
0.105564
0.105603
0.105513
0.105515
0.105569
0.105394
0.105393
0.105476
0.105449
0.10545
0.105478
0.105474
0.105474
0.105488
0.105457
0.105458
0.105498
0.105405
0.105406
0.10546
0.105281
0.10528
0.105365
0.105364
0.105364
0.105378
0.105349
0.105349
0.10539
0.105294
0.105295
0.10535
0.105167
0.105165
0.105252
0.105232
0.105236
0.105265
0.10518
0.105182
0.105238
0.10505
0.105046
0.105104
0.105046
0.105039
0.105128
0.105095
0.105049
0.105098
0.0549449
0.100803
0.101148
0.10505
0.105065
0.105153
0.105063
0.105068
0.105125
0.104934
0.10493
0.104988
0.10493
0.104921
0.10501
0.104914
0.0764386
0.0761128
0.0878514
0.104914
0.105008
0.104928
0.104946
0.105034
0.104945
0.104951
0.105009
0.104814
0.104808
0.104867
0.104695
0.089276
0.0765198
0.0956187
0.104679
0.104882
0.104813
0.104828
0.104887
0.105713
0.105727
0.105727
0.105728
0.105732
0.105711
0.105811
0.105797
0.105798
0.105607
0.10562
0.10562
0.105624
0.105622
0.105603
0.105704
0.105683
0.105688
0.105501
0.105515
0.105515
0.105522
0.105519
0.1055
0.105596
0.105577
0.105585
0.105392
0.105406
0.105406
0.105417
0.105416
0.105397
0.105494
0.105474
0.105483
0.105305
0.105301
0.105287
0.105384
0.10537
0.105376
0.105114
0.105179
0.105204
0.0351002
0.0738078
0.0736514
0.0858717
0.0860067
0.0317022
0.105272
0.105258
0.105262
0.105822
0.105871
0.105874
0.105806
0.105806
0.105802
0.105934
0.105886
0.105884
0.105805
0.105806
0.105843
0.105842
0.105826
0.105935
0.105887
0.105889
0.105722
0.10575
0.105751
0.105757
0.105749
0.105722
0.105806
0.105777
0.105771
0.105762
0.10576
0.105746
0.105807
0.105799
0.105801
0.105723
0.105764
0.105757
0.105754
0.105754
0.105727
0.105809
0.105781
0.105782
0.105613
0.10564
0.10564
0.105648
0.10564
0.105614
0.105694
0.105667
0.105661
0.10566
0.105673
0.105673
0.105635
0.105652
0.105644
0.105697
0.10569
0.105683
0.105653
0.105629
0.105663
0.105616
0.105655
0.10565
0.105646
0.105647
0.105621
0.1057
0.105673
0.105672
0.105505
0.105532
0.105531
0.105541
0.105533
0.105506
0.105587
0.10556
0.105555
0.105554
0.105567
0.105567
0.105452
0.105527
0.105521
0.10557
0.105562
0.105493
0.105511
0.10555
0.105548
0.10554
0.105542
0.105516
0.105594
0.105568
0.105566
0.105395
0.105423
0.105421
0.105434
0.105425
0.105397
0.105479
0.105452
0.105447
0.105447
0.105461
0.105461
0.105382
0.105461
0.105441
0.105464
0.105458
0.105395
0.104534
0.1032
0.10334
0.105404
0.105444
0.105444
0.105433
0.105436
0.105409
0.105489
0.105463
0.10546
0.104739
0.10332
0.103474
0.104351
0.104373
0.104938
0.105293
0.105321
0.105334
0.105324
0.105326
0.105298
0.105382
0.105354
0.105351
0.104663
0.104037
0.104036
0.104017
0.104024
0.104707
0.105003
0.105033
0.105064
0.0603541
0.104668
0.104592
0.0972674
0.0972076
0.0460153
0.103897
0.103928
0.0734535
0.105069
0.104745
0.104833
0.104969
0.104766
0.105107
0.105708
0.105711
0.105704
0.105759
0.105737
0.10573
0.105741
0.10574
0.105754
0.105743
0.105731
0.10575
0.105803
0.105801
0.105809
0.105755
0.105763
0.105764
0.105686
0.105671
0.105664
0.10575
0.105745
0.105747
0.105754
0.10574
0.105741
0.105742
0.105744
0.105751
0.105701
0.105708
0.105704
0.105527
0.105585
0.105577
0.105636
0.105627
0.105596
0.105633
0.105633
0.105646
0.105516
0.105349
0.105396
0.104833
0.104855
0.105278
0.105427
0.105451
0.105562
0.105649
0.105629
0.105637
0.105552
0.105594
0.105602
0.105669
0.105687
0.105694
0.105609
0.105614
0.105577
0.105675
0.105676
0.105656
0.105408
0.105476
0.10547
0.105514
0.105508
0.105434
0.105528
0.105528
0.105541
0.105157
0.10466
0.104645
0.104812
0.104795
0.105203
0.10524
0.104793
0.104813
0.104637
0.104634
0.105149
0.105545
0.105526
0.105535
0.10538
0.10538
0.105176
0.105573
0.10557
0.105551
0.105125
0.103667
0.103461
0.104507
0.104468
0.105159
0.105219
0.104846
0.104829
0.103398
0.103171
0.105096
0.104918
0.104285
0.104322
0.103497
0.103625
0.104682
0.105442
0.105422
0.10543
0.105218
0.105405
0.10541
0.10537
0.105376
0.105275
0.105161
0.105377
0.105379
0.105415
0.10542
0.105192
0.10547
0.105468
0.105448
0.105181
0.104784
0.104765
0.10486
0.104851
0.105171
0.105172
0.104575
0.104541
0.104745
0.104722
0.105182
0.104726
0.103995
0.104007
0.10352
0.103638
0.104743
0.105263
0.105358
0.105364
0.105337
0.105357
0.105247
0.105362
0.105357
0.105343
0.105106
0.102061
0.101851
0.1011
0.101807
0.105087
0.105161
0.104874
0.104868
0.104579
0.103069
0.103056
0.105768
0.105782
0.105783
0.105782
0.105788
0.105766
0.10581
0.105795
0.10579
0.105801
0.105796
0.105798
0.105322
0.105313
0.105284
0.105369
0.105341
0.105336
0.105336
0.10535
0.10535
0.105307
0.105343
0.105329
0.105371
0.105357
0.105313
0.101311
0.0999684
0.10017
0.0986939
0.098985
0.100579
0.105178
0.105207
0.105217
0.105802
0.1058
0.105805
0.105766
0.105774
0.105778
0.105787
0.105794
0.105817
0.105764
0.105786
0.105779
0.105783
0.105782
0.105768
0.105347
0.105407
0.105384
0.105434
0.105414
0.105352
0.10542
0.10542
0.105434
0.0944519
0.0882305
0.0877112
0.0909805
0.0904359
0.0962445
0.100002
0.0981847
0.0984163
0.105329
0.105315
0.10532
0.105196
0.105309
0.10533
0.105278
0.105301
0.105188
0.0972256
0.0920451
0.0915275
0.0942621
0.0939214
0.0983523
0.10512
0.105249
0.105264
0.105219
0.105234
0.10511
0.105247
0.105243
0.105228
0.105876
0.105849
0.105848
0.105852
0.105851
0.105877
0.105814
0.105842
0.105844
0.105826
0.105825
0.105816
0.105877
0.10585
0.105852
0.105847
0.105849
0.105875
0.105778
0.105764
0.105769
0.10579
0.105797
0.105806
0.105773
0.105777
0.105775
0.105792
0.105791
0.105783
0.103047
0.103255
0.104734
0.104955
0.104474
0.10449
0.102228
0.101267
0.101385
0.100358
0.100525
0.101679
0.102003
0.103314
0.103266
0.103392
0.103356
0.102098
0.104699
0.10403
0.104033
0.105697
0.105724
0.105735
0.105709
0.105617
0.105683
0.105665
0.105723
0.105707
0.105774
0.105769
0.105763
0.105772
0.10577
0.105778
0.105711
0.105705
0.105712
0.105726
0.105721
0.105716
0.105033
0.105065
0.105404
0.105353
0.104978
0.105005
0.105571
0.105588
0.10564
0.105614
0.105538
0.105555
0.105512
0.105519
0.105397
0.105632
0.105626
0.105618
0.10564
0.105633
0.105638
0.105605
0.105597
0.10559
0.105611
0.105604
0.105611
0.105379
0.105501
0.105506
0.105658
0.105664
0.10565
0.105686
0.105683
0.105676
0.105697
0.10569
0.105693
0.105659
0.105655
0.105648
0.105669
0.105662
0.105665
0.105613
0.105644
0.105651
0.104729
0.104723
0.105176
0.105184
0.104743
0.104736
0.104693
0.104707
0.105189
0.105169
0.104669
0.10468
0.105374
0.105377
0.105117
0.105528
0.105518
0.105512
0.105531
0.105525
0.105534
0.105502
0.105494
0.105488
0.105506
0.1055
0.105509
0.105092
0.10537
0.105372
0.105579
0.10557
0.105563
0.105583
0.105576
0.105585
0.105553
0.105544
0.105537
0.105557
0.10555
0.105559
0.104328
0.103738
0.105134
0.0869655
0.0943662
0.0948407
0.0909023
0.0912985
0.0822886
0.105154
0.104422
0.104375
0.105085
0.103069
0.10277
0.104054
0.104104
0.104868
0.104798
0.103905
0.103985
0.105374
0.105373
0.105163
0.105477
0.105469
0.105463
0.105481
0.105475
0.105483
0.105451
0.105444
0.105438
0.105457
0.10545
0.105458
0.105197
0.105375
0.105375
0.0906114
0.0831494
0.0827201
0.0870741
0.0863098
0.0929409
0.104642
0.10461
0.105175
0.0915441
0.097773
0.0981289
0.0952189
0.0956098
0.0881718
0.0944145
0.102609
0.102756
0.102285
0.10245
0.0939241
0.105181
0.104696
0.10467
0.0856144
0.0766565
0.0763325
0.0821845
0.0814081
0.0890788
0.103964
0.10398
0.104731
0.100555
0.101756
0.101632
0.10249
0.102401
0.101387
0.10149
0.101338
0.099934
0.10474
0.10392
0.103943
0.0983168
0.0873388
0.0862505
0.0886008
0.0877567
0.0985093
0.098903
0.0949402
0.0946054
0.102238
0.099408
0.0998318
0.101495
0.1016
0.10243
0.10519
0.105197
0.105167
0.105255
0.105226
0.10522
0.105209
0.105227
0.105213
0.105257
0.105242
0.105223
0.0988009
0.0987062
0.0720634
0.103963
0.102862
0.102858
0.102888
0.102884
0.104015
0.105261
0.105286
0.105271
0.105315
0.1053
0.105267
0.105307
0.105307
0.105321
0.0605248
0.0566199
0.0355562
0.097273
0.0884286
0.0863576
0.0885153
0.0884421
0.097231
0.10213
0.0974096
0.0966338
0.0997243
0.100394
0.102275
0.0318106
0.0668925
0.0759827
0.105838
0.105828
0.105827
0.105831
0.10583
0.10584
0.105807
0.105825
0.105821
0.105814
0.105813
0.105807
0.105839
0.105828
0.10583
0.105826
0.105827
0.105837
0.105667
0.10566
0.105645
0.105668
0.105665
0.105672
0.105651
0.105658
0.105661
0.105653
0.105611
0.105599
0.105541
0.105534
0.105459
0.105561
0.105554
0.105561
0.105541
0.105548
0.105554
0.105587
0.105581
0.105588
0.105568
0.105574
0.105581
0.105483
0.105555
0.105547
0.103092
0.10312
0.104498
0.104036
0.104037
0.104672
0.102823
0.103451
0.103424
0.103494
0.103474
0.102878
0.104729
0.102265
0.101119
0.102183
0.102238
0.104709
0.0598263
0.0923318
0.0919589
0.105785