/*--------------------------------*- C++ -*----------------------------------*\
| =========                 |                                                 |
| \\      /  F ield         | OpenFOAM: The Open Source CFD Toolbox           |
|  \\    /   O peration     | Version:  5.x                                   |
|   \\  /    A nd           | Web:      www.OpenFOAM.org                      |
|    \\/     M anipulation  |                                                 |
\*---------------------------------------------------------------------------*/
FoamFile
{
    version     2.0;
    format      ascii;
    class       volScalarField;
    location    "200";
    object      Y;
}
// * * * * * * * * * * * * * * * * * * * * * * * * * * * * * * * * * * * * * //

dimensions      [0 0 0 0 0 0 0];

internalField   nonuniform List<scalar> 
6584
(
0.00632781
0.00632781
0.00632781
0.00632781
0.00632781
0.00632781
0.00632781
0.00632782
0.00632782
0.00632782
0.00632782
0.00632782
0.00632782
0.00632782
0.00632782
0.00632782
0.00632782
0.00632781
0.00632781
0.00632781
0.00632781
0.00632781
0.00632781
0.00632781
0.00632561
0.00632561
0.00632561
0.00632562
0.00632562
0.00632562
0.00632562
0.00632563
0.00632563
0.00632563
0.00632563
0.00632563
0.00632563
0.00632563
0.00632563
0.00632563
0.00632563
0.00632563
0.00632562
0.00632562
0.00632562
0.00632561
0.00632561
0.00632561
0.00632341
0.00632342
0.00632342
0.00632342
0.00632342
0.00632342
0.00632343
0.00632344
0.00632345
0.00632454
0.00632454
0.00632454
0.00632454
0.00632454
0.00632454
0.00632345
0.00632344
0.00632344
0.00632343
0.00632343
0.00632342
0.00632342
0.00632342
0.00632341
0.00632122
0.00632122
0.00632122
0.00632123
0.00632123
0.00632123
0.00632124
0.00632125
0.00632126
0.00632235
0.00632235
0.00632234
0.00632234
0.00632235
0.00632235
0.00632235
0.00632125
0.00632124
0.00632124
0.00632123
0.00632123
0.00632123
0.00632122
0.00632122
0.00631902
0.00631903
0.00631903
0.00631903
0.00631904
0.00631904
0.00631904
0.00631904
0.00632015
0.00632016
0.00632014
0.00632013
0.00632013
0.00632013
0.00632015
0.00632016
0.00632015
0.00631906
0.00631905
0.00631904
0.00631904
0.00631903
0.00631903
0.00631903
0.00631683
0.00631683
0.00631684
0.00631684
0.00631685
0.00631685
0.00631686
0.00631795
0.00631794
0.00631793
0.00631848
0.00631845
0.00631844
0.00631847
0.00631795
0.00631797
0.00631797
0.00631689
0.00631687
0.00631686
0.00631685
0.00631684
0.00631684
0.00631683
0.00631464
0.00631464
0.00631464
0.00631465
0.00631466
0.00631466
0.00631468
0.00631576
0.00631575
0.00631574
0.00631622
0.00631645
0.00631641
0.0063162
0.0063163
0.0063158
0.0063158
0.00631472
0.00631469
0.00631468
0.00631466
0.00631465
0.00631465
0.00631464
0.00631245
0.00631245
0.00631245
0.00631246
0.00631247
0.00631248
0.00631251
0.00631358
0.00631358
0.00631358
0.00631402
0.00631411
0.0063142
0.00631413
0.00631365
0.00631365
0.00631257
0.00631252
0.0063125
0.00631248
0.00631247
0.00631246
0.00631245
0.00631026
0.00631026
0.00631027
0.00631028
0.00631029
0.00631031
0.00631034
0.00631142
0.00631142
0.00631145
0.00631189
0.00631198
0.00631209
0.00631204
0.00631155
0.00631152
0.00631042
0.00631036
0.00631033
0.0063103
0.00631028
0.00631027
0.00631026
0.00630807
0.00630807
0.00630808
0.00630809
0.00630811
0.00630813
0.00630818
0.00630926
0.00630928
0.00630934
0.00630981
0.00630999
0.00631017
0.00631001
0.00630946
0.0063094
0.00630828
0.0063082
0.00630815
0.00630812
0.0063081
0.00630808
0.00630807
0.00630588
0.00630588
0.00630589
0.00630591
0.00630593
0.00630596
0.00630601
0.0063071
0.00630714
0.00630723
0.00630774
0.006308
0.00630827
0.006308
0.00630739
0.00630728
0.00630613
0.00630604
0.00630598
0.00630594
0.00630592
0.0063059
0.00630588
0.00630369
0.0063037
0.00630371
0.00630373
0.00630375
0.00630379
0.00630384
0.00630494
0.006305
0.0063051
0.00630565
0.00630595
0.0063063
0.00630596
0.00630529
0.00630516
0.00630398
0.00630388
0.00630381
0.00630376
0.00630373
0.00630371
0.00630369
0.0063015
0.00630151
0.00630152
0.00630154
0.00630157
0.00630161
0.00630167
0.00630277
0.00630284
0.00630296
0.00630351
0.00630381
0.00630421
0.00630386
0.00630317
0.00630303
0.00630183
0.00630171
0.00630164
0.00630158
0.00630154
0.00630152
0.0063015
0.00629931
0.00629932
0.00629934
0.00629936
0.00629939
0.00629943
0.0062995
0.00629954
0.00630067
0.00630077
0.0063013
0.00630153
0.00497702
0.00630172
0.00630171
0.00630103
0.00630088
0.00629967
0.00629954
0.00629946
0.0062994
0.00629935
0.00629933
0.00629931
0.00629712
0.00629713
0.00629715
0.00629718
0.00629721
0.00629725
0.00629731
0.00629734
0.00629846
0.00629856
0.00629909
0.00629904
0.00592901
0.00629951
0.00629894
0.00629886
0.00629757
0.00629748
0.00629735
0.00629727
0.00629721
0.00629717
0.00629713
0.00629711
0.00629493
0.00629494
0.00629496
0.00629499
0.00629502
0.00629506
0.00629512
0.00629515
0.00629627
0.00629638
0.00629637
0.00629684
0.00595454
0.00629678
0.00629676
0.00629668
0.0062954
0.00629529
0.00629516
0.00629507
0.00629501
0.00629496
0.00629493
0.00629491
0.00629274
0.00629275
0.00629277
0.0062928
0.00629284
0.00629288
0.00629292
0.00629297
0.00629304
0.00629419
0.00629419
0.00629022
0.00612897
0.00629459
0.00629458
0.0062945
0.00629321
0.0062931
0.00629296
0.00629288
0.00629281
0.00629276
0.00629273
0.0062927
0.00629055
0.00629056
0.00629058
0.00629061
0.00629065
0.00629068
0.00629074
0.00629079
0.00629086
0.00629092
0.00629201
0.00628616
0.00613135
0.0062924
0.0062913
0.00629115
0.00629102
0.00629091
0.00629077
0.00629068
0.00629061
0.00629056
0.00629052
0.00629049
0.00628836
0.00628838
0.0062884
0.00628843
0.00628846
0.00628849
0.00628856
0.00628861
0.00628868
0.00628874
0.00628806
0.00611935
0.00621313
0.00628914
0.00628912
0.00628896
0.00628883
0.00628871
0.00628857
0.00628848
0.00628841
0.00628835
0.00628832
0.00628828
0.00628617
0.00628619
0.00628621
0.00628624
0.00628628
0.00628631
0.00628638
0.00628644
0.00628651
0.00628656
0.00628525
0.00611776
0.00621136
0.00628695
0.00628694
0.00628677
0.00628663
0.00628652
0.00628637
0.00628627
0.0062862
0.00628614
0.00628611
0.00628607
0.00628398
0.006284
0.00628402
0.00628405
0.00628409
0.00628413
0.0062842
0.00628426
0.00628434
0.00628438
0.00628247
0.00611613
0.00620952
0.00628476
0.00628475
0.00628459
0.00628444
0.00628432
0.00628417
0.00628407
0.006284
0.00628394
0.0062839
0.00628386
0.00628179
0.00628181
0.00628183
0.00628187
0.00628191
0.00628195
0.00628202
0.00628209
0.00628217
0.0062822
0.0062797
0.00611446
0.00620762
0.00628257
0.00628257
0.00628241
0.00628225
0.00628213
0.00628197
0.00628187
0.00628179
0.00628173
0.00628169
0.00628165
0.0062796
0.00627962
0.00627964
0.00627968
0.00627972
0.00627976
0.00627984
0.00627991
0.00628
0.00628002
0.00627695
0.00611276
0.00620567
0.00628038
0.00628039
0.00628022
0.00628006
0.00627993
0.00627977
0.00627966
0.00627958
0.00627952
0.00627948
0.00627944
0.00627741
0.00627743
0.00627745
0.00627749
0.00627754
0.00627758
0.00627767
0.00627774
0.00627783
0.00627784
0.00627422
0.00611103
0.0062037
0.0062782
0.00627821
0.00627804
0.00627787
0.00627773
0.00627757
0.00627746
0.00627738
0.00627731
0.00627727
0.00627722
0.00627522
0.00627524
0.00627527
0.00627531
0.00627536
0.0062754
0.00627549
0.00627557
0.00627566
0.00627567
0.00627152
0.00610928
0.00620169
0.00627601
0.00627604
0.00627586
0.00627568
0.00627553
0.00627537
0.00627525
0.00627517
0.0062751
0.00627506
0.00627501
0.00627303
0.00627305
0.00627308
0.00627312
0.00627317
0.00627322
0.00627331
0.00627339
0.00627349
0.00627349
0.00626877
0.00610755
0.00619969
0.00627382
0.00627386
0.00627367
0.00627349
0.00627334
0.00627317
0.00627305
0.00627296
0.00627289
0.00627285
0.0062728
0.00627084
0.00627086
0.00627089
0.00627094
0.00627099
0.00627104
0.00627114
0.00627122
0.00627133
0.00627131
0.00626599
0.00610586
0.00619773
0.00627164
0.00627169
0.0062715
0.0062713
0.00627115
0.00627097
0.00627085
0.00627076
0.00627069
0.00627064
0.00627059
0.00626865
0.00626868
0.00626871
0.00626875
0.00626881
0.00626887
0.00626897
0.00626905
0.00626916
0.00626912
0.00626322
0.00610415
0.00619575
0.00626946
0.00626952
0.00626932
0.00626912
0.00626895
0.00626877
0.00626865
0.00626855
0.00626848
0.00626843
0.00626838
0.00626646
0.00626649
0.00626652
0.00626657
0.00626663
0.00626669
0.00626679
0.00626689
0.006267
0.00626694
0.00626048
0.00610243
0.00619376
0.00626727
0.00626735
0.00626714
0.00626693
0.00626676
0.00626658
0.00626645
0.00626635
0.00626627
0.00626622
0.00626617
0.00626428
0.0062643
0.00626434
0.00626438
0.00626445
0.00626451
0.00626462
0.00626472
0.00626484
0.00626476
0.00625775
0.0061007
0.00619176
0.00626509
0.00626518
0.00626496
0.00626475
0.00626457
0.00626438
0.00626425
0.00626415
0.00626407
0.00626402
0.00626396
0.00626209
0.00626212
0.00626215
0.0062622
0.00626226
0.00626233
0.00626245
0.00626255
0.00626268
0.00626258
0.00625503
0.00609896
0.00618975
0.00626291
0.00626301
0.00626279
0.00626256
0.00626238
0.00626218
0.00626204
0.00626194
0.00626186
0.00626181
0.00626175
0.0062599
0.00625993
0.00625997
0.00626002
0.00626008
0.00626016
0.00626028
0.00626039
0.00626052
0.00626039
0.00625232
0.00609722
0.00618774
0.00626072
0.00626083
0.00626061
0.00626038
0.00626018
0.00625998
0.00625984
0.00625974
0.00625965
0.0062596
0.00625955
0.00625772
0.00625775
0.00625778
0.00625784
0.0062579
0.00625799
0.00625811
0.00625822
0.00625836
0.0062582
0.00624962
0.00609548
0.00618573
0.00625854
0.00625866
0.00625843
0.00625819
0.00625799
0.00625779
0.00625764
0.00625753
0.00625744
0.00625739
0.00625734
0.00625553
0.00625556
0.0062556
0.00625565
0.00625573
0.00625581
0.00625594
0.00625606
0.0062562
0.00625602
0.00624692
0.00609374
0.00618372
0.00625635
0.00625649
0.00625626
0.00625601
0.0062558
0.00625559
0.00625544
0.00625532
0.00625524
0.00625518
0.00625513
0.00625335
0.00625338
0.00625342
0.00625347
0.00625355
0.00625364
0.00625377
0.0062539
0.00625403
0.00625383
0.00624423
0.006092
0.00618171
0.00625417
0.00625432
0.00625408
0.00625382
0.0062536
0.00625339
0.00625324
0.00625312
0.00625303
0.00625297
0.00625292
0.00625116
0.00625119
0.00625124
0.00625129
0.00625137
0.00625147
0.00625161
0.00625173
0.00625188
0.00625164
0.00624153
0.00609026
0.00617971
0.00625198
0.00625215
0.0062519
0.00625164
0.00625141
0.00625119
0.00625103
0.00625091
0.00625082
0.00625076
0.0062507
0.00631224
0.00631232
0.00631414
0.00631024
0.0063104
0.00631207
0.00630825
0.00630851
0.00631017
0.00630621
0.00630656
0.00630827
0.00630408
0.00630449
0.0063063
0.00630181
0.00494757
0.00493224
0.0063023
0.00630422
0.0063144
0.00631641
0.00631442
0.00631646
0.00631241
0.00631227
0.00631417
0.00631305
0.00631407
0.00631234
0.00631252
0.00631409
0.00631033
0.00631025
0.00631202
0.00631123
0.00630975
0.00631167
0.00630577
0.00631121
0.00631041
0.0063105
0.00631201
0.00630826
0.00630825
0.00631
0.00630924
0.00630437
0.00630556
0.00624592
0.00627854
0.00630851
0.00630851
0.00631
0.00630618
0.0063062
0.006308
0.00630724
0.00630416
0.00630416
0.00628818
0.00626083
0.00630655
0.00630649
0.00630801
0.00630135
0.0063013
0.00630448
0.00630442
0.00630598
0.00630209
0.00630233
0.00629959
0.00528436
0.00494963
0.00563938
0.00630003
0.00630201
0.00631188
0.00631297
0.00631302
0.00631293
0.00631127
0.00631408
0.00631306
0.00631141
0.00631298
0.00631307
0.00631296
0.00631184
0.00630591
0.00630931
0.00631098
0.00630539
0.006293
0.0063108
0.00630605
0.00628089
0.00630549
0.00631111
0.00630819
0.00630149
0.0063117
0.00630839
0.00631135
0.00630415
0.00630432
0.006309
0.00629106
0.00629576
0.00629253
0.00629083
0.00625986
0.0062442
0.00630922
0.00629783
0.00629917
0.00630132
0.00629803
0.00630946
0.00629325
0.00629672
0.00629609
0.00629264
0.00630098
0.00628982
0.0063073
0.00630283
0.00630469
0.00629925
0.0063026
0.00630755
0.00629932
0.00630013
0.00629711
0.00629913
0.00630231
0.00630157
0.00630469
0.00630445
0.00630554
0.00630021
0.00629752
0.00630019
0.00630026
0.00630116
0.00630201
0.00631329
0.00631311
0.00631413
0.00631322
0.00631396
0.00630405
0.00630407
0.00630594
0.00630516
0.0063037
0.00630403
0.00622667
0.00618653
0.00630229
0.00630229
0.00630389
0.00631401
0.0063133
0.00631413
0.00631309
0.00631333
0.00630406
0.00630415
0.00630698
0.00509091
0.0052977
0.00592949
0.00602979
0.00530921
0.00554713
0.00617892
0.0061098
0.00630528
0.00630438
0.0063038
0.00604172
0.00610281
0.00630369
0.00630288
0.00630341
0.00631531
0.00631519
0.00631424
0.00631423
0.00631519
0.00631531
0.00631309
0.00631348
0.00631321
0.00631401
0.00631331
0.00631362
0.00630785
0.00630905
0.00626541
0.00626693
0.00627871
0.00627546
0.00630048
0.00610457
0.00630277
0.00625772
0.00623123
0.00623265
0.0062578
0.0063023
0.00629278
0.00631245
0.00625358
0.00630599
0.00624212
0.00631224
0.00630752
0.00631325
0.00631349
0.0063129
0.00629833
0.00631231
0.00631241
0.00629817
0.00629739
0.00630938
0.00630904
0.00629126
0.00629254
0.00630241
0.00631065
0.00631103
0.00631015
0.00631052
0.0063023
0.00631039
0.00631167
0.00631205
0.00631116
0.00631154
0.00630994
0.00629343
0.00629369
0.00629059
0.00629047
0.00622217
0.0062254
0.00629592
0.00630876
0.0063091
0.0063083
0.00630864
0.00629582
0.00630018
0.00630967
0.00631003
0.00630921
0.00630956
0.0063
0.00511779
0.00629491
0.00537849
0.00516125
0.00562653
0.00539242
0.0062954
0.00629001
0.00518856
0.00629067
0.0062976
0.00629683
0.00630079
0.00630785
0.00630819
0.00630738
0.00630773
0.00630118
0.00577704
0.00590799
0.00629813
0.00582215
0.00564291
0.00597191
0.00584206
0.00629841
0.0055702
0.00575657
0.00630213
0.00618453
0.00622782
0.00611344
0.0061761
0.00630203
0.0060934
0.00609902
0.00611987
0.00518266
0.00610985
0.00609056
0.00530215
0.00625881
0.00626015
0.00631381
0.00630188
0.00630182
0.0063038
0.00630299
0.00630242
0.00630317
0.00556136
0.00629733
0.00629998
0.00631383
0.00630306
0.00630364
0.00630489
0.00514755
0.00518827
0.00478343
0.00609146
0.00608806
0.00523013
0.00530489
0.00624836
0.00625846
0.00433759
0.00631459
0.00631464
0.0063141
0.00631407
0.00631464
0.0063146
0.00631071
0.00631152
0.00631113
0.00630613
0.00630485
0.00631027
0.00630468
0.00630949
0.00630912
0.00630998
0.00630961
0.00630484
0.00625542
0.00627411
0.00628412
0.00626314
0.00601031
0.00596014
0.00630226
0.00626046
0.00627734
0.00629248
0.00629173
0.00525712
0.00631363
0.00631341
0.00631406
0.0063118
0.00630809
0.00630568
0.00631255
0.00631269
0.0063131
0.00631218
0.00631256
0.0063124
0.00630721
0.00631049
0.0063101
0.006311
0.00631061
0.0063077
0.00630217
0.00616059
0.00624835
0.00610668
0.00611749
0.00629467
0.00625684
0.00626561
0.0063075
0.00628508
0.00629716
0.00630492
0.00631037
0.00631053
0.00630927
0.00630952
0.00630184
0.006309
0.00630864
0.00630421
0.00629227
0.00611111
0.00606946
0.0062914
0.00609388
0.00610428
0.00606155
0.00606199
0.00629036
0.0062449
0.00623301
0.00629672
0.00630806
0.0063082
0.0063072
0.00630773
0.00629791
0.00630089
0.00630897
0.00630919
0.00630825
0.0063084
0.00629901
0.00629976
0.00622232
0.00623928
0.00619994
0.00619025
0.00629326
0.00630462
0.00630691
0.00630727
0.00630642
0.00630679
0.00630465
0.00629978
0.00607092
0.00598637
0.00615829
0.00613341
0.00629989
0.0055518
0.00559218
0.0063003
0.00618545
0.00616588
0.00549749
0.00553924
0.00607201
0.00602354
0.00631356
0.00631381
0.00631366
0.00594869
0.00621174
0.00597197
0.00600105
0.0059879
0.00620654
0.00631373
0.00631357
0.00631389
0.00631335
0.00631363
0.00511325
0.00518302
0.00516757
0.00515199
0.00597794
0.00530629
0.00526852
0.00539134
0.00531736
0.00599086
0.00537211
0.00541846
0.00615279
0.00614116
0.00607203
0.00550625
0.00543021
0.00531358
0.00535682
0.00631267
0.00631316
0.00631342
0.00631273
0.00631307
0.00631246
0.00630629
0.00631007
0.00625707
0.00627254
0.00628317
0.00626479
0.00611658
0.00624759
0.00623527
0.0062607
0.00625149
0.00611428
0.00620744
0.00619611
0.00623146
0.00621391
0.00624849
0.0060818
0.0061147
0.00602319
0.00606589
0.00624457
0.00593385
0.00593998
0.00627927
0.00631084
0.00630897
0.00631259
0.00631138
0.00628598
0.0062975
0.0062937
0.00630755
0.00629917
0.00631207
0.00631317
0.00631278
0.00631144
0.00631009
0.00631102
0.00630859
0.00631193
0.00630938
0.0063119
0.00631259
0.00630987
0.00631161
0.00631268
0.00631214
0.00631124
0.0061337
0.00614774
0.00630096
0.00600485
0.00593958
0.00617483
0.00601793
0.00584973
0.00579555
0.00591984
0.00587524
0.00629532
0.00612179
0.00613041
0.00624487
0.00622863
0.00629172
0.00625911
0.00621081
0.00619364
0.00622597
0.00621514
0.00630791
0.00626758
0.00627309
0.00628648
0.00629644
0.00630997
0.00631027
0.00630359
0.00630197
0.00630961
0.00630988
0.00612479
0.00611854
0.00629261
0.00580164
0.00581122
0.00558094
0.00577362
0.00580568
0.00587003
0.00580882
0.00580405
0.00608158
0.00609102
0.00629112
0.00572073
0.00567834
0.00578502
0.00573412
0.00559791
0.00556418
0.0056611
0.00562082
0.00629041
0.00606728
0.00607767
0.00623447
0.00623032
0.0063079
0.00630802
0.00629646
0.00629705
0.00630776
0.00630785
0.00630869
0.00630889
0.00630073
0.00629921
0.00630846
0.00630863
0.00517107
0.00525726
0.00613251
0.00615884
0.00609696
0.00612292
0.00518167
0.00553487
0.00619329
0.00614447
0.00616592
0.00618678
0.00548573
0.00597203
0.00599022
0.0059064
0.00596512
0.00527216
0.00606106
0.00608963
0.00599955
0.00604587
0.00527688
0.00620782
0.00621821
0.0062993
0.00616393
0.00618432
0.00619082
0.00616318
0.00618399
0.0062941
0.00618391
0.00619894
0.00582997
0.00509081
0.00510191
0.00524131
0.00510678
0.0058489
0.00516914
0.0056382
0.00510817
0.00566929
0.00614567
0.00627126
0.00626356
0.00628055
0.00627387
0.00615116
0.00606597
0.00607458
0.00561003
0.00565169
0.00538772
0.00547945
0.00610675
0.0060835
0.00631448
0.00631462
0.00631626
0.00630314
0.00630273
0.00630185
0.00631427
0.00631431
0.00631397
0.0063139
0.00631429
0.00631427
0.00631529
0.00631524
0.00631429
0.00631204
0.00631165
0.00631098
0.0063059
0.00629774
0.00629662
0.00624836
0.00627702
0.00630802
0.00630766
0.00630415
0.00622519
0.00621958
0.00626148
0.00624304
0.00625177
0.00630206
0.0063124
0.00631256
0.00631217
0.00630398
0.0063065
0.00631164
0.00631276
0.00631233
0.00631276
0.00631052
0.00629155
0.00630285
0.00628229
0.00629545
0.00629392
0.0063047
0.00630599
0.00630608
0.00630161
0.00631074
0.00631092
0.00630879
0.00630418
0.00630851
0.00630815
0.00614729
0.00613089
0.00629478
0.00625798
0.00623259
0.00623054
0.00624247
0.00629762
0.00630472
0.00630477
0.00630117
0.0063058
0.00630589
0.00630481
0.00630487
0.0062983
0.00628876
0.00617227
0.00615547
0.00629945
0.00630706
0.00630713
0.00630463
0.00630592
0.00630629
0.00519779
0.00519923
0.00620601
0.00619125
0.0063003
0.00519564
0.00519661
0.00627895
0.00628256
0.00630173
0.00631331
0.00631324
0.00507227
0.00505637
0.00508132
0.00528093
0.00532154
0.00500786
0.00503098
0.00522954
0.00519429
0.00551524
0.00606103
0.00605194
0.00612028
0.00557112
0.00552038
0.00608036
0.00631471
0.00631466
0.00631411
0.00631281
0.00631299
0.00631316
0.00631329
0.00631202
0.00631225
0.00631351
0.00631376
0.00631362
0.00630339
0.00630283
0.006307
0.0063096
0.00630762
0.00630655
0.00626142
0.00626846
0.0062377
0.00624169
0.0062808
0.00627142
0.00622039
0.00622951
0.00612748
0.0061288
0.00617417
0.00616791
0.00610364
0.00613247
0.00613668
0.00630227
0.00625528
0.00626497
0.00628781
0.00626618
0.00629612
0.00629261
0.00631021
0.00630877
0.00630273
0.00620345
0.00618968
0.00628357
0.00625786
0.00622126
0.0063134
0.00631325
0.00631259
0.00631249
0.00631103
0.00631181
0.00630267
0.00631083
0.00631157
0.00627492
0.00628505
0.00631028
0.00617157
0.00615516
0.00628996
0.0062938
0.00631147
0.00631163
0.00631102
0.00630895
0.0063111
0.00631128
0.00629451
0.00612888
0.00612563
0.0062221
0.006227
0.00630532
0.00630539
0.00630035
0.00629969
0.00630517
0.00630525
0.00514551
0.00536076
0.00570674
0.00572548
0.00550477
0.00552083
0.00513772
0.00618424
0.00617543
0.00628939
0.0052824
0.0052536
0.00544208
0.00544274
0.00521814
0.00548561
0.00549471
0.00523584
0.00524598
0.00630692
0.00630699
0.00629962
0.00630185
0.00630678
0.00630685
0.0057353
0.00617306
0.00618206
0.00615408
0.00616355
0.00570468
0.0062043
0.00627673
0.00628235
0.00628135
0.00627917
0.00621099
0.00612657
0.00619078
0.00618224
0.00607579
0.00606393
0.00609099
0.0052631
0.00528598
0.0052942
0.00519395
0.00612863
0.00566947
0.00559608
0.00573364
0.00568778
0.00608134
0.00592882
0.00593534
0.00612361
0.00615139
0.00626608
0.00631375
0.00631383
0.00631363
0.00514745
0.00515842
0.00559836
0.00558953
0.00473981
0.00527118
0.0051929
0.00519395
0.00516984
0.00518287
0.00529287
0.0043536
0.00608795
0.0061059
0.00631436
0.00631432
0.00631395
0.00629987
0.00629882
0.00630601
0.00630285
0.00630631
0.00630872
0.00630519
0.00630584
0.00625227
0.00627555
0.00619727
0.00620353
0.00620357
0.00619689
0.00626217
0.0062154
0.00621275
0.00599883
0.00592998
0.00592771
0.00593679
0.00593708
0.00598444
0.00630749
0.00631002
0.00631018
0.00630954
0.00630987
0.00630683
0.00628367
0.0063026
0.00629254
0.00628914
0.00630173
0.00630617
0.00630628
0.00623235
0.00623365
0.00625389
0.00623694
0.00630463
0.00630467
0.00629713
0.00630563
0.00630571
0.00630103
0.00629869
0.00630492
0.00630498
0.0062007
0.00622213
0.00621331
0.00622936
0.00622667
0.00619876
0.0052017
0.00520816
0.00519696
0.00519532
0.00551248
0.00531838
0.00530593
0.00594258
0.00594239
0.0060571
0.00596614
0.0059857
0.00593202
0.00594606
0.00603995
0.00631349
0.0063134
0.00631346
0.00631345
0.00631374
0.00631377
0.00631387
0.00631358
0.00631365
0.00631364
0.00596667
0.00609336
0.00608479
0.00611704
0.00610474
0.00597697
0.00601864
0.00605375
0.00603741
0.00607781
0.00606898
0.0060057
0.00631366
0.00631372
0.00631362
0.0063128
0.00631224
0.00631345
0.0063133
0.0050724
0.00524841
0.00510088
0.00510334
0.0051629
0.00515744
0.0054854
0.00550657
0.00528468
0.00500525
0.00499341
0.00534028
0.00507336
0.00506313
0.00506902
0.00547039
0.00512671
0.00505479
0.00607355
0.00608961
0.00616307
0.00603675
0.00603963
0.00602913
0.00603041
0.00612994
0.0060491
0.00605688
0.00532265
0.00514607
0.0051569
0.00515021
0.00514149
0.00533566
0.00631294
0.00631305
0.00631284
0.00631196
0.00631241
0.0063128
0.00629877
0.00630654
0.00630204
0.00630096
0.00630329
0.00630414
0.00630133
0.00630237
0.00625877
0.00627006
0.00621091
0.00621315
0.00620599
0.00620856
0.00628215
0.00624374
0.00624514
0.00621209
0.00621489
0.00626757
0.00621319
0.00614442
0.00613206
0.00610851
0.00616266
0.00615594
0.00620273
0.00614087
0.00613954
0.00615968
0.00614884
0.00619941
0.00622692
0.00617129
0.00617795
0.00614696
0.00615965
0.00622089
0.00613769
0.00603736
0.00613695
0.00612806
0.00592294
0.00592726
0.00627621
0.0062991
0.00629762
0.00627272
0.00629174
0.00630494
0.00630145
0.00622592
0.00621395
0.00627051
0.00627305
0.00629505
0.00625169
0.00623895
0.00630696
0.00630887
0.00631199
0.00631018
0.00630448
0.00629675
0.00630407
0.00631061
0.00631148
0.00631173
0.00631045
0.00631089
0.00630894
0.00630659
0.00630879
0.00631211
0.00631143
0.00631098
0.00631228
0.00631164
0.00631233
0.0063103
0.00631057
0.00630957
0.00631074
0.00598831
0.00596237
0.00613059
0.00593112
0.00595426
0.00588393
0.00602983
0.00582802
0.00580995
0.00590319
0.00588975
0.0062364
0.00615631
0.00617469
0.0061204
0.00613759
0.00623176
0.00628798
0.0062575
0.00626623
0.00618518
0.00623658
0.00627891
0.00614014
0.00611163
0.00620642
0.00600868
0.00602601
0.00597973
0.00599397
0.00620146
0.00622329
0.00609257
0.00610542
0.00604575
0.00606799
0.00621939
0.00628865
0.00629543
0.00581192
0.00560683
0.00563655
0.00554233
0.00557271
0.00581312
0.00563408
0.00564839
0.00564528
0.00570803
0.00581576
0.00538157
0.00540882
0.00543809
0.00538771
0.00583705
0.00580681
0.00549114
0.00551522
0.00544323
0.00546992
0.00580536
0.00571185
0.00570035
0.00577431
0.00575196
0.00557905
0.00556454
0.00564844
0.00564011
0.00622665
0.00622859
0.00630052
0.00630547
0.00630555
0.00630504
0.00630511
0.0062994
0.00516761
0.00563953
0.00567953
0.00532681
0.0051374
0.00554939
0.00559208
0.00534642
0.00531318
0.00597765
0.00562974
0.00562933
0.00593605
0.00558287
0.00551392
0.00562625
0.00561379
0.00595452
0.00542214
0.00538262
0.00543738
0.00547018
0.0052481
0.00529051
0.00536743
0.00621249
0.00625464
0.00625128
0.00625954
0.00625717
0.00621535
0.0061707
0.00618022
0.0061809
0.00616344
0.00616331
0.00617009
0.00618309
0.00623576
0.00623198
0.00624655
0.00624096
0.00618931
0.00509042
0.00527884
0.00529824
0.00524995
0.00526423
0.00509544
0.00519291
0.00541522
0.00545586
0.00532781
0.00536915
0.00514475
0.00516228
0.00503042
0.00504362
0.00504824
0.00503651
0.00511146
0.00520044
0.00523136
0.0050857
0.00514378
0.00510424
0.00620377
0.00619816
0.00613868
0.00606544
0.00608483
0.00522537
0.00525527
0.0054231
0.00522272
0.00518047
0.00529013
0.00526541
0.00545527
0.00519989
0.0051993
0.00593487
0.00593499
0.00631904
0.00631903
0.00632014
0.00631901
0.00631901
0.00632013
0.00631901
0.00631901
0.00632013
0.00631902
0.00631904
0.00632014
0.00631683
0.00631681
0.00631792
0.00631678
0.00631676
0.00631847
0.00631674
0.00631671
0.00631844
0.00631671
0.00631675
0.00631845
0.00631678
0.00631681
0.00631848
0.00631685
0.00631687
0.00631795
0.00631465
0.0063146
0.00631625
0.00631456
0.00631445
0.00631619
0.00631556
0.00631554
0.00631644
0.00631547
0.0063155
0.00631641
0.00631563
0.00631566
0.00631621
0.00631467
0.00631472
0.00631579
0.00631251
0.00631245
0.00631406
0.00631348
0.00631346
0.006314
0.00631383
0.00631381
0.00631409
0.00631338
0.0063135
0.0063143
0.00631255
0.00631262
0.00631367
0.0063104
0.00631035
0.00631192
0.00631136
0.00631136
0.00631188
0.00631173
0.00631173
0.00631198
0.00631136
0.00631145
0.0063122
0.00631052
0.00631056
0.00631159
0.00630829
0.00630827
0.00630983
0.00630929
0.00630931
0.00630983
0.00630974
0.00630974
0.00630999
0.00630946
0.00630949
0.00631022
0.0063085
0.0063085
0.00630953
0.00630617
0.00630618
0.00630775
0.00630722
0.00630726
0.00630777
0.00630774
0.00630776
0.00630801
0.00630754
0.00630752
0.00630827
0.00630647
0.00630643
0.00630747
0.00630403
0.00630405
0.00630565
0.00630568
0.0063057
0.00630596
0.00630553
0.00630547
0.00630624
0.00630439
0.00630434
0.00630539
0.00630187
0.00630188
0.00630351
0.0063034
0.0063034
0.00630393
0.00630225
0.00630221
0.00630328
0.00629965
0.00629962
0.00630072
0.00629964
0.0062996
0.00630125
0.00630069
0.00629981
0.00630066
0.00511669
0.00622613
0.00623283
0.00630007
0.00630011
0.00630175
0.00630004
0.00630006
0.00630114
0.00629747
0.00629744
0.00629853
0.00629747
0.00629741
0.00629905
0.00629739
0.00563613
0.00562463
0.00594905
0.00629779
0.00629947
0.00629785
0.00629792
0.00629954
0.00629785
0.00629786
0.00629896
0.00629528
0.00629525
0.00629635
0.00629273
0.0059429
0.00563936
0.00612771
0.00629524
0.00629722
0.00629568
0.00629573
0.00629682
0.00631224
0.00631249
0.0063125
0.00631256
0.00631265
0.00631225
0.00631412
0.00631385
0.00631387
0.00631024
0.00631048
0.00631048
0.00631064
0.00631062
0.00631026
0.00631212
0.00631174
0.00631183
0.00630826
0.00630851
0.0063085
0.00630875
0.00630875
0.0063084
0.00631014
0.00630979
0.00630993
0.00630622
0.00630648
0.00630647
0.00630681
0.00630685
0.00630649
0.00630828
0.00630793
0.00630803
0.00630475
0.00630471
0.00630445
0.00630624
0.00630599
0.00630605
0.00630094
0.00630216
0.00630271
0.00473489
0.00549891
0.00550394
0.00583432
0.00583596
0.00436291
0.00630418
0.00630392
0.00630395
0.00631429
0.00631523
0.00631527
0.006314
0.006314
0.00631391
0.00631641
0.0063155
0.00631547
0.00631398
0.006314
0.00631471
0.00631469
0.0063144
0.00631645
0.00631555
0.00631557
0.0063124
0.00631293
0.00631294
0.00631307
0.00631291
0.00631239
0.00631398
0.00631344
0.00631334
0.00631319
0.00631315
0.00631287
0.00631404
0.00631388
0.00631392
0.00631246
0.00631323
0.00631311
0.00631303
0.00631304
0.00631253
0.00631407
0.00631355
0.00631356
0.00631034
0.00631085
0.00631084
0.006311
0.00631085
0.00631035
0.00631188
0.00631136
0.00631125
0.00631123
0.00631148
0.00631148
0.0063101
0.00631092
0.00631073
0.0063119
0.00631175
0.00631145
0.00631039
0.0063095
0.00631088
0.00631047
0.0063112
0.00631112
0.006311
0.00631103
0.00631054
0.00631202
0.00631153
0.0063115
0.00630829
0.0063088
0.00630878
0.006309
0.00630883
0.00630832
0.00630984
0.00630933
0.00630925
0.00630925
0.0063095
0.00630949
0.00630446
0.00630809
0.00630797
0.00630889
0.00630873
0.00630526
0.00630852
0.00630925
0.00630922
0.00630901
0.00630906
0.00630857
0.00631005
0.00630956
0.00630951
0.00630621
0.00630674
0.0063067
0.00630698
0.00630677
0.00630625
0.0063078
0.00630729
0.00630724
0.00630725
0.0063075
0.00630749
0.00630415
0.00630753
0.00630716
0.00630708
0.00630698
0.00630415
0.00628657
0.00625162
0.00625614
0.00630651
0.00630727
0.00630729
0.006307
0.00630707
0.00630656
0.00630807
0.00630757
0.00630751
0.00630109
0.00627685
0.00628228
0.006292
0.00629295
0.00630158
0.00630446
0.00630498
0.00630527
0.00630495
0.00630501
0.00630448
0.00630605
0.00630553
0.00630547
0.00630216
0.00629935
0.00629949
0.00629765
0.00629806
0.00630233
0.00629905
0.00629952
0.00630014
0.00526409
0.00629142
0.00629032
0.00608996
0.00609286
0.00496365
0.00629648
0.00629711
0.00558322
0.00630058
0.00630024
0.00629961
0.00630156
0.00630052
0.00630116
0.00631207
0.00631219
0.00631205
0.0063131
0.00631269
0.00631255
0.00631276
0.00631275
0.00631301
0.00631278
0.00631235
0.00631289
0.00631393
0.0063139
0.00631406
0.00631301
0.00631317
0.0063132
0.00631156
0.00631098
0.00631078
0.00631296
0.00631288
0.00631291
0.00631305
0.00631279
0.00631281
0.00631283
0.00631287
0.006313
0.00631206
0.00631219
0.00631207
0.00630631
0.00630926
0.00630907
0.00631053
0.00631032
0.00630877
0.00631073
0.00631073
0.00631098
0.00630452
0.00629535
0.00629783
0.00626904
0.00626989
0.0062935
0.00629944
0.00630057
0.00630659
0.00631111
0.00631075
0.00631088
0.00630782
0.00630938
0.0063096
0.00631118
0.00631178
0.00631192
0.00630976
0.00630989
0.00630853
0.00631159
0.00631161
0.00631124
0.00630415
0.00630726
0.00630717
0.00630787
0.00630776
0.00630428
0.00630875
0.00630876
0.006309
0.00629149
0.00626729
0.00626621
0.00627783
0.00627691
0.00629541
0.00629212
0.00626759
0.00626828
0.00626543
0.0062649
0.00629055
0.00630921
0.00630886
0.00630899
0.00630513
0.00630507
0.00629899
0.0063097
0.00630967
0.00630933
0.00629383
0.00623107
0.00622118
0.00626915
0.00626713