/*--------------------------------*- C++ -*----------------------------------*\
| =========                 |                                                 |
| \\      /  F ield         | OpenFOAM: The Open Source CFD Toolbox           |
|  \\    /   O peration     | Version:  5.x                                   |
|   \\  /    A nd           | Web:      www.OpenFOAM.org                      |
|    \\/     M anipulation  |                                                 |
\*---------------------------------------------------------------------------*/
FoamFile
{
    version     2.0;
    format      ascii;
    class       volScalarField;
    location    "200";
    object      YSat;
}
// * * * * * * * * * * * * * * * * * * * * * * * * * * * * * * * * * * * * * //

dimensions      [0 0 0 0 0 0 0];

internalField   nonuniform List<scalar> 
6584
(
0.00431405
0.00431405
0.00431405
0.00431405
0.00431405
0.00431405
0.00431405
0.00431405
0.00431405
0.00431405
0.00431405
0.00431405
0.00431405
0.00431405
0.00431405
0.00431405
0.00431405
0.00431405
0.00431405
0.00431405
0.00431405
0.00431405
0.00431405
0.00431405
0.00431405
0.00431405
0.00431405
0.00431405
0.00431405
0.00431405
0.00431405
0.00431405
0.00431405
0.00431405
0.00431405
0.00431405
0.00431405
0.00431405
0.00431405
0.00431405
0.00431405
0.00431405
0.00431405
0.00431405
0.00431405
0.00431405
0.00431405
0.00431405
0.00431405
0.00431405
0.00431405
0.00431405
0.00431405
0.00431405
0.00431405
0.00431405
0.00431405
0.00431405
0.00431405
0.00431405
0.00431405
0.00431405
0.00431405
0.00431405
0.00431405
0.00431405
0.00431405
0.00431405
0.00431405
0.00431405
0.00431405
0.00431405
0.00431405
0.00431405
0.00431405
0.00431405
0.00431405
0.00431405
0.00431405
0.00431405
0.00431405
0.00431405
0.00431405
0.00431405
0.00431405
0.00431405
0.00431405
0.00431405
0.00431405
0.00431405
0.00431405
0.00431405
0.00431405
0.00431405
0.00431405
0.00431405
0.00431405
0.00431405
0.00431405
0.00431405
0.00431405
0.00431405
0.00431405
0.00431405
0.00431405
0.00431405
0.00431405
0.00431405
0.00431405
0.00431405
0.00431405
0.00431405
0.00431405
0.00431405
0.00431405
0.00431405
0.00431405
0.00431405
0.00431405
0.00431405
0.00431405
0.00431405
0.00431405
0.00431405
0.00431405
0.00431405
0.00431405
0.00431405
0.00431405
0.00431405
0.00431405
0.00431405
0.00431405
0.00431405
0.00431405
0.00431405
0.00431405
0.00431405
0.00431405
0.00431405
0.00431405
0.00431405
0.00431405
0.00431405
0.00431405
0.00431405
0.00431405
0.00431405
0.00431405
0.00431405
0.00431405
0.00431405
0.00431405
0.00431405
0.00431405
0.00431405
0.00431405
0.00431405
0.00431405
0.00431405
0.00431405
0.00431405
0.00431405
0.00431405
0.00431405
0.00431405
0.00431405
0.00431405
0.00431405
0.00431405
0.00431405
0.00431405
0.00431405
0.00431405
0.00431405
0.00431405
0.00431405
0.00431405
0.00431405
0.00431405
0.00431405
0.00431405
0.00431405
0.00431405
0.00431405
0.00431405
0.00431405
0.00431405
0.00431405
0.00431405
0.00431405
0.00431405
0.00431405
0.00431405
0.00431405
0.00431405
0.00431405
0.00431405
0.00431405
0.00431405
0.00431405
0.00431405
0.00431405
0.00431405
0.00431405
0.00431405
0.00431405
0.00431405
0.00431405
0.00431405
0.00431405
0.00431405
0.00431405
0.00431405
0.00431405
0.00431405
0.00431405
0.00431405
0.00431405
0.00431405
0.00431405
0.00431405
0.00431405
0.00431405
0.00431405
0.00431405
0.00431405
0.00431405
0.00431405
0.00431405
0.00431405
0.00431405
0.00431405
0.00431405
0.00431405
0.00431405
0.00431405
0.00431405
0.00431405
0.00431405
0.00431405
0.00431405
0.00431405
0.00431405
0.00431405
0.00431405
0.00431405
0.00431405
0.00431405
0.00431405
0.00431405
0.00431405
0.00431405
0.00431405
0.00431405
0.00431405
0.00431405
0.00431405
0.00431405
0.00431405
0.00431405
0.00431405
0.00431405
0.00431405
0.00431405
0.00431405
0.00431405
0.00431405
0.00431405
0.00431405
0.00431405
0.00431405
0.00431405
0.00431405
0.00431405
0.00431405
0.00431405
0.00431405
0.00431405
0.00431405
0.00431405
0.00431405
0.00431405
0.00431405
0.00431405
0.00431405
0.00431405
0.00431405
0.00431405
0.00431405
0.00431405
0.00431405
0.00431405
0.00431405
0.00431405
0.00431405
0.00431405
0.00431405
0.00431405
0.00431405
0.00431405
0.00431405
0.00431405
0.00431405
0.00431405
0.00431405
0.00431405
0.00431405
0.00431405
0.00431405
0.00431405
0.00431405
0.00431405
0.00431405
0.00431405
0.00431405
0.00431405
0.00431405
0.00365034
0.00431405
0.00431405
0.00431405
0.00431405
0.00431405
0.00431405
0.00431405
0.00431405
0.00431405
0.00431405
0.00431405
0.00431405
0.00431405
0.00431405
0.00431405
0.00431405
0.00431405
0.00431405
0.00431405
0.00431405
0.00431405
0.00431405
0.00431405
0.00413467
0.00431405
0.00431405
0.00431405
0.00431405
0.00431405
0.00431405
0.00431405
0.00431405
0.00431405
0.00431405
0.00431405
0.00431405
0.00431405
0.00431405
0.00431405
0.00431405
0.00431405
0.00431405
0.00431405
0.00431405
0.00431405
0.00431405
0.00431404
0.00414993
0.00431405
0.00431405
0.00431405
0.00431405
0.00431405
0.00431405
0.00431405
0.00431405
0.00431405
0.00431405
0.00431405
0.00431405
0.00431405
0.00431405
0.00431405
0.00431405
0.00431405
0.00431405
0.00431405
0.00431405
0.00431405
0.00431405
0.00431285
0.00423569
0.00431405
0.00431405
0.00431405
0.00431405
0.00431405
0.00431405
0.00431405
0.00431405
0.00431405
0.00431405
0.00431405
0.00431405
0.00431405
0.00431405
0.00431405
0.00431405
0.00431405
0.00431405
0.00431405
0.00431405
0.00431405
0.00431405
0.00431224
0.00423835
0.00431405
0.00431405
0.00431405
0.00431405
0.00431405
0.00431405
0.00431405
0.00431405
0.00431405
0.00431405
0.00431405
0.00431405
0.00431405
0.00431405
0.00431405
0.00431405
0.00431405
0.00431405
0.00431405
0.00431405
0.00431405
0.00431382
0.00425785
0.00427857
0.00431404
0.00431405
0.00431405
0.00431405
0.00431405
0.00431405
0.00431405
0.00431405
0.00431405
0.00431405
0.00431405
0.00431405
0.00431405
0.00431405
0.00431405
0.00431405
0.00431405
0.00431405
0.00431405
0.00431405
0.00431405
0.00431361
0.00425834
0.00427891
0.00431404
0.00431405
0.00431405
0.00431405
0.00431405
0.00431405
0.00431405
0.00431405
0.00431405
0.00431405
0.00431405
0.00431405
0.00431405
0.00431405
0.00431405
0.00431405
0.00431405
0.00431405
0.00431405
0.00431405
0.00431404
0.00431341
0.00425881
0.00427921
0.00431404
0.00431405
0.00431405
0.00431405
0.00431405
0.00431405
0.00431405
0.00431405
0.00431405
0.00431405
0.00431405
0.00431405
0.00431405
0.00431405
0.00431405
0.00431405
0.00431405
0.00431405
0.00431405
0.00431405
0.00431404
0.00431321
0.00425927
0.00427948
0.00431403
0.00431405
0.00431405
0.00431405
0.00431405
0.00431405
0.00431405
0.00431405
0.00431405
0.00431405
0.00431405
0.00431405
0.00431405
0.00431405
0.00431405
0.00431405
0.00431405
0.00431405
0.00431405
0.00431405
0.00431404
0.00431303
0.00425972
0.00427974
0.00431403
0.00431405
0.00431405
0.00431405
0.00431405
0.00431405
0.00431405
0.00431405
0.00431405
0.00431405
0.00431405
0.00431405
0.00431405
0.00431405
0.00431405
0.00431405
0.00431405
0.00431405
0.00431405
0.00431405
0.00431403
0.00431285
0.00426017
0.00427997
0.00431402
0.00431405
0.00431405
0.00431405
0.00431405
0.00431405
0.00431405
0.00431405
0.00431405
0.00431405
0.00431405
0.00431405
0.00431405
0.00431405
0.00431405
0.00431405
0.00431405
0.00431405
0.00431405
0.00431405
0.00431403
0.00431268
0.00426061
0.00428019
0.00431402
0.00431405
0.00431405
0.00431405
0.00431405
0.00431405
0.00431405
0.00431405
0.00431405
0.00431405
0.00431405
0.00431405
0.00431405
0.00431405
0.00431405
0.00431405
0.00431405
0.00431405
0.00431405
0.00431405
0.00431402
0.0043125
0.00426105
0.00428042
0.00431401
0.00431405
0.00431405
0.00431405
0.00431405
0.00431405
0.00431405
0.00431405
0.00431405
0.00431405
0.00431405
0.00431405
0.00431405
0.00431405
0.00431405
0.00431405
0.00431405
0.00431405
0.00431405
0.00431405
0.00431402
0.00431231
0.0042615
0.00428066
0.00431401
0.00431405
0.00431405
0.00431405
0.00431405
0.00431405
0.00431405
0.00431405
0.00431405
0.00431405
0.00431405
0.00431405
0.00431405
0.00431405
0.00431405
0.00431405
0.00431405
0.00431405
0.00431405
0.00431405
0.00431401
0.00431213
0.00426194
0.00428089
0.00431401
0.00431405
0.00431405
0.00431405
0.00431405
0.00431405
0.00431405
0.00431405
0.00431405
0.00431405
0.00431405
0.00431405
0.00431405
0.00431405
0.00431405
0.00431405
0.00431405
0.00431405
0.00431405
0.00431405
0.004314
0.00431195
0.00426237
0.00428111
0.004314
0.00431405
0.00431405
0.00431405
0.00431405
0.00431405
0.00431405
0.00431405
0.00431405
0.00431405
0.00431405
0.00431405
0.00431405
0.00431405
0.00431405
0.00431405
0.00431405
0.00431405
0.00431405
0.00431405
0.004314
0.00431178
0.0042628
0.00428133
0.004314
0.00431405
0.00431405
0.00431405
0.00431405
0.00431405
0.00431405
0.00431405
0.00431405
0.00431405
0.00431405
0.00431405
0.00431405
0.00431405
0.00431405
0.00431405
0.00431405
0.00431405
0.00431405
0.00431405
0.00431399
0.00431162
0.00426323
0.00428155
0.004314
0.00431405
0.00431405
0.00431405
0.00431405
0.00431405
0.00431405
0.00431405
0.00431405
0.00431405
0.00431405
0.00431405
0.00431405
0.00431405
0.00431405
0.00431405
0.00431405
0.00431405
0.00431405
0.00431405
0.00431398
0.00431147
0.00426366
0.00428177
0.00431399
0.00431405
0.00431405
0.00431405
0.00431405
0.00431405
0.00431405
0.00431405
0.00431405
0.00431405
0.00431405
0.00431405
0.00431405
0.00431405
0.00431405
0.00431405
0.00431405
0.00431405
0.00431405
0.00431405
0.00431397
0.00431132
0.00426408
0.00428198
0.00431399
0.00431405
0.00431405
0.00431405
0.00431405
0.00431405
0.00431405
0.00431405
0.00431405
0.00431405
0.00431405
0.00431405
0.00431405
0.00431405
0.00431405
0.00431405
0.00431405
0.00431405
0.00431405
0.00431405
0.00431396
0.00431117
0.00426449
0.0042822
0.00431398
0.00431405
0.00431405
0.00431405
0.00431405
0.00431405
0.00431405
0.00431405
0.00431405
0.00431405
0.00431405
0.00431405
0.00431405
0.00431405
0.00431405
0.00431405
0.00431405
0.00431405
0.00431405
0.00431405
0.00431395
0.00431102
0.00426491
0.00428241
0.00431398
0.00431405
0.00431405
0.00431405
0.00431405
0.00431405
0.00431405
0.00431405
0.00431405
0.00431405
0.00431405
0.00431405
0.00431405
0.00431405
0.00431405
0.00431405
0.00431405
0.00431405
0.00431405
0.00431405
0.00431394
0.00431088
0.00426532
0.00428262
0.00431398
0.00431405
0.00431405
0.00431405
0.00431405
0.00431405
0.00431405
0.00431405
0.00431405
0.00431405
0.00431405
0.00431405
0.00431405
0.00431405
0.00431405
0.00431405
0.00431405
0.00431405
0.00431405
0.00431405
0.00431405
0.00431405
0.00431405
0.00431405
0.00431405
0.00431405
0.00431405
0.00374896
0.00362759
0.00431405
0.00431405
0.00431405
0.00431405
0.00431405
0.00431405
0.00431405
0.00431405
0.00431405
0.00431404
0.00431405
0.00431405
0.00431405
0.00431405
0.00431405
0.00431405
0.00431405
0.00431405
0.00431328
0.00431389
0.00431093
0.00431363
0.00431405
0.00431405
0.00431405
0.00431405
0.00431405
0.00431405
0.00431405
0.00431143
0.00431155
0.00427731
0.00429549
0.00431405
0.00431405
0.00431405
0.00431405
0.00431405
0.00431405
0.00431405
0.00431249
0.00431198
0.00430305
0.00428679
0.00431405
0.00431405
0.00431405
0.0043119
0.00431126
0.00431405
0.00431405
0.00431405
0.00431354
0.00431313
0.00431405
0.00392852
0.00374932
0.00398914
0.00431405
0.00431405
0.00431394
0.00431405
0.00431405
0.00431404
0.00431361
0.00431405
0.00431404
0.00431371
0.00431404
0.00431405
0.00431405
0.00431393
0.00431167
0.0043131
0.00431405
0.00431083
0.00430453
0.0043134
0.00431118
0.00429683
0.0043108
0.00431405
0.00431239
0.00430894
0.00431389
0.00431248
0.00431405
0.0043119
0.00431147
0.00431405
0.00430483
0.00430816
0.00430434
0.00430463
0.0042862
0.00427639
0.00431405
0.00430741
0.00430876
0.00430887
0.00430749
0.00431405
0.00430813
0.00431021
0.00430837
0.00430777
0.00431104
0.00430403
0.00431405
0.0043115
0.0043131
0.00430884
0.00431133
0.00431405
0.00431192
0.00431267
0.00431045
0.00431177
0.00431304
0.0043121
0.00431317
0.00431355
0.00431405
0.00431325
0.004313
0.00431276
0.00431321
0.00431373
0.00431358
0.00431405
0.00431405
0.00431405
0.00431396
0.00431405
0.00431405
0.00431405
0.00431405
0.00431405
0.00431338
0.00431306
0.00427781
0.00425532
0.00431405
0.00431405
0.00431405
0.00431405
0.00431399
0.00431405
0.00431405
0.00431405
0.00431301
0.00431256
0.00431405
0.00374812
0.00385824
0.0041784
0.00422247
0.00386535
0.00398908
0.00425101
0.00421134
0.00431405
0.00431359
0.00431379
0.0042275
0.00425305
0.00431381
0.0043139
0.00431405
0.00431405
0.00431405
0.00431405
0.00431405
0.00431405
0.00431405
0.00431392
0.00431405
0.00431399
0.00431405
0.00431401
0.00431405
0.00431193
0.00431261
0.00428818
0.00428902
0.00429735
0.00429545
0.00431118
0.00420496
0.00431237
0.00429422
0.00428032
0.00427874
0.00429264
0.00431335
0.00430233
0.00431399
0.00427974
0.00431006
0.00427312
0.00431394
0.00431092
0.00431398
0.00431405
0.0043138
0.00430554
0.00431398
0.004314
0.00430699
0.00430659
0.0043128
0.00431264
0.00430267
0.00430339
0.00430921
0.00431401
0.00431402
0.00431399
0.004314
0.00430918
0.00431338
0.00431404
0.00431405
0.00431403
0.00431404
0.00431315
0.00430652
0.00430672
0.00430384
0.00430386
0.00426428
0.00426607
0.00430657
0.00431398
0.00431398
0.00431399
0.00431398
0.00430656
0.00430844
0.00431398
0.00431399
0.00431398
0.00431398
0.00430838
0.0037605
0.00430911
0.00389098
0.00377611
0.00402044
0.00389923
0.00430941
0.0043062
0.00378852
0.0043066
0.00430882
0.00430834
0.00430999
0.004314
0.00431399
0.00431401
0.004314
0.00431025
0.00410544
0.00416892
0.00431109
0.00411835
0.00402937
0.00418964
0.00412814
0.00431128
0.00400126
0.00409519
0.00431272
0.00425152
0.00427605
0.0042102
0.00424671
0.00431259
0.00420198
0.00425529
0.00426351
0.00388489
0.0042559
0.00425201
0.00380622
0.00429604
0.0042955
0.00431404
0.00431405
0.00431405
0.00431405
0.00431405
0.00431383
0.00431379
0.00394685
0.00431273
0.00431337
0.00431404
0.00431362
0.00431342
0.00431405
0.00382216
0.00384682
0.00365489
0.004256
0.00425731
0.00386952
0.00391202
0.00429223
0.0042962
0.00334136
0.00431405
0.00431405
0.00431405
0.00431405
0.00431405
0.00431405
0.00431363
0.00431404
0.00431404
0.00431105
0.0043099
0.00431319
0.00431137
0.00431401
0.00431401
0.00431401
0.00431401
0.00431138
0.00428261
0.00429302
0.0043006
0.00428824
0.0041728
0.00414359
0.0043134
0.00429409
0.00430246
0.00431194
0.00431207
0.00391575
0.00431405
0.00431403
0.00431405
0.00431383
0.00431167
0.00431036
0.00431404
0.00431405
0.00431405
0.00431405
0.00431405
0.00431403
0.00431218
0.00431402
0.00431401
0.00431403
0.00431402
0.00431239
0.0043091
0.00422851
0.00427812
0.00420238
0.00420675
0.00430527
0.00428291
0.00428777
0.0043119
0.00429918
0.00430599
0.00431056
0.00431374
0.00431377
0.0043135
0.00431355
0.00430904
0.00431401
0.00431401
0.00431164
0.00430566
0.0042215
0.00419968
0.00430395
0.00419854
0.00420172
0.00419497
0.00419204
0.00430414
0.00427749
0.00427015
0.00430688
0.00431347
0.00431345
0.00431339
0.00431359
0.00430791
0.00430872
0.00431346
0.00431349
0.00431345
0.00431343
0.00430794
0.00431022
0.00426624
0.00427612
0.00425262
0.00424729
0.00430612
0.00431278
0.00431401
0.00431401
0.00431402
0.00431402
0.00431286
0.00431229
0.0042345
0.00419637
0.00426754
0.00425759
0.0043124
0.00405145
0.00407439
0.00431299
0.00427822
0.00427053
0.00401953
0.004044
0.00420781
0.00418057
0.00431403
0.00431404
0.00431404
0.00413359
0.00426951
0.00414384
0.00416162
0.0041518
0.00426656
0.00431405
0.00431401
0.00431405
0.00431391
0.00431404
0.0037617
0.00379752
0.00382602
0.00382283
0.0041999
0.00389986
0.00387584
0.00394761
0.00390713
0.00420568
0.0039003
0.00392392
0.00423613
0.00422954
0.00424024
0.00400761
0.00396738
0.00391827
0.00394506
0.00431379
0.00431403
0.00431404
0.00431395
0.00431402
0.00431369
0.00431111
0.00431311
0.00428351
0.00429215
0.00430002
0.00428922
0.00421029
0.00428227
0.00427504
0.00428998
0.00428455
0.00420932
0.00425882
0.00425203
0.00427279
0.00426258
0.00428944
0.00420788
0.00422662
0.00417421
0.00419894
0.0042874
0.00412861
0.0041296
0.00429459
0.004313
0.00431203
0.00431386
0.00431328
0.00429847
0.00430553
0.00430343
0.00431124
0.00430647
0.00431346
0.00431403
0.00431393
0.00431306
0.00431231
0.00431327
0.00431193
0.00431387
0.0043123
0.00431361
0.00431391
0.00431255
0.00431348
0.00431403
0.00431378
0.00431336
0.00421415
0.00422142
0.00430845
0.00414125
0.00410598
0.00423617
0.00414829
0.00406009
0.00403438
0.00409555
0.00407314
0.00430558
0.00420872
0.00421256
0.00427534
0.00426616
0.00430232
0.00428352
0.00425631
0.00424678
0.0042647
0.0042587
0.0043121
0.00428885
0.00429187
0.00429997
0.00430559
0.00431364
0.00431372
0.00430981
0.00430908
0.00431357
0.00431362
0.00423046
0.00422563
0.0043059
0.00407483
0.00408318
0.00396423
0.00406007
0.0040856
0.00411793
0.00408316
0.00408391
0.00419616
0.00419793
0.00430388
0.00400477
0.00399106
0.00403039
0.00400933
0.00396495
0.00395515
0.00398513
0.00397392
0.00430408
0.00419351
0.00419526
0.00427148
0.00426868
0.00431351
0.00431348
0.00430677
0.00430738
0.00431357
0.00431352
0.00431343
0.00431345
0.00430866
0.00430802
0.00431343
0.00431343
0.00378426
0.00382734
0.00424743
0.00425915
0.00423067
0.00424302
0.0037888
0.00397324
0.00427402
0.0042543
0.00426229
0.00427128
0.00394842
0.00416828
0.0041787
0.00413535
0.00416437
0.00382708
0.00421303
0.004227
0.00418358
0.00420585
0.00382848
0.00425765
0.00426382
0.00430992
0.00423324
0.00424441
0.00424892
0.00423294
0.00424413
0.00430665
0.00424377
0.00425253
0.00413193
0.0037796
0.0037807
0.0038607
0.00378913
0.00414113
0.0038253
0.00403686
0.00378235
0.00405231
0.00422895
0.00429617
0.00429166
0.00430152
0.00429768
0.00423229
0.00418563
0.00418995
0.00408363
0.00410605
0.00396145
0.0040094
0.0042281
0.00421433
0.00431405
0.00431405
0.00431405
0.00431405
0.00431396
0.00431397
0.00431405
0.00431405
0.00431405
0.00431405
0.00431405
0.00431405
0.00431405
0.00431405
0.00431405
0.00431405
0.00431404
0.00431371
0.00431098
0.00430616
0.00430554
0.00427865
0.00429464
0.00431401
0.00431402
0.0043122
0.00426639
0.00426321
0.00428721
0.00427834
0.00428355
0.00431181
0.00431403
0.00431405
0.00431405
0.00430941
0.00431077
0.00431375
0.00431399
0.00431385
0.00431404
0.00431331
0.00430234
0.00430879
0.00429761
0.00430488
0.00430401
0.00431037
0.00431159
0.00431161
0.00430897
0.00431382
0.00431385
0.00431262
0.0043117
0.00431401
0.00431401
0.00424497
0.00423623
0.00430751
0.00428508
0.00427054
0.00426941
0.00427546
0.00430733
0.00431146
0.00431146
0.00430882
0.00431154
0.00431157
0.00431145
0.00431145
0.00430761
0.00430542
0.00425752
0.00424898
0.00430906
0.00431344
0.00431341
0.00431336
0.00431403
0.00431402
0.00388402
0.00388718
0.00428619
0.00428047
0.00431305
0.00387815
0.00388112
0.00430336
0.00430544
0.00431368
0.00431398
0.00431393
0.0037398
0.00373681
0.00374836
0.00384853
0.00387288
0.00371445
0.00372502
0.00383176
0.00381282
0.00397266
0.00418493
0.00418043
0.00421747
0.00404381
0.00401581
0.00424374
0.00431405
0.00431405
0.00431405
0.00431378
0.00431391
0.00431399
0.00431402
0.00431355
0.00431364
0.00431405
0.00431405
0.00431404
0.00430931
0.004309
0.00431146
0.0043129
0.00431173
0.00431113
0.00428592
0.00428986
0.0042738
0.00427612
0.00429859
0.0042931
0.00426383
0.00426908
0.00421573
0.0042162
0.00424313
0.00423943
0.00420409
0.00421798
0.00422009
0.00431197
0.00428563
0.00429135
0.00429946
0.00428703
0.00430451
0.00430249
0.00431252
0.00431171
0.00430818
0.00425101
0.00424313
0.00429726
0.00428232
0.00426105
0.00431404
0.00431404
0.00431372
0.0043136
0.00431275
0.00431317
0.00430804
0.00431291
0.00431331
0.00429288
0.00429861
0.00431322
0.00423277
0.00422342
0.00430194
0.0043041
0.00431396
0.00431399
0.00431364
0.00431268
0.00431389
0.00431393
0.00430731
0.00423475
0.00423146
0.0042643
0.00426692
0.00431147
0.00431147
0.00430851
0.00430823
0.00431145
0.00431146
0.00377334
0.00388085
0.00405171
0.00406174
0.00394798
0.00395718
0.00376547
0.00426425
0.00425929
0.00430581
0.0038266
0.0038135
0.00390109
0.0039023
0.00380213
0.00393576
0.0039417
0.00380583
0.00381187
0.0043135
0.00431347
0.0043092
0.00431075
0.00431356
0.00431353
0.00407647
0.00426638
0.00427011
0.00425841
0.00426241
0.00406146
0.00426283
0.00429991
0.00430256
0.00430255
0.0043013
0.0042666
0.00421779
0.00425268
0.00424779
0.00419187
0.00418605
0.00419825
0.00393069
0.00394167
0.00394818
0.00386632
0.00426342
0.00409259
0.00405635
0.00412513
0.00410179
0.00424845
0.00413823
0.00414067
0.00423173
0.00424713
0.00429858
0.00431403
0.00431403
0.004314
0.00382359
0.0038305
0.00408523
0.00408688
0.00362571
0.0038916
0.00385176
0.00385109
0.00384238
0.00384782
0.00390415
0.00335209
0.00422076
0.00422846
0.00431405
0.00431405
0.00431405
0.00430735
0.00430677
0.00431101
0.00430875
0.0043108
0.00431218
0.0043102
0.00431055
0.00428084
0.00429382
0.00425091
0.00425444
0.0042546
0.00425074
0.00428764
0.00426086
0.00425937
0.00416588
0.00412988
0.00412965
0.0041317
0.00413278
0.00415737
0.00431136
0.00431285
0.00431291
0.00431263
0.00431279
0.004311
0.00429838
0.00430916
0.00430322
0.00430125
0.00430901
0.00431163
0.00431166
0.00427032
0.00427111
0.00428269
0.00427234
0.00431148
0.00431147
0.00430708
0.00431151
0.00431153
0.00430877
0.0043078
0.00431144
0.00431144
0.00425311
0.00426528
0.00426019
0.00426951
0.00426792
0.00425206
0.00389072
0.00389625
0.00387431
0.00387571
0.00402818
0.00393738
0.00392886
0.00414182
0.00414079
0.00419947
0.00415278
0.00416391
0.00413289
0.00414123
0.00418989
0.00431401
0.00431399
0.00431402
0.00431398
0.00431404
0.00431404
0.00431405
0.00431402
0.00431403
0.00431401
0.00414166
0.00420967
0.00420454
0.00422313
0.00421619
0.00414788
0.00416733
0.00418607
0.00417659
0.0042002
0.00419485
0.00416085
0.00431402
0.00431404
0.00431403
0.00431367
0.00431338
0.00431398
0.00431393
0.00374069
0.0038311
0.00375725
0.00375754
0.00382523
0.00382403
0.00398021
0.00399183
0.00388554
0.00371522
0.00370834
0.00388348
0.00375261
0.0037486
0.00374929
0.00395004
0.00377796
0.00374086
0.00419372
0.00420292
0.00424195
0.00417445
0.00417545
0.00417151
0.00417161
0.00422311
0.00417938
0.00418411
0.00392472
0.00383312
0.00383716
0.00383892
0.0038326
0.00393302
0.00431394
0.00431397
0.00431385
0.00431343
0.00431371
0.0043139
0.00430657
0.00431123
0.00430857
0.00430796
0.00430914
0.00430962
0.00430805
0.00430864
0.00428443
0.00429074
0.00425854
0.00425978
0.0042558
0.00425723
0.0042994
0.00427733
0.00427817
0.00425903
0.00426066
0.00429085
0.00425978
0.00422564
0.0042185
0.00420644
0.00423627
0.00423229
0.00425604
0.00422148
0.00422094
0.00423169
0.00422577
0.00425403
0.00427012
0.00423927
0.00424318
0.00422528
0.00423257
0.00426662
0.00422041
0.00418251
0.00423445
0.00422937
0.00412196
0.0041235
0.00429272
0.00430617
0.00430535
0.00429081
0.0043018
0.00430951
0.00430751
0.0042639
0.00425702
0.00428993
0.00429137
0.00430418
0.00427877
0.00427141
0.00431044
0.00431152
0.00431335
0.00431221
0.00430907
0.00430453
0.00430878
0.00431306
0.00431357
0.00431368
0.00431303
0.00431326
0.00431211
0.00431072
0.00431198
0.0043137
0.0043133
0.00431307
0.00431373
0.0043134
0.00431379
0.00431278
0.00431286
0.0043123
0.00431301
0.00413232
0.00411821
0.00421121
0.00409943
0.00411205
0.00407354
0.00415472
0.00404928
0.00404071
0.00408696
0.00408028
0.00427051
0.00422443
0.0042349
0.0042041
0.00421381
0.00426789
0.00430018
0.00428247
0.00428749
0.00424085
0.00427041
0.00429495
0.00421489
0.00419868
0.00425388
0.00414182
0.00415137
0.00412604
0.00413378
0.00425114
0.00426323
0.00418854
0.0041957
0.00416233
0.00417474
0.00426107
0.0043012
0.00430502
0.00408109
0.00397777
0.00399235
0.00394598
0.00396087
0.00408292
0.0039903
0.00399759
0.00399532
0.00402734
0.00409122
0.00386887
0.0038819
0.00389839
0.00387261
0.00410195
0.00408326
0.0039214
0.00393294
0.00389863
0.00391144
0.00408358
0.00400278
0.0039997
0.00402655
0.00401658
0.00395793
0.00395321
0.00398181
0.00398086
0.00426696
0.00426776
0.00430857
0.00431148
0.0043115
0.00431144
0.00431144
0.0043081
0.00378342
0.00401764
0.00403772
0.00386279
0.00376619
0.00397221
0.00399386
0.00385653
0.00384088
0.00417155
0.00400016
0.00399881
0.00414963
0.00397241
0.0039372
0.00399614
0.00398885
0.00415879
0.00389282
0.00387376
0.00390942
0.00392682
0.003816
0.00383459
0.00387377
0.00426039
0.0042843
0.00428232
0.00428723
0.00428581
0.0042621
0.00423693
0.0042422
0.00424319
0.00423347
0.00423355
0.00423697
0.00424338
0.00427328
0.00427106
0.00427956
0.00427631
0.00424699
0.00377788
0.003872
0.00388326
0.00385418
0.00386308
0.00377888
0.00383518
0.00394404
0.00396474
0.0038992
0.0039206
0.00380954
0.00382034
0.00373606
0.00374393
0.00374234
0.00373778
0.00378255
0.00382636
0.00384328
0.00376621
0.00379673
0.00377747
0.00426022
0.00425694
0.00422478
0.00418577
0.00419522
0.0039071
0.00392411
0.00397978
0.00388032
0.00385645
0.00391867
0.00390405
0.00399645
0.00387149
0.00387333
0.00413954
0.00413864
0.00431405
0.00431405
0.00431405
0.00431405
0.00431405
0.00431405
0.00431405
0.00431405
0.00431405
0.00431405
0.00431405
0.00431405
0.00431405
0.00431405
0.00431405
0.00431405
0.00431405
0.00431405
0.00431405
0.00431405
0.00431405
0.00431405
0.00431405
0.00431405
0.00431405
0.00431405
0.00431405
0.00431405
0.00431405
0.00431405
0.00431405
0.00431405
0.00431405
0.00431405
0.00431405
0.00431405
0.00431405
0.00431405
0.00431405
0.00431405
0.00431405
0.00431405
0.00431405
0.00431405
0.00431405
0.00431405
0.00431405
0.00431405
0.00431405
0.00431405
0.00431405
0.00431405
0.00431405
0.00431405
0.00431405
0.00431405
0.00431405
0.00431405
0.00431405
0.00431405
0.00431405
0.00431405
0.00431405
0.00431405
0.00431405
0.00431405
0.00431405
0.00431405
0.00431405
0.00431405
0.00431405
0.00431405
0.00431405
0.00431405
0.00431405
0.00431405
0.00431405
0.00431405
0.00431405
0.00431405
0.00431405
0.00431405
0.00431405
0.00431405
0.00431405
0.00431404
0.00431404
0.00431405
0.00431405
0.00431405
0.00431405
0.00431405
0.00431405
0.00431405
0.00431405
0.00431405
0.00431405
0.00431405
0.00431405
0.00431405
0.00431404
0.00431404
0.00431405
0.00431405
0.00431405
0.00431405
0.00431405
0.00431405
0.00431405
0.00431405
0.00431405
0.00431405
0.00431404
0.00431404
0.00431405
0.00431405
0.00431405
0.00431405
0.00431405
0.00431405
0.00431405
0.00431405
0.00431405
0.00431405
0.00431405
0.00431405
0.00431405
0.00431405
0.00431405
0.00431405
0.00431405
0.00431405
0.00431405
0.00431405
0.00431405
0.00431405
0.0043138
0.00431378
0.00372183
0.00428314
0.00428531
0.00431405
0.00431405
0.00431405
0.00431405
0.00431405
0.00431405
0.00431405
0.00431405
0.00431405
0.00431405
0.00431405
0.00431405
0.00431404
0.00408402
0.00407698
0.00414656
0.00431405
0.00431405
0.00431405
0.00431405
0.00431405
0.00431405
0.00431405
0.00431405
0.00431405
0.00431405
0.00431405
0.00431332
0.00419475
0.00408625
0.00423432
0.004314
0.00431405
0.00431405
0.00431405
0.00431405
0.00431405
0.00431405
0.00431405
0.00431405
0.00431405
0.00431405
0.00431405
0.00431405
0.00431405
0.00431404
0.00431404
0.00431405
0.00431405
0.00431403
0.00431403
0.00431405
0.00431405
0.00431405
0.00431404
0.00431404
0.00431405
0.00431405
0.00431403
0.00431403
0.00431403
0.00431403
0.00431405
0.00431404
0.00431404
0.00431405
0.00431405
0.00431404
0.00431404
0.00431403
0.00431403
0.00431405
0.00431405
0.00431404
0.00431405
0.00431404
0.00431404
0.00431405
0.00431378
0.00431384
0.00431405
0.0036229
0.00404839
0.00405242
0.00408737
0.0040874
0.00335767
0.00431405
0.00431405
0.00431405
0.00431405
0.00431405
0.00431405
0.00431405
0.00431405
0.00431404
0.00431405
0.00431405
0.00431405
0.00431405
0.00431405
0.00431405
0.00431405
0.00431405
0.00431405
0.00431405
0.00431405
0.00431405
0.00431405
0.00431405
0.00431405
0.00431405
0.00431405
0.00431405
0.00431405
0.00431405
0.00431405
0.00431404
0.00431401
0.00431405
0.00431405
0.00431405
0.00431405
0.00431405
0.00431405
0.00431405
0.00431405
0.00431405
0.00431405
0.00431405
0.00431405
0.00431405
0.00431405
0.00431405
0.00431405
0.00431405
0.00431405
0.00431405
0.00431405
0.00431405
0.00431405
0.00431405
0.00431405
0.00431342
0.00431388
0.00431384
0.00431401
0.004314
0.00431384
0.00431316
0.00431267
0.00431347
0.00431405
0.00431405
0.00431405
0.00431405
0.00431405
0.00431405
0.00431405
0.00431405
0.00431405
0.00431405
0.00431405
0.00431405
0.00431405
0.00431405
0.00431405
0.00431405
0.00431405
0.00431405
0.00431404
0.00431404
0.00431405
0.0043114
0.00431338
0.00431339
0.00431342
0.0043134
0.00431146
0.00431405
0.00431405
0.00431405
0.00431405
0.00431405
0.00431405
0.00431405
0.00431405
0.00431405
0.00431405
0.00431405
0.00431405
0.00431405
0.00431405
0.00431405
0.00431405
0.00431405
0.00431405
0.00431404
0.00431404
0.00431405
0.00431227
0.00431402
0.00431402
0.00431351
0.00431352
0.00431205
0.00430209
0.004282
0.00428463
0.00431405
0.00431405
0.00431405
0.00431405
0.00431405
0.00431405
0.00431405
0.00431405
0.00431405
0.00431168
0.00429842
0.00430166
0.004306
0.00430659
0.00431146
0.00431405
0.00431405
0.00431405
0.00431405
0.00431405
0.00431405
0.00431405
0.00431405
0.00431405
0.0043135
0.00431219
0.00431234
0.00431081
0.0043111
0.00431321
0.00431391
0.0043138
0.00431405
0.00391883
0.0043121
0.00431216
0.00425861
0.00426171
0.00375447
0.00431293
0.00431278
0.00395861
0.00431405
0.00431393
0.00431398
0.00431397
0.00431392
0.00431405
0.00431398
0.00431403
0.00431403
0.00431405
0.00431405
0.00431404
0.00431405
0.00431405
0.00431405
0.00431403
0.00431382
0.004314
0.00431405
0.00431405
0.00431405
0.00431403
0.00431404
0.00431405
0.00431376
0.00431344
0.00431336
0.00431404
0.00431403
0.00431404
0.00431405
0.00431405
0.00431405
0.00431405
0.00431405
0.00431405
0.00431402
0.00431403
0.00431398
0.00431182
0.00431349
0.00431345
0.0043138
0.00431375
0.00431286
0.00431405
0.00431405
0.00431405
0.00431037
0.00430511
0.00430649
0.0042913
0.00429165
0.00430474
0.00430737
0.00430799
0.00431145
0.00431404
0.00431404
0.00431405
0.00431221
0.00431312
0.00431322
0.0043137
0.004314
0.00431402
0.00431327
0.00431332
0.00431253
0.00431405
0.00431405
0.00431404
0.00431183
0.00431347
0.00431349
0.00431339
0.00431341
0.00431152
0.00431405
0.00431404
0.00431404
0.00430512
0.00429329
0.00429259
0.00430032
0.00429977
0.00430793
0.00430419
0.00429077
0.00429101
0.00429203
0.00429159
0.00430441
0.00431403
0.00431403
0.00431405
0.0043122
0.00431213