# Forces     
# CofR       : (0.000000e+00 0.000000e+00 0.000000e+00)
# Time       forces(pressure viscous porous)	moments(pressure viscous porous)
100          	((1.069864e+00 7.217830e+00 1.212612e-18) (7.248191e-02 -4.821355e-05 -6.681979e-23) (0.000000e+00 0.000000e+00 0.000000e+00)) ((-3.789361e+00 5.616788e-01 4.318906e+00) (2.531211e-05 3.805300e-02 -1.265386e-03) (0.000000e+00 0.000000e+00 0.000000e+00))
200          	((8.798432e-01 7.938304e+00 1.219680e-18) (7.128950e-02 9.249764e-05 -6.425192e-23) (0.000000e+00 0.000000e+00 0.000000e+00)) ((-4.167610e+00 4.619177e-01 4.425000e+00) (-4.856126e-05 3.742699e-02 -1.247764e-03) (0.000000e+00 0.000000e+00 0.000000e+00))
300          	((7.768614e-01 8.244033e+00 1.232220e-18) (7.140140e-02 5.825533e-05 -6.243300e-23) (0.000000e+00 0.000000e+00 0.000000e+00)) ((-4.328118e+00 4.078522e-01 4.488347e+00) (-3.058405e-05 3.748574e-02 -1.324564e-03) (0.000000e+00 0.000000e+00 0.000000e+00))
400          	((7.543769e-01 8.815978e+00 1.215731e-18) (7.169748e-02 1.332572e-06 -6.190710e-23) (0.000000e+00 0.000000e+00 0.000000e+00)) ((-4.628389e+00 3.960479e-01 4.743192e+00) (-6.996004e-07 3.764118e-02 -1.407409e-03) (0.000000e+00 0.000000e+00 0.000000e+00))
500          	((7.499431e-01 9.261345e+00 1.197566e-18) (7.204622e-02 -2.185097e-05 -6.095806e-23) (0.000000e+00 0.000000e+00 0.000000e+00)) ((-4.862206e+00 3.937201e-01 4.909850e+00) (1.147176e-05 3.782427e-02 -1.456007e-03) (0.000000e+00 0.000000e+00 0.000000e+00))
600          	((7.505792e-01 9.638626e+00 1.181125e-18) (7.228827e-02 -2.438179e-05 -6.078383e-23) (0.000000e+00 0.000000e+00 0.000000e+00)) ((-5.060279e+00 3.940541e-01 5.069518e+00) (1.280044e-05 3.795134e-02 -1.477879e-03) (0.000000e+00 0.000000e+00 0.000000e+00))
