/*--------------------------------*- C++ -*----------------------------------*\
| =========                 |                                                 |
| \\      /  F ield         | OpenFOAM: The Open Source CFD Toolbox           |
|  \\    /   O peration     | Version:  5.x                                   |
|   \\  /    A nd           | Web:      www.OpenFOAM.org                      |
|    \\/     M anipulation  |                                                 |
\*---------------------------------------------------------------------------*/
FoamFile
{
    version     2.0;
    format      ascii;
    class       volScalarField;
    location    "300";
    object      massFlux;
}
// * * * * * * * * * * * * * * * * * * * * * * * * * * * * * * * * * * * * * //

dimensions      [0 0 0 0 0 0 0];

internalField   nonuniform List<scalar> 
6584
(
0.0241652
0.0241651
0.0241651
0.0241652
0.0241652
0.0241652
0.0241652
0.0241652
0.0241652
0.0241652
0.0241652
0.0241652
0.0241652
0.0241652
0.0241652
0.0241652
0.0241652
0.0241652
0.0241652
0.0241652
0.0241651
0.0241651
0.0241651
0.0241651
0.0241388
0.0241388
0.0241388
0.0241388
0.0241388
0.0241389
0.0241389
0.024139
0.024139
0.024139
0.024139
0.024139
0.024139
0.024139
0.024139
0.024139
0.024139
0.0241389
0.0241389
0.0241389
0.0241388
0.0241388
0.0241388
0.0241387
0.0241124
0.0241124
0.0241124
0.0241124
0.0241125
0.0241125
0.0241126
0.0241127
0.0241128
0.0241259
0.0241259
0.0241259
0.0241259
0.0241259
0.0241259
0.0241128
0.0241127
0.0241126
0.0241126
0.0241125
0.0241125
0.0241125
0.0241124
0.0241124
0.024086
0.0240861
0.0240861
0.0240861
0.0240861
0.0240862
0.0240863
0.0240864
0.0240865
0.0240996
0.0240996
0.0240995
0.0240995
0.0240996
0.0240996
0.0240997
0.0240864
0.0240863
0.0240863
0.0240862
0.0240862
0.0240861
0.0240861
0.024086
0.0240597
0.0240597
0.0240598
0.0240598
0.0240598
0.0240599
0.0240599
0.0240599
0.0240732
0.0240733
0.0240731
0.024073
0.024073
0.024073
0.0240733
0.0240733
0.0240733
0.0240601
0.02406
0.0240599
0.0240599
0.0240598
0.0240597
0.0240597
0.0240334
0.0240334
0.0240334
0.0240335
0.0240336
0.0240336
0.0240337
0.0240468
0.0240467
0.0240466
0.0240531
0.0240528
0.0240527
0.024053
0.0240468
0.024047
0.0240471
0.024034
0.0240338
0.0240337
0.0240336
0.0240335
0.0240334
0.0240334
0.0240071
0.0240071
0.0240071
0.0240072
0.0240073
0.0240074
0.0240075
0.0240205
0.0240204
0.0240202
0.0240261
0.0240288
0.0240284
0.0240259
0.0240271
0.024021
0.024021
0.0240081
0.0240077
0.0240075
0.0240074
0.0240073
0.0240072
0.0240071
0.0239808
0.0239808
0.0239809
0.0239809
0.0239811
0.0239812
0.0239815
0.0239944
0.0239943
0.0239943
0.0239996
0.0240007
0.0240019
0.0240011
0.0239953
0.0239952
0.0239822
0.0239817
0.0239814
0.0239812
0.023981
0.0239809
0.0239808
0.0239545
0.0239545
0.0239546
0.0239547
0.0239549
0.0239551
0.0239555
0.0239684
0.0239685
0.0239688
0.023974
0.0239751
0.0239767
0.023976
0.02397
0.0239696
0.0239564
0.0239557
0.0239553
0.023955
0.0239548
0.0239546
0.0239545
0.0239282
0.0239283
0.0239284
0.0239285
0.0239287
0.023929
0.0239295
0.0239425
0.0239428
0.0239435
0.0239491
0.0239512
0.0239537
0.0239517
0.023945
0.0239442
0.0239307
0.0239297
0.0239292
0.0239288
0.0239286
0.0239284
0.0239283
0.0239019
0.023902
0.0239021
0.0239023
0.0239026
0.0239029
0.0239035
0.0239166
0.0239171
0.0239182
0.0239243
0.0239274
0.0239309
0.0239275
0.02392
0.0239188
0.0239049
0.0239038
0.0239031
0.0239027
0.0239024
0.0239021
0.023902
0.0238756
0.0238757
0.0238759
0.0238761
0.0238764
0.0238768
0.0238775
0.0238907
0.0238914
0.0238927
0.0238992
0.0239028
0.0239072
0.0239029
0.0238949
0.0238933
0.0238791
0.0238778
0.0238771
0.0238765
0.0238761
0.0238759
0.0238757
0.0238494
0.0238495
0.0238496
0.0238499
0.0238503
0.0238507
0.0238515
0.0238647
0.0238656
0.0238669
0.0238736
0.0238771
0.023882
0.0238777
0.0238694
0.0238676
0.0238532
0.0238518
0.0238509
0.0238503
0.0238498
0.0238496
0.0238493
0.0238231
0.0238232
0.0238234
0.0238237
0.0238241
0.0238246
0.0238254
0.0238259
0.0238394
0.0238406
0.023847
0.0238496
0.017654
0.023852
0.0238518
0.0238436
0.0238418
0.0238272
0.0238257
0.0238248
0.023824
0.0238235
0.0238232
0.023823
0.0237968
0.0237969
0.0237972
0.0237975
0.0237979
0.0237984
0.0237991
0.0237994
0.0238129
0.0238141
0.0238205
0.0238196
0.0222996
0.0238255
0.0238184
0.0238175
0.023802
0.0238009
0.0237994
0.0237985
0.0237978
0.0237973
0.0237969
0.0237966
0.0237705
0.0237707
0.0237709
0.0237712
0.0237716
0.0237721
0.0237727
0.0237731
0.0237866
0.0237879
0.0237878
0.023793
0.0223913
0.0237926
0.0237922
0.0237913
0.0237759
0.0237747
0.0237731
0.0237721
0.0237714
0.0237708
0.0237705
0.0237702
0.0237442
0.0237444
0.0237446
0.023745
0.0237454
0.0237458
0.0237464
0.0237469
0.0237477
0.0237617
0.0237616
0.0237437
0.0231143
0.0237663
0.023766
0.0237651
0.0237496
0.0237483
0.0237467
0.0237457
0.023745
0.0237443
0.023744
0.0237436
0.0237179
0.0237181
0.0237183
0.0237187
0.0237191
0.0237195
0.0237202
0.0237207
0.0237216
0.0237222
0.0237354
0.0237099
0.023103
0.02374
0.0237266
0.0237248
0.0237232
0.023722
0.0237203
0.0237193
0.0237185
0.0237179
0.0237175
0.0237171
0.0236916
0.0236918
0.023692
0.0236924
0.0236928
0.0236932
0.023694
0.0236946
0.0236954
0.023696
0.0236931
0.0228024
0.023402
0.0237008
0.0237003
0.0236985
0.0236969
0.0236956
0.0236939
0.0236928
0.023692
0.0236914
0.023691
0.0236906
0.0236653
0.0236655
0.0236658
0.0236661
0.0236666
0.023667
0.0236678
0.0236684
0.0236693
0.0236699
0.0236642
0.0227778
0.0233765
0.0236746
0.023674
0.0236722
0.0236705
0.0236692
0.0236675
0.0236664
0.0236656
0.0236649
0.0236645
0.023664
0.023639
0.0236392
0.0236395
0.0236399
0.0236403
0.0236408
0.0236416
0.0236423
0.0236432
0.0236437
0.0236353
0.022753
0.0233508
0.0236484
0.0236478
0.023646
0.0236442
0.0236428
0.0236411
0.0236399
0.0236391
0.0236384
0.023638
0.0236375
0.0236127
0.0236129
0.0236132
0.0236136
0.0236141
0.0236145
0.0236154
0.0236162
0.0236171
0.0236176
0.0236065
0.0227279
0.0233249
0.0236223
0.0236216
0.0236197
0.0236178
0.0236164
0.0236146
0.0236135
0.0236126
0.0236119
0.0236114
0.0236109
0.0235864
0.0235866
0.0235869
0.0235873
0.0235879
0.0235883
0.0235893
0.02359
0.0235911
0.0235915
0.0235777
0.0227026
0.0232989
0.0235961
0.0235954
0.0235935
0.0235915
0.02359
0.0235882
0.023587
0.0235861
0.0235853
0.0235849
0.0235844
0.0235601
0.0235603
0.0235606
0.0235611
0.0235616
0.0235621
0.0235631
0.0235639
0.023565
0.0235654
0.023549
0.0226773
0.0232727
0.0235699
0.0235692
0.0235672
0.0235652
0.0235636
0.0235617
0.0235605
0.0235595
0.0235588
0.0235583
0.0235578
0.0235338
0.023534
0.0235344
0.0235348
0.0235354
0.0235359
0.023537
0.0235378
0.023539
0.0235393
0.0235204
0.0226517
0.0232464
0.0235438
0.023543
0.023541
0.0235388
0.0235372
0.0235353
0.023534
0.023533
0.0235322
0.0235318
0.0235312
0.0235075
0.0235078
0.0235081
0.0235086
0.0235092
0.0235097
0.0235108
0.0235117
0.0235129
0.0235132
0.0234916
0.0226263
0.0232202
0.0235177
0.0235168
0.0235148
0.0235125
0.0235109
0.0235089
0.0235075
0.0235065
0.0235057
0.0235052
0.0235046
0.0234812
0.0234815
0.0234818
0.0234823
0.023483
0.0234836
0.0234847
0.0234856
0.0234869
0.0234871
0.0234625
0.0226012
0.0231941
0.0234916
0.0234907
0.0234886
0.0234862
0.0234845
0.0234825
0.0234811
0.02348
0.0234792
0.0234787
0.0234781
0.0234549
0.0234552
0.0234556
0.0234561
0.0234567
0.0234574
0.0234586
0.0234595
0.0234609
0.023461
0.0234335
0.0225759
0.0231679
0.0234656
0.0234646
0.0234624
0.02346
0.0234582
0.023456
0.0234546
0.0234535
0.0234527
0.0234522
0.0234516
0.0234287
0.0234289
0.0234293
0.0234298
0.0234305
0.0234312
0.0234325
0.0234335
0.0234349
0.023435
0.0234045
0.0225506
0.0231417
0.0234395
0.0234385
0.0234362
0.0234337
0.0234318
0.0234296
0.0234282
0.0234271
0.0234262
0.0234256
0.0234251
0.0234024
0.0234027
0.0234031
0.0234036
0.0234043
0.023405
0.0234064
0.0234074
0.0234089
0.0234089
0.0233756
0.0225253
0.0231155
0.0234134
0.0234124
0.0234101
0.0234074
0.0234055
0.0234032
0.0234018
0.0234006
0.0233997
0.0233991
0.0233986
0.0233761
0.0233764
0.0233768
0.0233774
0.0233781
0.0233789
0.0233803
0.0233814
0.0233829
0.0233828
0.0233467
0.0224999
0.0230892
0.0233874
0.0233863
0.0233839
0.0233811
0.0233791
0.0233768
0.0233753
0.0233741
0.0233732
0.0233726
0.023372
0.0233499
0.0233502
0.0233506
0.0233511
0.0233519
0.0233528
0.0233542
0.0233553
0.0233569
0.0233567
0.0233178
0.0224744
0.023063
0.0233613
0.0233602
0.0233577
0.0233549
0.0233528
0.0233504
0.0233488
0.0233476
0.0233467
0.023346
0.0233455
0.0233236
0.0233239
0.0233243
0.0233249
0.0233257
0.0233266
0.0233281
0.0233293
0.023331
0.0233306
0.0232889
0.022449
0.0230367
0.0233352
0.0233341
0.0233315
0.0233286
0.0233264
0.023324
0.0233224
0.0233211
0.0233201
0.0233195
0.0233189
0.0232974
0.0232977
0.0232981
0.0232987
0.0232996
0.0233005
0.0233021
0.0233033
0.023305
0.0233045
0.0232599
0.0224236
0.0230104
0.0233092
0.023308
0.0233054
0.0233023
0.0233001
0.0232976
0.0232959
0.0232946
0.0232936
0.0232929
0.0232924
0.0232711
0.0232714
0.0232719
0.0232725
0.0232734
0.0232744
0.023276
0.0232773
0.023279
0.0232784
0.0232309
0.0223981
0.0229841
0.0232831
0.0232819
0.0232792
0.023276
0.0232737
0.0232711
0.0232695
0.0232681
0.0232671
0.0232664
0.0232658
0.0232448
0.0232452
0.0232457
0.0232463
0.0232472
0.0232483
0.02325
0.0232513
0.0232531
0.0232523
0.0232018
0.0223728
0.0229578
0.0232571
0.0232558
0.023253
0.0232498
0.0232474
0.0232447
0.023243
0.0232416
0.0232405
0.0232398
0.0232393
0.0239782
0.0239794
0.0240012
0.0239541
0.0239565
0.0239765
0.0239304
0.0239339
0.0239537
0.0239059
0.0239103
0.023931
0.0238804
0.0238854
0.0239073
0.023853
0.016743
0.0174023
0.0238591
0.0238822
0.0240041
0.0240283
0.0240046
0.0240289
0.0239803
0.0239786
0.0240014
0.0239883
0.0240004
0.0239797
0.0239817
0.0240005
0.0239553
0.0239543
0.0239755
0.0239661
0.0239573
0.0239732
0.0239489
0.0239726
0.0239565
0.0239576
0.0239756
0.0239305
0.0239304
0.0239513
0.0239423
0.0239108
0.0239257
0.0237636
0.0238614
0.0239338
0.0239337
0.0239516
0.0239056
0.0239059
0.0239274
0.0239183
0.0238975
0.0239023
0.0238715
0.0238014
0.0239102
0.0239094
0.0239277
0.0238868
0.0238959
0.0238852
0.0238845
0.0239032
0.0238679
0.0238778
0.0238262
0.0183859
0.0167711
0.0209917
0.0238321
0.0238556
0.0239751
0.023987
0.0239876
0.0239865
0.023972
0.0240004
0.0239882
0.0239737
0.0239875
0.0239884
0.0239872
0.0239756
0.0239288
0.0239541
0.0239631
0.0239343
0.0238567
0.0239687
0.0239382
0.0238677
0.0239476
0.023965
0.0239556
0.0239286
0.0239746
0.0239567
0.0239679
0.023903
0.0239096
0.0239393
0.0238217
0.0238415
0.0238527
0.0238212
0.0237988
0.0237581
0.0239424
0.0239116
0.0239085
0.0239277
0.0239126
0.0239452
0.0238157
0.0238374
0.0238433
0.0238118
0.0238957
0.0238754
0.0239193
0.0239091
0.023905
0.0239083
0.0239091
0.0239223
0.0238501
0.0238513
0.0238395
0.0238494
0.023879
0.0238861
0.0239038
0.0238948
0.023898
0.0238455
0.0238184
0.023851
0.0238465
0.0238541
0.0238663
0.0239908
0.0239887
0.024001
0.0239914
0.0239991
0.0238801
0.0238803
0.0239027
0.0238933
0.0238834
0.0238906
0.0236253
0.0235015
0.0238589
0.0238588
0.0238781
0.0239995
0.0239917
0.024001
0.0239887
0.0239915
0.0238915
0.0238968
0.0239152
0.016586
0.0176985
0.0212869
0.021916
0.0177574
0.0190362
0.023477
0.0232404
0.0238949
0.0238934
0.023883
0.0219884
0.0223506
0.0238814
0.0238701
0.0238724
0.0240151
0.0240137
0.0240022
0.0240023
0.0240138
0.0240151
0.0239905
0.0239933
0.0239909
0.0239997
0.0239918
0.0239949
0.0239584
0.0239625
0.0238194
0.0238244
0.0238488
0.0238403
0.0238883
0.0232517
0.0238954
0.0237166
0.023639
0.0236622
0.0237325
0.0238738
0.0238915
0.0239814
0.0237049
0.023953
0.0236513
0.0239794
0.0239607
0.0239912
0.0239932
0.0239893
0.0239178
0.0239805
0.0239814
0.0238925
0.0238876
0.0239589
0.0239568
0.0239015
0.023906
0.023935
0.0239602
0.0239645
0.0239546
0.0239588
0.0239342
0.0239667
0.0239718
0.0239763
0.023966
0.0239703
0.0239648
0.0238308
0.0238318
0.0238304
0.023828
0.023691
0.0237006
0.0239038
0.0239381
0.0239422
0.0239326
0.0239367
0.0239031
0.0239212
0.023949
0.0239532
0.0239435
0.0239477
0.0239203
0.0166463
0.0238265
0.0177002
0.0162901
0.0192508
0.0177787
0.0238295
0.0237948
0.0164083
0.0237989
0.0238913
0.0238899
0.0239088
0.023927
0.0239312
0.0239213
0.0239256
0.0239093
0.0203498
0.0211471
0.0238448
0.0205029
0.0193506
0.0214743
0.0206296
0.0238462
0.0191627
0.0202292
0.0238825
0.0235182
0.0236483
0.0232815
0.0234915
0.0238835
0.0231805
0.0223158
0.0224466
0.0177115
0.0223923
0.0222632
0.0192663
0.0237068
0.0237235
0.0239974
0.023854
0.0238532
0.023877
0.0238672
0.0238631
0.0238725
0.0206036
0.0238301
0.0238477
0.0239974
0.0238733
0.0238822
0.0238901
0.0177352
0.0179327
0.0159814
0.0222774
0.0222467
0.0181192
0.0184356
0.0236473
0.0237008
0.0138507
0.0240066
0.0240071
0.0240006
0.0240003
0.0240071
0.0240066
0.0239649
0.0239696
0.023965
0.0239513
0.023954
0.0239682
0.0239157
0.0239455
0.0239411
0.0239514
0.023947
0.0239177
0.0237901
0.0238465
0.023862
0.0238074
0.0225965
0.0223664
0.0238724
0.0237397
0.0237878
0.023774
0.0237645
0.018212
0.023995
0.0239925
0.0240001
0.0239766
0.0239652
0.023957
0.0239824
0.0239839
0.0239887
0.0239778
0.0239824
0.0239808
0.0239392
0.0239574
0.0239529
0.0239635
0.0239589
0.0239428
0.0239161
0.0232074
0.0236514
0.0228372
0.0229304
0.0238693
0.0236953
0.0237432
0.0239471
0.0238819
0.023921
0.0239443
0.023961
0.0239626
0.0239517
0.0239539
0.0239311
0.0239396
0.0239353
0.0239064
0.0238266
0.0225153
0.0222238
0.023842
0.0226973
0.0228093
0.0221733
0.0222571
0.0238216
0.0237566
0.0237242
0.0239077
0.023938
0.02394
0.0239294
0.0239323
0.0239067
0.023925
0.0239488
0.0239509
0.0239406
0.0239426
0.0239161
0.0238944
0.023675
0.023723
0.0236151
0.0235825
0.0238829
0.0239095
0.0239155
0.0239199
0.0239095
0.023914
0.0239084
0.0238514
0.0221416
0.0215699
0.0227607
0.0225888
0.0238516
0.0194147
0.0195946
0.0238496
0.0229416
0.022812
0.0191998
0.0193621
0.0228737
0.0226552
0.0239944
0.0239974
0.0239956
0.0223692
0.0235803
0.0225317
0.022644
0.0226158
0.0235645
0.0239961
0.0239948
0.0239982
0.0239933
0.023995
0.0168355
0.0171481
0.0177638
0.0177423
0.021596
0.0184066
0.0182088
0.0188061
0.0184611
0.0216763
0.0180882
0.0183357
0.0233904
0.0233504
0.0221699
0.0193186
0.018985
0.018464
0.0186219
0.0239875
0.0239898
0.0239927
0.0239859
0.0239888
0.0239863
0.0239523
0.0239671
0.0237954
0.0238413
0.0238598
0.0238118
0.0233074
0.0237376
0.0237036
0.0237725
0.0237482
0.0232969
0.0236239
0.0235913
0.0236931
0.0236427
0.0236897
0.0229878
0.0231192
0.0227418
0.0229207
0.0236782
0.0222371
0.0223134
0.0238266
0.0239743
0.0239639
0.0239847
0.0239774
0.0238583
0.0239076
0.023888
0.0239567
0.023916
0.0239835
0.0239896
0.0239861
0.023981
0.0239741
0.0239758
0.0239673
0.0239775
0.0239709
0.0239809
0.0239848
0.023973
0.0239796
0.023984
0.0239813
0.0239769
0.0230525
0.0231384
0.0239093
0.0223928
0.0220217
0.0232832
0.0224713
0.0214564
0.021085
0.0219041
0.0216103
0.0238738
0.0229624
0.0230296
0.0236563
0.0235749
0.0238781
0.0237241
0.0234754
0.0233798
0.02356
0.0234997
0.0239496
0.0237542
0.0237844
0.0238867
0.0239183
0.0239578
0.0239602
0.0239399
0.0239319
0.0239547
0.023957
0.0225776
0.0225636
0.023828
0.0204287
0.0204008
0.0188771
0.0202481
0.0202068
0.0206707
0.0203587
0.0202294
0.0225286
0.0226593
0.0238388
0.0204665
0.0200574
0.0209909
0.020591
0.0192675
0.0188191
0.0198982
0.019462
0.023823
0.0223216
0.022477
0.0237268
0.0237165
0.0239355
0.0239374
0.0239067
0.0239049
0.023933
0.0239348
0.023946
0.0239481
0.0239241
0.0239171
0.0239433
0.0239453
0.0167075
0.0169844
0.022576
0.0227817
0.0223059
0.0225032
0.0165573
0.0186705
0.0230467
0.0227116
0.0228371
0.0229976
0.0183575
0.0214049
0.0215216
0.0209418
0.0213611
0.0168038
0.0220371
0.0222505
0.0215868
0.021925
0.0168057
0.0236339
0.0236634
0.0238939
0.0234951
0.0235618
0.0235757
0.0234916
0.0235615
0.0238845
0.0235626
0.0236078
0.0206681
0.0172837
0.0173037
0.018069
0.0173799
0.0207837
0.0177536
0.0195434
0.0173293
0.0197217
0.0233926
0.0237995
0.0237799
0.0238224
0.0238059
0.0234104
0.023086
0.0231234
0.0196779
0.0198712
0.0187509
0.0191308
0.0230149
0.0229228
0.0240052
0.0240069
0.0240266
0.0238691
0.0238671
0.0238566
0.0240027
0.0240031
0.023999
0.0239983
0.0240029
0.0240027
0.0240149
0.0240143
0.0240029
0.0239758
0.0239711
0.0239671
0.0239497
0.023925
0.023921
0.0237702
0.0238563
0.0239279
0.0239235
0.0239001
0.0236965
0.0236799
0.0238031
0.0237334
0.0237568
0.023896
0.0239805
0.0239821
0.0239773
0.0239365
0.02395
0.0239747
0.0239857
0.0239825
0.0239849
0.0239664
0.0238758
0.0239306
0.0238724
0.0239168
0.0239125
0.0239448
0.0239419
0.0239427
0.0239294
0.0239642
0.0239658
0.0239594
0.0239054
0.0239338
0.0239294
0.0226742
0.0225603
0.0238365
0.0237936
0.0237189
0.0237122
0.0237526
0.0239106
0.0239297
0.0239303
0.0239268
0.0239404
0.0239412
0.0239309
0.0239315
0.0239137
0.0237873
0.022857
0.0227349
0.0239073
0.0239268
0.0239281
0.0239001
0.0239033
0.0239079
0.0175989
0.0176093
0.0230785
0.0229799
0.0238489
0.0175906
0.0175919
0.0237912
0.0237974
0.0238614
0.0239922
0.0239921
0.0165647
0.0169042
0.0169447
0.0176144
0.0178218
0.0168108
0.0168564
0.0178079
0.0176466
0.0188615
0.0230366
0.0229935
0.0232776
0.0195787
0.0193743
0.0222188
0.024008
0.0240075
0.0240008
0.023989
0.0239895
0.0239903
0.0239914
0.0239833
0.0239845
0.0239937
0.0239967
0.023995
0.023945
0.0239428
0.0239554
0.0239647
0.0239588
0.0239552
0.023808
0.0238294
0.0237315
0.0237428
0.0238541
0.0238296
0.0236816
0.023708
0.0233537
0.0233593
0.0235024
0.0234831
0.0232516
0.0233727
0.023388
0.0238959
0.0237662
0.0237918
0.0238676
0.0237634
0.0239037
0.0238868
0.0239729
0.0239656
0.0239372
0.0234687
0.0234033
0.0238443
0.0237245
0.0235536
0.0239923
0.0239905
0.0239865
0.0239868
0.0239799
0.023984
0.0239383
0.0239787
0.0239816
0.0237942
0.0238446
0.0239648
0.0233178
0.0232391
0.023897
0.0239104
0.0239706
0.0239722
0.0239702
0.0239603
0.0239674
0.023969
0.0238353
0.0225516
0.0225648
0.023691
0.0237058
0.0239362
0.0239369
0.0239222
0.0239191
0.0239348
0.0239355
0.0167109
0.0175986
0.0196822
0.0198117
0.018251
0.0183626
0.0162047
0.0229399
0.0228787
0.023791
0.0166915
0.0164845
0.017732
0.0177403
0.0165495
0.0181209
0.0181821
0.0163448
0.0164058
0.0239243
0.0239256
0.0239073
0.0239094
0.0239218
0.023923
0.0199389
0.0229139
0.0229767
0.0227803
0.0228472
0.01974
0.0235788
0.0238075
0.0238266
0.0238177
0.0238129
0.0235989
0.0233277
0.0235536
0.0235274
0.0231145
0.0230531
0.0231911
0.0179641
0.0180758
0.01812
0.0176198
0.0225053
0.0200027
0.0196862
0.0202808
0.0200803
0.0222069
0.0220502
0.0220837
0.0231537
0.0232617
0.0237402
0.0239966
0.0239975
0.0239956
0.0177452
0.0177995
0.0196243
0.0195806
0.0157784
0.0182999
0.0179579
0.0179642
0.0178276
0.0179038
0.0183906
0.0139477
0.0229201
0.0230044
0.0240038
0.0240033
0.0239989
0.0239327
0.0239289
0.0239505
0.0239472
0.0239574
0.0239651
0.0239529
0.0239555
0.0237814
0.0238513
0.0236077
0.0236273
0.023627
0.0236064
0.0238049
0.0236676
0.02366
0.0225469
0.0221376
0.0221271
0.0222181
0.022198
0.0224825
0.0239628
0.0239704
0.0239713
0.023968
0.0239694
0.0239602
0.0238771
0.023938
0.0239077
0.0238966
0.0239303
0.0239434
0.0239442
0.0237185
0.0237228
0.0237821
0.0237358
0.0239285
0.0239291
0.023909
0.023939
0.0239397
0.0239259
0.023915
0.0239322
0.0239328
0.0236161
0.0236812
0.0236556
0.0237016
0.0236941
0.0236091
0.0176266
0.0176654
0.0176198
0.0175977
0.0192565
0.0183064
0.0182597
0.0221854
0.0221892
0.0228076
0.0223243
0.0224197
0.0221507
0.0222243
0.0227298
0.0239939
0.0239932
0.0239934
0.0239939
0.0239966
0.0239969
0.023998
0.0239948
0.0239956
0.0239957
0.0224956
0.0230963
0.0230635
0.0231884
0.0231406
0.0225345
0.0227661
0.0229391
0.0228686
0.0230373
0.0230027
0.0227046
0.0239956
0.0239962
0.0239951
0.0239897
0.0239866
0.0239936
0.0239925
0.0166155
0.0174562
0.0169618
0.0169162
0.0177599
0.0177518
0.0191856
0.0192904
0.0182938
0.0168375
0.0167841
0.0179201
0.0171425
0.0171154
0.0171001
0.0186167
0.0173514
0.0170366
0.0230682
0.0231307
0.0234251
0.0228895
0.0229092
0.022838
0.0228523
0.0233113
0.022975
0.0230014
0.0184927
0.0176547
0.0177421
0.0175742
0.0175839
0.0185386
0.0239884
0.0239893
0.0239886
0.0239842
0.0239855
0.0239874
0.0239312
0.0239535
0.0239399
0.0239364
0.0239467
0.0239499
0.0239396
0.0239434
0.0238009
0.0238347
0.0236522
0.0236586
0.0236355
0.0236441
0.0238574
0.0237484
0.0237522
0.0236574
0.0236649
0.0238192
0.0236585
0.0234086
0.023368
0.0232729
0.0234668
0.0234457
0.0236102
0.0234101
0.0234044
0.0234749
0.0234377
0.0236007
0.0236803
0.0235049
0.0235253
0.023428
0.0234684
0.023663
0.0233923
0.0228012
0.0232626
0.02323
0.022193
0.0222314
0.0238128
0.0239189
0.0239114
0.0237951
0.0238853
0.0239471
0.0239304
0.0235756
0.0235191
0.0237794
0.0237921
0.0238949
0.0236951
0.0236363
0.02396
0.0239695
0.023984
0.0239765
0.0239475
0.0239117
0.0239461
0.023974
0.0239767
0.0239781
0.0239726
0.0239745
0.0239688
0.0239625
0.0239686
0.0239821
0.0239799
0.0239783
0.0239837
0.0239811
0.0239834
0.0239748
0.0239765
0.0239728
0.0239763
0.0222957
0.0221521
0.0230598
0.02203
0.0221569
0.0217644
0.0225403
0.021318
0.0211942
0.0217996
0.0217084
0.0236151
0.0232343
0.0233239
0.0230532
0.0231411
0.0235916
0.0238599
0.0237172
0.0237586
0.0233761
0.0236193
0.023817
0.0231656
0.0230233
0.0234504
0.0224607
0.0225563
0.0222937
0.0223765
0.0234222
0.0235447
0.0229034
0.0229739
0.022662
0.0227781
0.0235232
0.0238925
0.0239147
0.0204716
0.0189544
0.0191751
0.0185006
0.0187187
0.0204412
0.0192408
0.019296
0.0192941
0.0197845
0.0202697
0.0172857
0.017509
0.0176632
0.0173006
0.0204239
0.020317
0.0181117
0.0182984
0.017745
0.0179405
0.0202755
0.0203595
0.0202361
0.0208924
0.0207329
0.0190912
0.0189294
0.0197582
0.019637
0.0237037
0.023711
0.0239231
0.0239376
0.0239383
0.0239335
0.0239341
0.0239181
0.0167499
0.0192073
0.0194905
0.0173984
0.0162545
0.0185666
0.0188706
0.017121
0.0169014
0.02144
0.0190279
0.0190414
0.0211587
0.018746
0.0182375
0.019037
0.018962
0.0212896
0.0176026
0.0173539
0.0177856
0.0180162
0.0166939
0.0167387
0.0172858
0.0236473
0.023772
0.0237628
0.0237849
0.0237787
0.0236554
0.0235178
0.023549
0.0235458
0.0234879
0.0234871
0.0235129
0.0235599
0.0237195
0.0237089
0.0237498
0.0237342
0.0235793
0.0172663
0.0181679
0.0182688
0.018015
0.0180905
0.0172794
0.0178249
0.0188433
0.0190407
0.0184169
0.0186195
0.0175816
0.0177058
0.0169797
0.017025
0.0170612
0.0170129
0.0173409
0.017769
0.0179208
0.0172086
0.0174951
0.0172964
0.0235927
0.023576
0.0233693
0.0230789
0.0231658
0.0177605
0.0179191
0.0189003
0.0178891
0.0176796
0.0181984
0.0180917
0.0190343
0.0176575
0.0176465
0.0220957
0.0221169
0.0240598
0.0240597
0.0240731
0.0240596
0.0240595
0.0240729
0.0240595
0.0240595
0.024073
0.0240597
0.0240599
0.0240732
0.0240333
0.0240331
0.0240465
0.0240328
0.0240325
0.024053
0.0240323
0.0240319
0.0240527
0.024032
0.0240324
0.0240528
0.0240328
0.0240332
0.0240532
0.0240337
0.0240339
0.0240469
0.0240073
0.0240066
0.0240264
0.0240062
0.0240048
0.0240256
0.0240181
0.0240178
0.0240287
0.0240171
0.0240175
0.0240283
0.024019
0.0240194
0.024026
0.0240075
0.0240081
0.0240209
0.0239815
0.0239808
0.0240001
0.0239931
0.0239929
0.0239994
0.0239974
0.0239971
0.0240005
0.0239921
0.0239935
0.0240031
0.0239822
0.0239829
0.0239954
0.0239561
0.0239556
0.0239744
0.0239677
0.0239677
0.023974
0.0239721
0.0239721
0.0239751
0.023968
0.023969
0.023978
0.0239577
0.0239581
0.0239705
0.0239309
0.0239307
0.0239494
0.0239429
0.0239432
0.0239493
0.0239482
0.0239483
0.0239512
0.0239452
0.0239456
0.0239543
0.0239336
0.0239335
0.0239458
0.0239055
0.0239056
0.0239244
0.0239181
0.0239185
0.0239247
0.0239244
0.0239245
0.0239275
0.0239221
0.0239218
0.0239308
0.0239091
0.0239086
0.0239211
0.0238798
0.02388
0.0238992
0.0238996
0.0238998
0.023903
0.0238979
0.0238971
0.0239064
0.0238841
0.0238834
0.0238961
0.0238539
0.023854
0.0238736
0.0238722
0.0238721
0.0238785
0.0238583
0.0238578
0.0238706
0.0238273
0.0238268
0.0238401
0.0238271
0.0238265
0.0238464
0.0238395
0.0238331
0.0238432
0.0184162
0.0235449
0.0235803
0.0238322
0.0238326
0.0238523
0.0238317
0.0238319
0.0238449
0.023801
0.0238006
0.0238137
0.0238009
0.0238
0.0238199
0.0237997
0.0201413
0.020096
0.0223702
0.0238054
0.0238254
0.0238055
0.0238062
0.0238257
0.0238053
0.0238055
0.0238187
0.0237747
0.0237742
0.0237874
0.0237627
0.0218929
0.0201524
0.0231198
0.0237774
0.0237986
0.0237794
0.0237799
0.023793
0.0239782
0.0239813
0.0239813
0.0239824
0.0239835
0.0239787
0.024001
0.0239977
0.0239979
0.0239542
0.0239571
0.0239571
0.0239593
0.0239594
0.0239552
0.0239771
0.0239725
0.0239736
0.0239305
0.0239335
0.0239334
0.0239367
0.0239372
0.023933
0.0239538
0.0239496
0.0239509
0.0239061
0.0239092
0.023909
0.0239133
0.0239142
0.0239098
0.0239316
0.0239274
0.0239281
0.0238886
0.0238883
0.0238851
0.0239068
0.0239038
0.0239042
0.0238466
0.0238599
0.0238638
0.0157676
0.0191663
0.0191927
0.0217996
0.0218109
0.0140085
0.0238819
0.0238787
0.0238789
0.0240029
0.0240142
0.0240146
0.0239995
0.0239994
0.0239984
0.0240284
0.0240174
0.0240171
0.0239993
0.0239995
0.024008
0.0240078
0.0240043
0.0240288
0.024018
0.0240184
0.0239802
0.0239865
0.0239867
0.0239882
0.0239863
0.0239801
0.0239991
0.0239927
0.0239914
0.0239899
0.0239895
0.0239867
0.024
0.0239981
0.0239985
0.023981
0.0239903
0.0239889
0.0239879
0.0239879
0.0239819
0.0240004
0.0239941
0.0239942
0.0239554
0.0239616
0.0239615
0.0239633
0.0239616
0.0239555
0.0239739
0.0239677
0.0239663
0.0239661
0.0239691
0.0239691
0.02396
0.0239643
0.0239625
0.0239745
0.0239729
0.0239712
0.02397
0.0239668
0.023971
0.0239572
0.023966
0.0239651
0.0239636
0.0239639
0.023958
0.0239758
0.0239699
0.0239696
0.0239309
0.023937
0.0239367
0.0239394
0.0239373
0.0239312
0.0239495
0.0239434
0.0239424
0.0239424
0.0239453
0.0239452
0.0239122
0.0239351
0.0239336
0.0239448
0.023943
0.0239227
0.0239338
0.0239426
0.0239423
0.0239396
0.0239403
0.0239344
0.0239521
0.0239462
0.0239456
0.023906
0.0239123
0.0239118
0.0239152
0.0239127
0.0239064
0.0239251
0.0239189
0.0239183
0.0239185
0.0239215
0.0239213
0.0238994
0.023922
0.0239175
0.0239216
0.0239203
0.0239015
0.0238677
0.0237698
0.0237822
0.0239096
0.0239187
0.0239192
0.0239155
0.0239164
0.0239102
0.0239284
0.0239224
0.0239216
0.0238874
0.0238216
0.0238345
0.0238719
0.0238738
0.023896
0.0238849
0.0238911
0.0238948
0.0238908
0.0238915
0.0238852
0.0239041
0.0238978
0.023897
0.0238694
0.0238611
0.0238602
0.0238645
0.0238642
0.0238765
0.0238224
0.0238298
0.0238329
0.0182513
0.0237608
0.0237486
0.0222563
0.0222669
0.0168921
0.0238173
0.0238269
0.0207076
0.0238387
0.0238388
0.0238299
0.0238531
0.0238422
0.0238455
0.023977
0.0239778
0.0239762
0.0239885
0.0239836
0.0239821
0.0239844
0.0239844
0.0239875
0.0239849
0.0239823
0.0239866
0.0239986
0.0239982
0.0240001
0.0239877
0.0239894
0.0239898
0.0239747
0.0239728
0.0239717
0.0239873
0.0239863
0.0239866
0.0239882
0.0239851
0.0239853
0.0239856
0.023986
0.0239876
0.0239767
0.0239782
0.0239775
0.0239322
0.0239486
0.0239467
0.0239606
0.0239586
0.0239504
0.0239601
0.0239601
0.0239631
0.0239294
0.0238833
0.0238964
0.0237264
0.0237335
0.0238607
0.0239051
0.0239115
0.0239415
0.0239652
0.0239609
0.0239622
0.023954
0.0239587
0.0239599
0.0239712
0.0239737
0.0239752
0.0239609
0.0239618
0.0239576
0.0239707
0.023971
0.0239666
0.0239037
0.0239242
0.0239229
0.0239322
0.0239309
0.0239085
0.0239363
0.0239365
0.0239394
0.0238234
0.0236601
0.0236549
0.0237106
0.0237053
0.0238397
0.023849
0.0237129
0.0237196
0.0236518
0.0236504
0.0238206
0.0239427
0.0239386
0.0239396
0.0239238
0.0239242
0.0239086
0.0239481
0.0239483
0.0239441
0.0238196
0.0233094
0.0232291
0.0236167
0.0236013
0.023835
0.0238451
0.0237215
0.0237162
0.0232037
0.0231155
0.0238077
0.0238954
0.023867
0.0238697
0.0237955
0.0238064
0.0238786
0.0239201
0.0239157
0.0239163
0.0239088
0.0239165
0.0239178
0.0239083
0.0239097
0.0239062
0.0239079
0.0239229
0.0239234
0.0239191
0.0239204
0.0239092
0.0239252
0.0239259
0.0239216
0.0238507
0.0237276
0.0237197
0.0237624
0.023758
0.0238515
0.0238415
0.0236447
0.023631
0.0237111
0.0237018
0.0238485
0.0238802
0.0238644
0.0238645
0.0238381
0.0238473
0.0238853
0.0239026
0.0239054
0.0239068
0.023897
0.0239016
0.0238988
0.0239011
0.0239007
0.0238977
0.0238419
0.0231728
0.0231066
0.0230117
0.0231326
0.023839
0.0238507
0.02377
0.0237664
0.0238596
0.023797
0.0237931
0.0239907
0.0239939
0.0239941
0.0239938
0.0239951
0.0239901
0.0240002
0.0239968
0.0239955
0.0239986
0.0239974
0.0239979
0.02389
0.0238874
0.0238809
0.0239001
0.0238938
0.0238932
0.0238934
0.0238966
0.0238965
0.0238867
0.0238957
0.0238925
0.0239019
0.0238988
0.0238877
0.0236106
0.0234284
0.0234547
0.0232497
0.0232929
0.0235254
0.0238591
0.0238656
0.0238689
0.0239984
0.023998
0.0239992
0.0239904
0.0239921
0.0239929
0.0239955
0.0239971
0.0240022
0.0239904
0.0239954
0.0239938
0.0239947
0.0239945
0.0239913
0.023894
0.0239098
0.0239049
0.023916
0.0239114
0.0238947
0.0239121
0.0239123
0.0239154
0.0214047
0.0203333
0.0202233
0.0208972
0.0207908
0.0218359
0.0234524
0.0231705
0.0232071
0.0238946
0.0238915
0.0238918
0.023889
0.0238907
0.0238954
0.0238844
0.023889
0.0238876
0.0220568
0.0211019
0.0210027
0.0215223
0.0214574
0.0223078
0.0238766
0.023878
0.0238812
0.0238715
0.0238748
0.023875
0.0238757
0.0238755
0.0238722
0.0240153
0.0240092
0.0240088
0.0240099
0.0240096
0.0240155
0.0240012
0.0240075
0.024008
0.0240042
0.024004
0.024002
0.0240155
0.0240096
0.02401
0.0240089
0.0240092
0.0240153
0.0239935
0.0239905
0.0239916
0.0239962
0.0239976
0.0239996
0.0239924
0.0239934
0.0239928
0.0239967
0.0239963
0.0239945
0.0237981
0.0238162
0.0238879
0.0238956
0.0238808
0.0238818
0.0237088
0.0235875
0.0236009
0.0234787
0.0234994
0.0236511
0.0236978
0.0238252
0.0238217
0.0238305
0.0238281
0.0237073
0.0238752
0.0238639
0.0238634
0.0239745
0.0239806
0.0239832
0.0239772
0.0239549
0.0239713
0.0239673
0.0239805
0.023977
0.0239921
0.023991
0.0239897
0.0239915
0.0239911
0.0239928
0.0239795
0.0239784
0.0239795
0.0239823
0.0239815
0.0239805
0.0237894
0.023799
0.0238976
0.023883
0.0237725
0.0237807
0.0239432
0.0239475
0.023961
0.0239545
0.0239347
0.0239389
0.0239482
0.0239492
0.0239359
0.0239616
0.0239609
0.0239594
0.0239638
0.0239624
0.0239631
0.023956
0.0239552
0.0239537
0.023958
0.0239566
0.0239574
0.0239335
0.0239466
0.0239474
0.0239689
0.0239699
0.0239681
0.0239733
0.0239728
0.0239713
0.0239757