/*--------------------------------*- C++ -*----------------------------------*\
| =========                 |                                                 |
| \\      /  F ield         | OpenFOAM: The Open Source CFD Toolbox           |
|  \\    /   O peration     | Version:  5.x                                   |
|   \\  /    A nd           | Web:      www.OpenFOAM.org                      |
|    \\/     M anipulation  |                                                 |
\*---------------------------------------------------------------------------*/
FoamFile
{
    version     2.0;
    format      ascii;
    class       volScalarField;
    location    "300";
    object      p;
}
// * * * * * * * * * * * * * * * * * * * * * * * * * * * * * * * * * * * * * //

dimensions      [0 2 -2 0 0 0 0];

internalField   nonuniform List<scalar> 
6584
(
20.9978
19.1733
17.3484
15.5238
13.6993
11.8748
10.0505
8.22664
6.40305
4.57943
2.75524
0.929885
-0.897025
-2.72538
-4.5546
-6.38403
-8.21316
-10.0418
-11.8702
-13.6982
-15.526
-17.353
-19.1792
-21.0044
20.9993
19.1777
17.354
15.5298
13.7055
11.88
10.0533
8.22797
6.40419
4.58085
2.75694
0.931782
-0.895178
-2.72383
-4.55344
-6.38367
-8.21416
-10.0444
-11.8746
-13.7039
-15.5319
-17.3591
-19.184
-21.0056
20.9997
19.1809
17.3606
15.5379
13.714
11.8886
10.0597
8.23088
6.4058
5.03814
3.21561
1.39158
-0.434916
-2.264
-4.09471
-6.38734
-8.22237
-10.0546
-11.8849
-13.7134
-15.5402
-17.3654
-19.1869
-21.0067
20.9997
19.1815
17.3629
15.543
13.7207
11.8965
10.0679
8.23761
6.40987
5.04037
3.21958
1.39734
-0.428878
-2.26047
-4.09975
-5.93835
-8.23829
-10.0687
-11.8965
-13.7228
-15.5473
-17.3689
-19.1883
-21.0074
20.9993
19.1813
17.3631
15.5447
13.7249
11.9024
10.077
8.25234
6.87486
5.04508
3.2251
1.40558
-0.419806
-2.26413
-4.1188
-5.96213
-7.79503
-10.0815
-11.9066
-13.7304
-15.5515
-17.3708
-19.1895
-21.0082
20.9988
19.1809
17.3627
15.5447
13.7263
11.9063
10.0854
8.71939
6.8962
5.07252
3.47026
1.64809
-0.172768
-2.04775
-4.14254
-5.98088
-7.80899
-10.0922
-11.915
-13.7354
-15.5542
-17.3725
-19.1906
-21.0089
20.9984
19.1804
17.3623
15.5441
13.7258
11.907
10.0875
8.72151
6.90244
5.08697
3.50375
1.80203
-0.0122822
-2.06997
-3.93592
-6.0001
-7.82335
-10.1018
-11.9212
-13.7389
-15.5564
-17.374
-19.1917
-21.0095
20.998
19.1799
17.3617
15.5434
13.7248
11.9058
10.0868
8.72163
6.89943
5.07846
3.49103
1.80705
-2.02301
-3.97261
-6.01984
-7.8362
-10.1081
-11.9253
-13.7416
-15.5583
-17.3753
-19.1925
-21.01
20.9976
19.1795
17.3612
15.5426
13.7237
11.9041
10.0841
8.71884
6.89277
5.0623
3.4569
1.71764
-2.13885
-4.01238
-6.03533
-7.84321
-10.1101
-11.9269
-13.7434
-15.5597
-17.3761
-19.1931
-21.0102
20.9973
19.1791
17.3607
15.5419
13.7229
11.903
10.0823
8.71548
6.88596
5.05069
3.43593
1.68029
-2.18944
-4.03351
-6.04173
-7.8451
-10.1082
-11.9247
-13.7426
-15.56
-17.3764
-19.1933
-21.0101
20.9972
19.1788
17.3603
15.5415
13.7224
11.9025
10.0816
8.71386
6.88383
5.04965
3.43743
1.69443
-2.16404
-4.0234
-6.03428
-7.83923
-10.1021
-11.9189
-13.738
-15.5581
-17.3761
-19.193
-21.0098
20.9972
19.1787
17.3602
15.5414
13.7224
11.9029
10.0821
8.71414
6.88614
5.05713
3.4549
1.73927
-2.09381
-3.98975
-6.0154
-7.82629
-10.092
-11.9103
-13.7305
-15.5528
-17.374
-19.1923
-21.0092
20.9973
19.1788
17.3604
15.5417
13.723
11.904
10.0837
8.71615
6.89087
5.06738
3.47484
1.78075
-2.02015
-3.94795
-5.9908
-7.80879
-10.0785
-11.8991
-13.721
-15.545
-17.3699
-19.1912
-21.0084
20.9975
19.179
17.3606
15.5421
13.7237
11.9052
10.0852
8.26304
6.89498
5.0726
3.48027
1.77441
0.0578415
-2.06812
-3.90971
-5.96337
-7.7889
-10.0624
-11.8858
-13.7098
-15.5369
-17.3642
-19.1881
-21.0073
20.9976
19.1792
17.3609
15.5425
13.7242
11.9057
10.0847
8.25863
6.89076
5.05652
3.45839
1.6458
-0.175216
-2.034
-4.10657
-5.94047
-8.22509
-10.0512
-11.877
-13.7017
-15.5296
-17.3566
-19.1816
-21.0046
20.9978
19.1793
17.361
15.5425
13.7241
11.9052
10.0821
8.25051
6.87492
5.04836
3.22763
1.63427
-0.195957
-2.25956
-4.0982
-5.93234
-8.21852
-10.0455
-11.8715
-13.6994
-15.5253
-17.3511
-19.1762
-21.0018
20.9979
19.1793
17.3609
15.5424
13.7237
11.9036
10.0778
8.24539
6.41472
5.0467
3.22338
1.39824
-0.427221
-2.26123
-4.09634
-5.92759
-8.21233
-10.039
-11.8661
-13.694
-15.5211
-17.3475
-19.1748
-21.0004
20.9979
19.1792
17.3606
15.5419
13.7226
11.9006
10.0725
8.24092
6.41316
4.58946
3.22042
1.39627
-0.435341
-2.26343
-4.55127
-6.38066
-8.20856
-10.0356
-11.8627
-13.6901
-15.5169
-17.3437
-19.171
-20.9984
20.9979
19.1791
17.3602
15.5412
13.7215
11.8972
10.0673
8.23777
6.41141
4.58753
2.75903
0.937674
-0.890883
-2.72444
-4.54959
-6.37902
-8.20625
-10.0333
-11.8602
-13.6873
-15.514
-17.3411
-19.1679
-20.9964
20.9978
19.1788
17.3597
15.5405
13.7203
11.8946
10.0639
8.23616
6.41015
4.58623
2.75834
0.935088
-0.89241
-2.72334
-4.54876
-6.37785
-8.20448
-10.0316
-11.8582
-13.6851
-15.512
-17.3389
-19.1656
-20.9949
20.9977
19.1785
17.3591
15.5396
13.7191
11.8927
10.0617
8.23501
6.40925
4.5851
2.75765
0.932939
-0.894088
-2.72295
-4.54843
-6.37694
-8.20318
-10.0303
-11.8566
-13.6834
-15.5103
-17.3371
-19.1636
-20.9936
20.9975
19.1781
17.3584
15.5386
13.7178
11.8913
10.0604
8.23409
6.40825
4.58416
2.75698
0.931794
-0.894951
-2.72291
-4.54833
-6.37632
-8.20225
-10.0293
-11.8554
-13.6821
-15.5089
-17.3356
-19.162
-20.9926
20.9973
19.1777
17.3577
15.5377
13.7166
11.8901
10.0592
8.23297
6.40739
4.58341
2.75653
0.931077
-0.895474
-2.72286
-4.54827
-6.37585
-8.20158
-10.0285
-11.8544
-13.6811
-15.5077
-17.3343
-19.1606
-20.9916
20.9971
19.1772
17.357
15.5368
13.7155
11.8889
10.0582
8.23193
6.40662
4.58261
2.75618
0.930574
-0.895847
-2.72284
-4.54824
-6.37547
-8.20108
-10.0279
-11.8536
-13.6802
-15.5067
-17.3332
-19.1595
-20.9908
20.9968
19.1768
17.3563
15.5358
13.7143
11.8878
10.0572
8.23096
6.40574
4.58182
2.75589
0.930199
-0.896107
-2.72281
-4.54821
-6.37518
-8.20068
-10.0274
-11.853
-13.6796
-15.5059
-17.3323
-19.1585
-20.9902
20.9966
19.1763
17.3556
15.5349
13.7132
11.8868
10.0563
8.23005
6.40484
4.58106
2.75512
0.929521
-0.89666
-2.72304
-4.54841
-6.37515
-8.2006
-10.0272
-11.8528
-13.6793
-15.5054
-17.3316
-19.1576
-20.9896
20.9963
19.1759
17.355
15.5341
13.7121
11.8858
10.0555
8.22925
6.40398
4.57966
2.75372
0.92817
-0.89785
-2.72406
-4.54943
-6.37597
-8.20139
-10.0279
-11.8535
-13.6798
-15.5057
-17.3318
-19.1577
-20.9895
20.9961
19.1755
17.3544
15.5333
13.7111
11.8848
10.0547
8.22846
6.40276
4.5779
2.75205
0.926448
-0.899545
-2.72566
-4.55101
-6.3774
-8.20278
-10.0292
-11.8547
-13.681
-15.5067
-17.3328
-19.1586
-20.9898
20.9958
19.175
17.3538
15.5326
13.7102
11.8839
10.054
8.22729
6.40113
4.57621
2.75038
0.924769
-0.901201
-2.72724
-4.55257
-6.37883
-8.20417
-10.0305
-11.856
-13.6821
-15.5078
-17.3338
-19.1595
-20.9902
20.9956
19.1747
17.3532
15.5318
13.7094
11.883
10.0528
8.22563
6.39953
4.57454
2.74875
0.923124
-0.902821
-2.72877
-4.55412
-6.38024
-8.20557
-10.0318
-11.8572
-13.6833
-15.5089
-17.3349
-19.1605
-20.9905
20.9954
19.1743
17.3526
15.5311
13.7084
11.8816
10.051
8.22397
6.39792
4.57288
2.74714
0.921508
-0.904415
-2.7303
-4.55563
-6.38167
-8.20697
-10.0331
-11.8585
-13.6845
-15.51
-17.3359
-19.1616
-20.9909
20.9952
19.1739
17.3521
15.5305
13.7069
11.8792
10.049
8.22231
6.39633
4.57125
2.74554
0.919911
-0.905988
-2.73181
-4.55714
-6.38306
-8.20837
-10.0344
-11.8597
-13.6857
-15.5112
-17.3371
-19.1627
-20.9914
20.9951
19.1736
17.3517
15.5295
13.7045
11.8764
10.047
8.22065
6.39475
4.5696
2.74397
0.918335
-0.907543
-2.7333
-4.5586
-6.38448
-8.20975
-10.0357
-11.861
-13.6869
-15.5124
-17.3382
-19.1637
-20.9918
20.9949
19.1733
17.3513
15.528
13.7016
11.8736
10.0451
8.21899
6.39317
4.56799
2.74237
0.916771
-0.909091
-2.73477
-4.56008
-6.38587
-8.21114
-10.037
-11.8623
-13.6881
-15.5136
-17.3393
-19.1648
-20.9921
20.9948
19.1731
17.3509
15.5265
13.6988
11.8709
10.0431
8.21732
6.39156
4.56634
2.74077
0.91523
-0.910619
-2.73621
-4.56155
-6.38722
-8.21254
-10.0383
-11.8636
-13.6894
-15.5148
-17.3404
-19.1659
-20.9925
20.9948
19.1728
17.3506
15.5255
13.697
11.8686
10.0412
8.21566
6.39003
4.56472
2.73916
0.913661
-0.912181
-2.73765
-4.563
-6.38861
-8.21394
-10.0396
-11.865
-13.6906
-15.516
-17.3416
-19.167
-20.993
1.72624
-1.91022
-1.79109
1.68198
-1.97551
-1.9235
1.69026
-1.95446
-1.97763
1.73341
-1.88249
-1.94715
1.77643
-1.8021
-1.87228
1.78749
0.183984
0.0637023
-1.73494
-1.79276
1.81657
0.217629
-1.77413
-1.70744
3.4651
1.96056
2.02984
-1.0311
-0.887482
-2.12712
-3.55681
-3.51793
3.43902
1.91846
1.95268
1.69723
0.920861
0.947016
-1.20197
-1.15953
-2.18714
-3.59057
-3.56809
3.43507
1.92418
1.91687
1.67994
0.904002
0.902392
-1.23737
-1.24334
-2.17098
-3.58689
-3.59332
3.44979
1.96197
1.92788
1.70972
0.9573
0.929463
-1.12419
-1.1772
-2.10326
-3.55207
-3.58033
-0.999472
-1.07383
-2.02889
-3.50517
-3.54074
-0.903347
-0.943494
1.6496
0.164937
0.174685
-0.0647722
-1.56649
-1.72697
0.951756
1.00199
1.75792
0.883137
0.830657
0.991727
0.893027
-1.15612
-1.07206
-1.86385
-1.15232
-1.20934
0.903189
0.917591
1.69224
0.828729
0.811123
0.826285
0.829952
-1.239
-1.20731
-1.96101
-1.2618
-1.27946
-1.21215
-1.25799
-1.95369
0.926039
0.906483
1.68154
0.81382
0.83767
0.811451
0.811634
-1.1827
-1.23329
-1.97156
-1.27304
-1.23919
-1.28245
-1.2767
-1.97519
0.846055
0.880365
0.840133
0.841076
-1.07699
-1.12285
-1.91177
-1.17821
-1.16102
-1.2347
-1.18008
-1.9213
0.915322
0.940652
0.884412
0.911472
-0.94957
-0.99331
-1.15496
-1.11157
-1.8414
0.962752
0.937555
0.942979
0.9607
-0.851493
-0.89915
1.77007
1.01222
1.09931
-0.536913
-0.385156
3.4702
2.00112
1.96727
1.75626
1.02398
0.997635
-0.492635
-0.516411
-1.96515
-3.46107
-3.49337
0.613864
0.489259
-1.00987
-1.13809
-1.84589
0.993716
0.961953
1.71551
0.43231
0.456706
0.512678
0.527135
0.454674
0.470774
-0.520135
-0.542284
-1.83145
-1.10537
-1.06306
0.528563
0.534954
-1.05725
-1.01877
-1.7658
0.223465
0.953479
1.00411
-0.86912
-0.744045
0.0963991
-0.564481
-0.973885
-0.615081
-0.455592
-0.596299
-0.952889
-1.18102
-1.18282
-1.25175
-1.25161
-1.15287
-1.15041
-1.01774
-0.625816
-1.04901
-0.468804
-0.490292
-0.574599
-0.551832
-0.92533
0.422502
0.855679
0.459008
0.479322
0.460862
0.848097
0.482453
0.541819
0.93253
0.474805
0.421486
-1.1216
-1.11715
0.814867
0.814941
0.840879
0.839996
-1.213
-1.20993
-1.25297
-1.60335
-1.59336
-1.61399
-1.60623
-1.25604
-1.23266
-1.56955
-1.55026
-1.58938
-1.57489
-1.23324
0.825426
0.827271
0.809069
0.809674
-1.19505
-1.1998
-1.24209
-1.60064
-1.61128
-1.58211
-1.59632
-1.2378
-1.29054
-1.61867
-1.61579
-1.61402
-1.61838
-1.29052
0.434814
0.860954
0.487626
0.458431
0.511792
0.487052
0.865946
0.82154
0.46126
0.825884
-1.09946
-1.10168
-1.20691
-1.56053
-1.5765
-1.53839
-1.55515
-1.20581
0.489197
0.509551
0.896339
0.527213
0.511772
0.544788
0.528813
0.900055
0.471497
0.487231
-0.968049
-0.598908
-0.577947
-0.618619
-0.598285
-0.974556
-0.535566
0.521971
0.535173
0.196989
0.536101
0.517973
-0.017043
-0.41658
-0.466266
-0.0457852
3.48421
2.1281
2.0051
1.79177
1.125
1.11152
-0.032006
-0.741738
-0.788267
0.425101
1.05182
1.02762
1.76164
0.298528
0.291273
0.171967
0.521654
0.502077
0.29958
0.310719
-0.366833
-0.402424
0.0350982
0.311096
0.621109
0.626651
-0.363662
-0.271159
0.177402
0.929837
1.29017
1.27956
-1.18524
-1.02326
-1.16779
0.901339
1.26347
1.2645
1.26449
1.2623
0.901202
-1.24618
-1.248
-1.13713
-1.15666
-0.228786
-0.232366
-0.919519
-0.549285
-0.557518
0.879551
0.870115
0.198568
0.947436
0.554044
0.664727
-1.13931
-0.982568
-1.01637
-1.19182
-1.50736
-1.47352
-1.5428
-1.51639
-1.2024
0.906651
1.26931
1.26428
1.27789
1.27001
0.908238
0.820331
0.626456
0.653476
0.621672
0.621111
0.813047
0.656124
0.65546
0.834653
-1.23014
-1.20093
-1.25766
-1.41544
-1.38782
-1.43655
-1.4307
-1.27096
1.26665
1.27051
0.914905
0.819269
0.642259
0.619694
0.809799
0.620769
0.621831
0.615127
0.614678
0.810114
-1.18038
-1.22087
-1.26123
-1.42555
-1.43149
-1.36542
-1.40096
-1.23825
-1.28754
-1.44095
-1.43684
-1.43438
-1.43808
-1.28508
-1.0861
-0.912705
-0.911403
-0.977107
-0.958369
-1.11555
-1.18688
-1.51559
-1.5327
-1.49277
-1.50972
-1.1809
0.927107
0.563987
0.546899
0.609238
0.598245
0.930762
0.323114
0.327957
0.950674
0.618007
0.61222
0.319242
0.321827
-0.223338
-0.22275
-0.48226
-0.153254
-0.458361
-0.273115
-0.503901
-0.332395
-0.309522
-0.343923
-0.508444
0.55351
0.377699
0.479966
0.355135
0.533766
0.429542
0.442614
0.30357
0.301687
0.520555
0.352618
0.350784
0.353502
0.350973
0.521757
0.451952
0.457265
-0.527463
-0.528073
0.531938
0.36543
0.359872
0.307173
0.300117
-0.660091
-0.813718
-0.773718
-0.856308
-0.825439
-0.680669
-1.18052
-1.17255
-1.24839
-1.25064
-1.14291
-1.15087
-0.659416
-0.811515
-0.821694
-0.799247
-0.809878
-0.654498
-0.830514
-0.852983
-0.826408
-0.827189
-0.477858
-0.297133
-0.289923
-0.316193
-0.298503
-0.480508
-0.236991
-0.267956
0.450153
0.647039
0.637512
0.670171
0.651638
0.451013
0.615391
0.617111
0.632894
0.616877
0.508181
0.696003
0.675696
0.44951
0.44449
-0.965125
-0.9756
-1.13568
-0.923023
-0.887142
-0.865975
-0.912163
-0.89396
-1.09901
-0.944895
-0.957898
0.618685
0.621033
0.818881
0.560642
0.559034
0.598266
0.563182
0.561864
0.563001
0.559968
0.562759
0.812853
0.621262
0.619374
0.59258
0.586941
0.617204
0.60092
0.595349
0.599727
0.588594
0.593534
0.835244
0.654687
0.6526
-1.22735
-1.20274
-1.42145
-1.41567
-1.25292
-1.26794
-1.42985
-1.42255
0.648649
0.644851
0.821676
0.590428
0.590855
0.547906
0.585514
0.582411
0.594032
0.589579
0.584606
0.618722
0.62054
0.810241
0.561734
0.559197
0.563365
0.561888
0.554101
0.549989
0.558559
0.55589
0.80923
0.615879
0.618042
-1.18162
-1.21476
-1.41464
-1.42217
-1.25604
-1.23364
-1.40377
-1.41114
-1.44242
-1.44054
-1.28926
-1.28715
-1.44025
-1.44116
0.430876
0.467073
0.650615
0.660646
0.636957
0.64636
0.454642
0.50265
0.676132
0.653746
0.663298
0.672789
0.494643
0.610873
0.61029
0.602979
0.610249
0.46787
0.626702
0.634941
0.611162
0.62271
0.462476
-0.937246
-0.919186
-1.09001
-0.869773
-0.896517
-0.856823
-0.860184
-0.90084
-1.11103
-0.948806
-0.93103
0.494256
0.315005
0.324399
0.345074
0.314231
0.497271
0.301361
0.473393
0.326918
0.476895
-0.617855
-0.788519
-0.795978
-0.774175
-0.785116
-0.609892
-0.557126
-0.568036
0.331203
0.34388
0.303717
0.317938
-0.199674
-0.221682
-2.00891
-3.50532
-3.47507
-1.75769
-1.06839
-1.03683
0.361693
0.491926
0.47784
-0.0172119
0.0241388
0.293751
-1.73928
-0.998582
-0.993501
1.30672
1.29287
0.933325
-1.19609
-1.15422
-1.16101
-1.24179
-1.24489
1.28319
1.29145
0.940137
-1.13603
-1.12814
-1.17062
-0.90885
-0.891942
-1.06323
0.969179
1.32841
1.31073
0.677422
0.680262
0.835354
-0.916213
-0.938614
-1.0935
0.849289
0.663407
0.676344
-1.23552
-1.16826
-1.17429
-1.21082
-1.33615
-1.33375
-1.27646
-1.3833
-1.37712
-1.24357
0.917391
1.27341
1.27974
0.654873
0.646793
0.832634
-1.18659
-1.14839
-1.14231
-1.22941
-1.26942
-1.3283
-1.33126
-1.28435
-1.34013
-1.33835
-1.33419
-1.33682
-1.28032
0.814662
0.66764
0.659539
-1.21838
-1.3566
-1.36266
-1.13621
-1.46966
-1.48699
0.212053
0.212879
0.629065
0.620274
0.952742
0.210219
0.210717
-0.552022
-0.534297
-0.883684
-0.524242
-0.474532
0.430043
0.405105
0.40816
0.457216
0.452299
0.397295
0.40137
0.41618
0.414347
0.468992
-0.495616
-0.486497
-0.538345
0.360447
0.363732
0.532394
-0.827373
-0.416532
-0.43599
-0.583715
-0.627429
-0.680462
-0.665676
-0.758828
-0.742451
-0.760832
-0.72155
-0.538672
-1.12489
-1.1282
-1.17862
-1.18149
-1.12776
-1.12996
-1.25312
-1.25176
-1.09875
-1.09666
-1.15208
-1.14727
-1.09414
-1.09297
-0.701895
-0.710996
-0.680777
-0.687297
-0.635379
-0.720659
-0.729309
-1.05985
-0.88825
-0.882228
0.424172
0.456893
0.514503
0.514676
0.54353
0.537062
0.475004
0.495878
0.499242
0.511548
0.494809
0.455209
0.696049
0.701851
0.515645
0.462848
0.397659
0.40085
0.423858
-0.78809
-0.776757
0.652097
0.657832
0.847573
0.501899
0.504524
-1.21717
-1.20706
-1.36155
-1.35584
-1.22403
-1.23923
-1.37106
-1.36611
0.830695
0.646873
0.648378
-1.18931
-1.20431
-1.34521
-1.34512
-1.29049
-1.29063
-1.34487
-1.34505
0.436814
0.486965
0.542052
0.544284
0.515168
0.514734
0.455283
0.672195
0.669288
0.817705
0.493098
0.489527
0.501037
0.507335
0.464226
0.517012
0.516282
0.485606
0.482911
-1.34452
-1.34996
-1.21334
-1.19573
-1.33337
-1.33951
0.517196
0.664962
0.669408
0.656559
0.660132
0.513501
-0.588341
-0.734626
-0.771269
-0.722626
-0.728712
-0.586083
-0.616684
-0.677687
-0.677422
-0.538471
-0.500541
-0.583107
0.190064
0.224995
0.236984
0.212344
0.542925
0.372078
0.362703
0.378427
0.373901
0.514841
-0.0640266
-0.0900368
-0.285431
-0.281847
-0.455399
0.395653
0.424586
0.361709
0.29472
0.291633
0.327634
0.323384
0.16479
0.311827
0.267959
0.265048
0.260072
0.264957
0.312968
0.100535
-0.155795
-0.18874
-0.326894
-0.0670506
-0.108102
-1.14265
-1.14808
-1.19048
-1.02698
-1.05526
-1.0586
-1.06646
-1.05987
-1.24486
-1.2461
-1.02228
-1.03003
-1.00803
-1.01411
-1.16347
-1.11956
-1.11142
-0.2361
-0.182038
-0.171618
-0.194566
-0.190656
-0.240035
-0.992798
-1.03727
-1.03008
-1.05468
-1.04639
-1.00478
-1.2324
-1.20953
-1.17605
-1.17561
-1.27358
-1.33141
-1.32893
-1.15916
-1.15395
-1.18639
-1.2265
-1.32155
-1.32513
-1.26591
-1.34283
-1.34147
-1.28585
-1.28313
-1.3391
-1.3408
-0.973124
-1.01277
-1.0062
-1.00431
-1.01027
-0.96594
0.212678
0.211909
0.212691
0.2101
0.31991
0.26288
0.263769
-0.120009
-0.121674
-0.221621
-0.15857
-0.167364
-0.163062
-0.157571
-0.220338
-0.429503
-0.446723
-0.504843
-0.372615
-0.190398
-0.269897
-0.230038
-0.335751
-0.311311
-0.242272
-0.321433
-0.3786
-0.386634
-0.37286
-0.373824
-0.313025
-0.358636
-0.39416
-0.397248
-0.395292
-0.400583
-0.354056
0.391471
0.459337
0.429257
0.375187
0.369889
0.391985
0.384588
0.427993
0.454863
0.409357
0.403747
0.304239
0.303646
0.403684
0.406758
0.353077
0.390056
0.393084
0.450726
0.36914
0.367008
0.36463
0.464625
0.401494
0.390227
-0.465261
-0.471758
-0.527551
-0.424983
-0.430111
-0.405326
-0.415373
-0.532158
-0.476595
-0.468443
0.303427
0.249045
0.254639
0.239378
0.243637
0.300527
-0.710111
-0.694531
-0.638655
-0.6984
-0.733344
-0.724808
-1.09862
-1.17747
-1.13093
-1.13685
-1.0811
-1.07403
-1.09433
-1.0884
-1.25111
-1.25217
-1.05425
-1.06117
-1.03833
-1.04662
-1.14817
-1.0909
-1.08385
-1.10403
-1.0977
-1.14732
-1.06612
-0.692403
-0.694985
-0.645458
-0.694527
-0.698683
-0.837376
-0.786615
-0.776597
-0.806529
-0.797325
-0.84568
-0.828763
-0.77296
-0.769215
-0.769186
-0.766517
-0.827768
-0.734132
-0.311223
-0.369646
-0.372904
-0.246356
-0.257638
0.418496
0.513635
0.513105
0.452841
0.458787
0.527426
0.518601
0.487961
0.491769
0.555647
0.55319
0.616374
0.48795
0.485898
0.394227
0.393302
0.453744
0.361665
0.428657
0.388636
0.394713
-0.971126
-1.02349
-1.01853
-1.02718
-1.02601
-0.970378
-0.942503
-0.933414
-0.879691
-0.828807
-0.843053
-0.816736
-0.820904
-0.873612
-0.902208
-0.854737
-0.862205
-0.894841
0.559354
0.558338
0.592935
0.542985
0.544499
0.531883
0.5683
0.562233
0.562683
0.560847
0.561825
0.58727
0.525457
0.528238
0.52819
0.525964
0.585993
0.615509
0.55792
0.557517
0.535102
0.554175
0.610589
0.505145
0.497503
0.597077
0.541587
0.539371
0.545592
0.543609
0.598614
0.590566
0.533746
0.530629
0.536902
0.53465
0.591887
-1.22172
-1.20339
0.592137
0.540592
0.54283
0.536075
0.538027
0.591942
0.550904
0.541997
0.534432
0.567976
0.582125
0.52026
0.52409
0.519216
0.517505
0.585955
0.588154
0.532034
0.534107
0.527534
0.530153
0.586619
0.561645
0.561201
0.563752
0.56214
0.553047
0.551609
0.557933
0.557777
-1.18417
-1.20934
-1.29037
-1.34488
-1.34398
-1.34249
-1.34387
-1.28922
0.437157
0.532318
0.538581
0.483068
0.452947
0.516955
0.523545
0.499633
0.496383
0.610685
0.551572
0.553656
0.607257
0.551051
0.534164
0.554732
0.554446
0.608834
0.506693
0.502957
0.512679
0.51638
0.466822
0.482735
0.495214
-0.93397
-0.989216
-0.991289
-0.978474
-0.984334
-0.927101
-0.880064
-0.888819
-0.850673
-0.819578
-0.814966
-0.85318
-0.939699
-0.991145
-0.997078
-0.989963
-0.988656
-0.933184
0.317431
0.372647
0.372237
0.376013
0.374259
0.32071
0.327765
0.390402
0.398616
0.374601
0.381051
0.316541
0.291891
0.354033
0.350628
0.362962
0.35861
0.328804
0.374184
0.376591
0.350398
0.359678
0.324332
-0.674827
-0.677997
-0.622674
-0.546605
-0.57782
0.212285
0.21527
0.310138
0.247709
0.238373
0.263952
0.261097
0.315229
0.216566
0.215692
-0.102303
-0.113022
3.23125
2.09582
2.31519
1.64292
0.27897
0.494209
-0.178268
-1.5701
-1.33769
-2.04134
-3.20409
-3.19312
5.08502
3.95359
4.16182
3.49957
2.13511
2.10145
1.68058
0.208257
0.284797
-0.0207954
-1.58527
-1.57749
-2.05924
-3.46825
-3.4446
-3.92954
-5.07475
-5.06342
5.08403
3.9492
3.95555
3.49736
2.03792
2.14646
1.82701
1.16263
1.12821
0.0179167
-0.742253
-0.749191
-1.97028
-2.55563
-2.54279
-3.96295
-5.09903
-5.08587
5.07082
3.92356
3.94425
3.48308
3.02773
3.03823
1.79581
1.57168
1.58544
-2.06935
-2.7449
-2.71672
-4.00338
-5.12345
-5.11122
5.05532
3.90147
3.91686
3.44964
2.9862
2.99485
1.7099
1.47368
1.48196
-2.1664
-2.81271
-2.79045
-4.03125
-5.14148
-5.13397
5.04879
3.89703
3.89875
3.43422
2.96926
2.97075
1.67929
1.44166
1.44255
-2.18893
-2.83116
-2.82956
-4.02885
-5.14252
-5.14452
5.05269
3.90816
3.89874
3.4408
2.9796
2.97497
1.69904
1.46556
1.46019
-2.13985
-2.79729
-2.81324
-3.99961
-5.12514
-5.1358
5.06224
3.92483
3.91227
1.74506
1.51768
1.51116
-2.06527
-2.73858
-2.76152
-3.95847
-5.09698
-5.11178
5.07171
3.9375
3.92874
-1.99477
-2.56994
-2.58443
-3.91873
-5.06612
-5.08155
5.06682
4.14997
4.16009
3.45958
2.10091
2.11559
1.76664
1.09397
1.10088
0.0299266
-0.309968
-0.353717
-2.03453
-3.42388
-3.45121
-4.1176
-5.03395
-5.05062
5.0503
4.1395
4.14243
3.22927
2.09183
2.09849
1.6367
0.266776
0.284977
-0.191811
-1.56982
-1.56796
-2.03004
-3.18036
-3.41846
-4.10052
-5.0201
-5.02428
3.22533
2.31497
2.31707
1.39907
0.491191
0.262366
-0.424579
-1.34557
-1.57047
-2.25982
-3.17923
-3.17804
1.4914
1.50214
1.73592
-1.8951
-1.62488
-1.6487
-1.55609
-1.57665
-1.80898
1.44431
1.44698
1.68462
-1.97197
-1.70956
-1.71582
-1.6556
-1.67437
-1.93503
1.45535
1.45111
1.68674
-1.96102
-1.69825
-1.68705
-1.71681
-1.71825
-1.9783
1.50468
1.49827
1.72746
-1.89198
-1.61944
-1.66
-1.68253
-1.66803
-1.93914
-1.81171
-1.58563
-1.57557
-1.65021
-1.639
-1.86185
1.10515
1.12942
1.79425
0.158905
0.292348
0.285687
-0.0684313
-0.0956033
0.0989364
-1.56563
-1.5555
-1.78342
1.10998
1.17231
1.82769
0.42106
0.451655
0.4763
0.90014
0.940222
0.26431
0.261739
0.354457
-1.76022
-1.52051
-1.5362
-0.991919
-0.991545
-1.73086
3.00497
3.01619
3.47405
1.98916
2.55924
2.5451
2.58747
2.57394
1.99954
-1.01399
-0.87761
-0.907257
-0.762028
-0.786538
-0.908066
-2.78313
-2.7543
-2.08486
-3.5443
-3.09413
-3.11013
-3.06115
-3.07732
-3.53113
2.97406
2.97924
3.44367
1.92863
2.5137
2.50776
2.53249
2.52196
1.93327
1.46023
1.46648
1.70319
0.923806
1.0437
1.04064
1.06723
1.06244
0.942773
-1.11075
-1.11087
-1.16193
-2.82928
-2.81661
-2.17323
-3.58522
-3.14609
-3.15271
-3.12453
-3.13669
-3.57777
2.97155
2.96956
3.43399
1.9171
2.50362
2.50653
2.50414
2.50279
1.91576
1.44273
1.44173
1.67926
0.902563
1.0243
1.02549
1.0239
1.02324
0.901773
-2.81911
-2.8279
-2.18612
-3.59138
-3.15406
-3.14862
-3.15625
-3.15669
-3.59367
2.99128
2.98517
3.44505
1.94621
2.52465
2.53248
2.51121
2.51739
1.94106
1.47793
1.47153
1.70423
0.944199
1.29533
1.30544
1.04756
1.05065
0.932481
-1.12706
-1.06503
-1.06325
-2.7694
-2.78999
-2.13101
-3.56267
-3.1194
-3.10675
-3.14073
-3.13091
-3.57224
-1.00558
-0.866606
-0.857273
-1.01846
-1.01498
-1.07046
-2.6
-2.61448
-2.05613
-3.51705
-3.06601
-3.05243
-3.09336
-3.07963
-3.52901
-0.908531
-0.793437
-0.788128
-0.830063
-0.823752
-0.937375
1.19691
1.09109
1.65197
0.189301
0.866327
0.859722
0.498808
0.492684
0.1457
-0.745647
-0.740602
-0.0407902
-1.5714
-0.97807
-1.09935
-1.02487
-0.98601
-1.70141
0.95688
1.07759
1.07216
1.35603
1.33407
0.976318
1.74639
1.51411
1.52752
0.872673
0.715346
0.73126
0.97769
0.868097
0.885627
0.772538
0.785106
0.90465
-1.1511
-1.10105
-1.1075
-1.02008
-1.02867
-1.08072
-1.6429
-1.66203
-1.88052
-1.16709
-1.27296
-1.25927
-1.33347
-1.32558
-1.22116
0.90417
1.02579
1.02469
1.03775
1.03479
0.913783
1.68795
1.45049
1.45493
0.825722
0.765548
0.768968
0.748494
0.748829
0.812168
0.77114
0.772688
0.832102
-1.69709
-1.70713
-1.96712
-1.26412
-1.311
-1.30791
-1.22063
-1.34919
-1.34201
-1.30575
-1.30145
-1.25317
-1.94506
-1.67946
-1.69345
0.922816
1.04138
1.04436
1.02724
1.02919
0.909656
1.68375
1.44753
1.44473
0.815158
0.753621
0.750403
0.777837
0.77555
0.836096
0.810436
0.748003
0.748364
0.747948
0.74666
0.811187
-1.7108
-1.702
-1.96679
-1.28908
-1.29224
-1.24226
-1.97746
-1.71747
-1.71338
0.851244
0.706088
0.697467
0.766046
0.762162
0.876116
0.841727
0.782259
0.780305
0.695072
0.687309
0.836174
-1.07977
-1.02341
-1.02121
-1.0654
-1.06761
-1.12171
-1.64174
-1.62524
-1.902
-1.17202
-1.30896
-1.3145
-1.27191
-1.278
-1.16727
-1.22955
-1.28043
-1.28467
-1.32008
-1.3265
-1.19092
-1.93048
-1.66282
-1.64723
0.919272
0.807067
0.802815
0.830168
0.827042
0.937563
0.888483
0.774404
0.770098
0.79877
0.794762
0.907636
-0.955719
-0.842768
-0.836395
-0.854135
-0.846762
-0.987204
-1.14855
-1.25959
-1.26581
-1.44686
-1.46385
-1.13031
-1.85155
-1.62797
-1.61723
0.969844
0.643981
0.632921
0.609687
0.639612
0.966609
0.945876
0.83532
0.832822
-0.879015
-0.524731
-0.496979
1.54199
1.55697
1.78291
1.04815
1.38779
1.36346
1.36631
1.34947
1.06134
-0.308856
-0.33948
-0.409242
1.98755
2.55617
2.56333
2.54053
2.54848
1.98268
1.52998
1.52393
1.75072
1.01293
1.29765
1.30425
1.28352
1.29078
1.00924
-0.495487
-0.435576
-0.433124
-0.456842
-0.455944
-0.513909
-2.5434
-2.55647
-1.98706
0.594006
0.543529
0.567372
0.419398
0.430943
0.502218
-1.06664
-1.41109
-1.37653
-1.46196
-1.42402
-1.08622
-1.8274
-1.59891
-1.62126
0.98083
1.32468
1.27709
1.30957
1.32066
0.976242
1.72142
1.49141
1.48462
0.516192
0.460811
0.45743
0.470334
0.468007
0.524975
-0.524642
-0.467404
-0.460985
-1.60657
-1.59604
-1.82152
-1.0869
-1.42433
-1.4413
-1.34837
-1.41898
-1.08088
0.530201
0.474572
0.472655
0.478041
0.477181
0.533789
-1.03958
-1.32746
-1.33841
-1.3075
-1.3171
-1.03405
-1.77442
-1.54582
-1.53667
0.571163
0.608366
0.28564
1.02215
0.710503
0.676513
0.704227
0.718845
1.022
-0.853422
-0.721238
-0.740076
-0.42458
-0.412128
-0.818039
0.15449
-0.271943
-0.296325
-0.830249
-0.866792
-0.994471
-0.517864
-0.660427
-0.632124
-0.649506
-0.63291
-0.578235
-0.930883
-0.812717
-0.836559
-0.878454
-0.868779
-1.01169
-1.05347
-0.998553
-0.996497
-0.472286
-0.413474
-0.410283
-0.431395
-0.428629
-0.48761
-0.565906
-0.709886
-0.716186
-0.697001
-0.703438
-0.562207
-0.931322
-0.81743
-0.811133
0.699948
0.711036
0.863628
0.841036
0.682459
0.695741
0.488874
0.555068
0.548756
0.607658
0.596788
0.531157
0.918015
0.800083
0.814725
-1.06987
-1.07465
-1.12733
-1.11067
-1.05889
-1.06458
0.750637
0.751348
0.816284
0.813783
0.750059
0.750384
0.779241
0.780798
0.843301
0.837892
0.777129
0.778207
-1.31327
-1.3105
-1.25053
-1.60019
-1.49548
-1.49853
-1.48906
-1.49162
-1.59686
-1.61165
-1.50632
-1.50829
-1.5013
-1.50396
-1.60914
-1.25981
-1.31962
-1.31628
-1.28573
-1.28264
-1.2307
-1.5636
-1.45993
-1.46575
-1.44653
-1.45354
-1.55727
-1.5848
-1.48064
-1.48515
-1.47094
-1.47586
-1.58005
-1.23406
-1.28836
-1.28614
0.766691
0.765681
0.824648
0.828028
0.768626
0.767778
0.746327
0.746728
0.809885
0.809018
0.745953
0.746199
-1.30574
-1.30966
-1.2465
-1.60453
-1.49449
-1.49022
-1.50218
-1.49855
-1.6082
-1.58706
-1.4793
-1.47776
-1.48602
-1.48248
-1.59191
-1.2339
-1.29796
-1.30175
-1.61819
-1.51158
-1.51163
-1.50987
-1.51101
-1.61732
-1.61604
-1.50787
-1.50536
-1.511
-1.50982
-1.61762
0.746483
0.709343
0.856456
0.510449
0.566196
0.56833
0.5457
0.547277
0.486794
0.871125
0.756829
0.751267
0.830983
0.683891
0.673974
-1.04511
-1.04239
-1.09714
-1.1038
-1.04846
-1.04674
-1.26074
-1.26154
-1.20761
-1.56579
-1.45829
-1.4526
-1.4715
-1.46464
-1.57114
-1.54404
-1.43591
-1.43007
-1.44721
-1.44169
-1.5497
-1.20377
-1.25777
-1.25908
0.490722
0.432819
0.432487
0.453235
0.447886
0.505636
0.782907
0.778809
0.892503
0.525004
0.583079
0.585192
0.569262
0.570383
0.511457
0.536411
0.681439
0.685884
0.673058
0.676943
0.533483
0.903812
0.790703
0.786777
0.471538
0.412868
0.41507
0.431323
0.429018
0.484704
-0.855333
-0.849342
-0.961847
-0.596454
-0.653987
-0.656359
-0.635526
-0.639021
-0.581585
-0.657853
-0.659999
-0.598488
-0.981119
-0.867671
-0.861443
0.526475
0.386683
0.380121
0.399338
0.389804
0.531208
0.537862
0.480743
0.479285
-0.424676
-0.280113
-0.264505
-0.407336
-0.404628
-0.462706
2.13131
2.58003
2.58055
2.56982
2.5755
2.01539
1.12044
1.34246
1.34655
1.33368
1.33813
1.11572
-0.266227
-0.261845
-0.0254048
-0.752598
-0.501878
-0.501351
-0.489541
-0.517653
-0.772061
1.04216
1.32313
1.32871
1.31076
1.31709
1.0387
1.76686
1.54165
1.5359
0.220975
0.22841
0.195623
0.512959
0.401232
0.383182
0.394323
0.397931
0.506336
-0.377235
-0.245646
-0.225492
-0.254415
-0.259422
-0.386796
0.110534
-0.0213826
-0.049253
0.422706
0.48474
0.33455
0.630422
0.536911
0.522088
0.508303
0.531421
0.629329
-0.345273
-0.263596
-0.283454
-0.123015
-0.0674527
-0.276408
0.267323
0.0183481
0.0292941
1.0502
1.04678
0.926703
1.28572
1.16662
1.17023
1.16044
1.1636
1.28356
-1.16426
-1.11052
-1.11197
1.02299
1.02342
0.901735
1.26287
1.14345
1.14314
1.14534
1.14439
1.26454
1.2628
1.14328
1.14408
1.14279
1.14307
1.26347
0.901391
1.02292
1.02275
-1.07663
-1.07012
-1.13167
-0.804881
-0.798991
-0.913868
-0.569014
-0.684799
-0.690846
-0.672974
-0.678698
-0.563189
0.877486
0.656749
0.606847
0.647396
0.652086
0.873948
0.207033
0.426249
0.421369
0.831419
0.849608
0.962719
0.596679
0.738012
0.715434
0.781644
0.761052
0.613573
-1.08673
-1.0936
-1.14574
-1.29656
-1.28522
-1.18011
-1.49588
-1.3902
-1.40138
-1.36601
-1.37864
-1.48577
-1.53481
-1.43039
-1.4387
-1.41165
-1.42147
-1.52626
-1.21194
-1.31652
-1.30692
1.02848
1.02698
0.905303
1.26669
1.14721
1.14894
1.14477
1.14606
1.26645
1.27431
1.155
1.15781
1.15055
1.1528
1.2731
0.910492
1.03228
1.03014
0.757224
0.761278
0.823597
0.635422
0.698351
0.692404
0.710131
0.705485
0.647412
0.621484
0.685492
0.685395
0.68571
0.685535
0.62124
0.811921
0.74899
0.749399
0.656513
0.713819
0.712695
0.714503
0.714248
0.656132
0.832749
0.773616
0.774604
-1.3098
-1.31143
-1.26273
-1.41343
-1.36533
-1.36463
-1.434
-1.37981
-1.38167
-1.3763
-1.37826
-1.43345
1.26711
1.14845
1.14693
1.15234
1.15047
1.26962
0.912457
1.0313