/*--------------------------------*- C++ -*----------------------------------*\
| =========                 |                                                 |
| \\      /  F ield         | OpenFOAM: The Open Source CFD Toolbox           |
|  \\    /   O peration     | Version:  5.x                                   |
|   \\  /    A nd           | Web:      www.OpenFOAM.org                      |
|    \\/     M anipulation  |                                                 |
\*---------------------------------------------------------------------------*/
FoamFile
{
    version     2.0;
    format      ascii;
    class       volScalarField;
    location    "300";
    object      p_rgh;
}
// * * * * * * * * * * * * * * * * * * * * * * * * * * * * * * * * * * * * * //

dimensions      [0 2 -2 0 0 0 0];

internalField   nonuniform List<scalar> 
6584
(
0.0041477
0.00457725
0.00509191
0.00586002
0.00683977
0.00809809
0.00961771
0.0114115
0.0132914
0.0151298
0.0163991
0.0165361
0.0151383
0.0123026
0.00859893
0.00471414
0.00118584
-0.00182935
-0.00424538
-0.00612632
-0.00753444
-0.00858792
-0.00927613
-0.0098282
0.00399661
0.0044668
0.00495099
0.00571234
0.00666989
0.00792862
0.00946757
0.0113519
0.0133721
0.0154463
0.0169567
0.0172595
0.0158158
0.0127312
0.00873642
0.00454875
0.000879237
-0.00218822
-0.00458416
-0.00642295
-0.00777598
-0.00879803
-0.00943424
-0.0100264
0.00367218
0.00415102
0.00457755
0.00529861
0.00619876
0.00744227
0.00902891
0.0111653
0.0134997
0.0156769
0.0184719
0.0198225
0.0187992
0.015266
0.0103406
0.00394888
-5.83528e-05
-0.00322892
-0.00554875
-0.00724569
-0.00844606
-0.00935426
-0.00988034
-0.0104511
0.00324635
0.00369094
0.0040328
0.0046666
0.00545689
0.00661851
0.0082268
0.0106202
0.0138173
0.0169067
0.0213511
0.0244268
0.0236692
0.0183907
0.0112754
0.00480579
-0.00168495
-0.00495508
-0.00707522
-0.00849621
-0.00944365
-0.0101513
-0.0105175
-0.0109949
0.00275238
0.00312024
0.00334601
0.00382717
0.00442633
0.00536546
0.00682892
0.00926012
0.0122466
0.017781
0.0247971
0.0315154
0.0316017
0.0225014
0.0111509
0.00256174
-0.00289666
-0.0076466
-0.00928989
-0.0101634
-0.0107245
-0.0111269
-0.0112838
-0.011601
0.00221939
0.0024684
0.00254481
0.00279429
0.00309137
0.00354139
0.00455494
0.00609858
0.0100259
0.0161469
0.0262718
0.0432315
0.0497226
0.0311947
0.00835116
-0.00263319
-0.007747
-0.0112101
-0.0120724
-0.0121703
-0.0122169
-0.0122143
-0.0121193
-0.0122152
0.00168966
0.00178544
0.00169051
0.00164443
0.00155576
0.00133918
0.00159937
0.00248061
0.00434076
0.00918311
0.0223471
0.0539264
0.0959521
0.0332134
0.000578745
-0.0128043
-0.0148483
-0.0158026
-0.0153057
-0.0143838
-0.0137952
-0.0133105
-0.0129388
-0.0127674
0.00121109
0.00113641
0.000870644
0.000503685
-1.65764e-05
-0.000995667
-0.00187302
-0.00216335
-0.00380631
-0.00490349
-0.000771146
0.0197994
-0.0096608
-0.0280225
-0.0286501
-0.0241545
-0.0208654
-0.0186112
-0.0165451
-0.0152686
-0.0142802
-0.0136397
-0.013183
0.000828308
0.000590528
0.00018424
-0.000467849
-0.00137843
-0.00303419
-0.00507399
-0.00692385
-0.0124813
-0.0220158
-0.0360079
-0.072913
-0.121596
-0.0675324
-0.0456929
-0.0333249
-0.0252863
-0.0213205
-0.0182696
-0.016394
-0.0149721
-0.0141162
-0.0133941
0.000574502
0.000207813
-0.000278052
-0.00111092
-0.00225535
-0.00426479
-0.00702446
-0.0100514
-0.017806
-0.0319909
-0.0556718
-0.110001
-0.172084
-0.0909101
-0.0553858
-0.038816
-0.02774
-0.022722
-0.0191655
-0.0169414
-0.0152527
-0.0142793
-0.0133523
0.000463393
2.2307e-05
-0.000465287
-0.00133397
-0.002489
-0.00441346
-0.00717576
-0.0104872
-0.0176592
-0.0302139
-0.0510093
-0.0931356
-0.150237
-0.0862332
-0.0534575
-0.0385361
-0.02745
-0.0224368
-0.0190193
-0.016784
-0.0150503
-0.0140814
-0.0130394
0.000485561
3.13366e-05
-0.000385681
-0.00115187
-0.00211204
-0.00358433
-0.00571044
-0.00841131
-0.0128927
-0.0195848
-0.0296328
-0.0438769
-0.0872727
-0.0612289
-0.042315
-0.0331291
-0.0246489
-0.0206073
-0.01788
-0.0159506
-0.0143806
-0.0135309
-0.0124729
0.000611794
0.000197895
-0.000100768
-0.000672935
-0.00131573
-0.00216612
-0.00334714
-0.00494669
-0.00627395
-0.00672623
-0.00596345
0.00264002
-0.0254587
-0.0315682
-0.0279306
-0.0251401
-0.0203557
-0.017796
-0.0160207
-0.0146025
-0.0133452
-0.0126884
-0.0117016
0.000802221
0.000464879
0.000300286
-4.76555e-05
-0.000354708
-0.000610075
-0.000940246
-0.000321894
-0.00056375
0.00319911
0.00922635
0.0289694
0.0847673
0.0123439
-0.00939827
-0.0155246
-0.0172322
-0.0157505
-0.0146664
-0.0138145
-0.0129675
-0.0120765
-0.0116466
-0.0107914
0.00101655
0.000772393
0.000730289
0.00058698
0.000560419
0.000736613
0.00104462
0.00211528
0.00318276
0.00769505
0.0143359
0.0274931
0.0362334
0.0168844
3.50919e-05
-0.00746141
-0.0104991
-0.0116102
-0.0117156
-0.0115896
-0.0112567
-0.0107114
-0.0105031
-0.00980987
0.00122125
0.00107078
0.00112399
0.00114031
0.00130914
0.00174331
0.00238348
0.00381198
0.0050974
0.00871404
0.0140389
0.0189151
0.017572
0.0113234
0.00329527
-0.00311028
-0.00706384
-0.00851019
-0.00924543
-0.00956872
-0.00962521
-0.0093696
-0.00934558
-0.0088229
0.00139295
0.00132654
0.00144294
0.00156948
0.00184644
0.00240884
0.00312195
0.00464197
0.0062949
0.00805983
0.010818
0.0123654
0.0144488
0.00939163
0.00360978
-0.000978352
-0.00442901
-0.00621295
-0.00724842
-0.00784019
-0.00815607
-0.00811422
-0.00823034
-0.00786741
0.00151837
0.00152168
0.00167111
0.00186505
0.00217623
0.00276988
0.00339757
0.00470194
0.00592404
0.00811186
0.00837101
0.0109236
0.00689898
0.00650764
0.00244023
-0.000554182
-0.00265859
-0.0045974
-0.00568148
-0.0064196
-0.00688207
-0.00698978
-0.00719858
-0.0069741
0.00159256
0.00165073
0.00180903
0.00203947
0.00233443
0.00290909
0.00338232
0.00450129
0.00499164
0.00710257
0.00475432
0.00967608
0.00830171
0.00138102
0.00270373
-0.000506785
-0.00185467
-0.0035703
-0.00451446
-0.00529432
-0.005809
-0.00601323
-0.00627247
-0.00616271
0.00161651
0.00171665
0.00186703
0.00211595
0.00236674
0.00291252
0.00321401
0.00425326
0.00424085
0.00635842
0.0046233
0.00737903
0.00663825
0.00188032
0.00258041
-0.000507974
-0.00127752
-0.00286314
-0.00363367
-0.00440992
-0.00491651
-0.0051803
-0.00545792
-0.0054401
0.0015948
0.00172683
0.00185867
0.00211688
0.00230893
0.00282899
0.00296647
0.00394863
0.00363904
0.0054564
0.00402732
0.00511819
0.00462149
0.00167747
0.00214093
-0.000488947
-0.000873869
-0.00235978
-0.00295504
-0.0037125
-0.0041767
-0.00447726
-0.00475067
-0.00480526
0.00153381
0.00169033
0.00179753
0.0020609
0.00218848
0.00268602
0.00268078
0.00359179
0.00310611
0.00458634
0.00334535
0.00381342
0.00342455
0.00124748
0.00166838
-0.000504554
-0.000639286
-0.00200523
-0.0024336
-0.00316274
-0.00356474
-0.00388757
-0.00414173
-0.00425275
0.00144079
0.00161664
0.00169656
0.00196381
0.00202822
0.00250635
0.00238844
0.00322659
0.00265524
0.00387531
0.0028197
0.00294302
0.00263978
0.000928817
0.00128849
-0.000527521
-0.000505858
-0.00174742
-0.00203151
-0.0027272
-0.00305819
-0.00339402
-0.0036197
-0.00377444
0.0013231
0.00151486
0.00156737
0.0018386
0.00184571
0.00230735
0.00210659
0.00287583
0.00227519
0.00328844
0.00238706
0.00227749
0.00203912
0.000668047
0.000977449
-0.000547678
-0.000428143
-0.00155105
-0.00171723
-0.00237762
-0.00263697
-0.00297998
-0.00317237
-0.00336088
0.00118779
0.00139313
0.00141975
0.00169539
0.0016532
0.00210032
0.00184211
0.00254704
0.00194972
0.0027958
0.00202537
0.00176882
0.00157452
0.000446864
0.00071942
-0.000564354
-0.000383699
-0.00139559
-0.00146746
-0.00209222
-0.00228374
-0.00262999
-0.00278746
-0.00300195
0.00104137
0.00125855
0.0012617
0.00154197
0.00145913
0.00189309
0.00159788
0.00224408
0.0016698
0.00238156
0.0017176
0.00137261
0.00121502
0.000270146
0.000510633
-0.00057524
-0.000357926
-0.00126768
-0.00126526
-0.00185429
-0.00198406
-0.00233059
-0.00245364
-0.00268788
0.000889649
0.00111713
0.00109965
0.00138434
0.00126919
0.00169068
0.0013745
0.00196795
0.00142831
0.00203652
0.00145812
0.001065
0.000945811
0.000130991
0.000344256
-0.000579418
-0.000341217
-0.00115749
-0.00109725
-0.00165129
-0.0017261
-0.00207061
-0.00216083
-0.00240934
0.000737761
0.000973919
0.000938636
0.00122694
0.00108694
0.00149621
0.00117128
0.00171806
0.00121766
0.00174688
0.00124236
0.000824532
0.000731503
9.86526e-06
0.000212962
-0.000574962
-0.00032495
-0.00105649
-0.000951876
-0.00147172
-0.00149894
-0.00183909
-0.00189911
-0.00215728
0.000590253
0.000832987
0.000782553
0.00107289
0.000914606
0.00131126
0.00098663
0.00149293
0.00103223
0.00149938
0.00105856
0.000627844
0.000558489
-8.41902e-05
0.000112411
-0.000562517
-0.000305891
-0.000960796
-0.000821814
-0.00130806
-0.00129438
-0.00162786
-0.00166035
-0.00192397
0.000451156
0.000697736
0.000634486
0.000924479
0.000753226
0.00113619
0.000817944
0.00128869
0.000868198
0.00128615
0.000900737
0.000466061
0.000418701
-0.00015499
3.74556e-05
-0.000541432
-0.000281526
-0.000866765
-0.000701344
-0.00115408
-0.00110546
-0.00142954
-0.0014371
-0.00170191
0.000324083
0.000570732
0.000496663
0.000782829
0.000603216
0.000971255
0.000662594
0.00110001
0.000719796
0.00109877
0.000762873
0.000332041
0.000305572
-0.00020599
-1.56764e-05
-0.000510669
-0.000250096
-0.000771026
-0.000585709
-0.00100457
-0.000926522
-0.00123781
-0.00122306
-0.00148423
0.000212529
0.000454015
0.000371124
0.000648279
0.000464842
0.000815043
0.000519627
0.000924147
0.000583294
0.000929873
0.000639427
0.000219897
0.000213026
-0.000239536
-5.01066e-05
-0.000469475
-0.000210876
-0.000671031
-0.000472084
-0.000855393
-0.000753435
-0.00104761
-0.00101322
-0.00126499
0.000119777
0.000348227
0.000259253
0.000520104
0.000337355
0.000662494
0.000386065
0.000754602
0.00045387
0.000770781
0.000524422
0.000125943
0.000137851
-0.000254021
-6.68992e-05
-0.000415055
-0.000163685
-0.000563375
-0.000358464
-0.000701932
-0.000582688
-0.000853018
-0.000802285
-0.0010367
4.98555e-05
0.000255243
0.000164156
0.000399216
0.000223739
0.00051429
0.000264045
0.000589587
0.00033143
0.000616269
0.000411491
4.46035e-05
7.32829e-05
-0.000250381
-6.93827e-05
-0.000347203
-0.000111307
-0.000447809
-0.000247258
-0.000544331
-0.000416638
-0.00065463
-0.000592384
-0.000799825
4.73265e-06
0.000163586
8.13037e-05
0.000265589
0.000117386
0.000345003
0.000143636
0.000397652
0.00019969
0.000431421
0.000283516
-1.09304e-05
2.8794e-05
-0.000206264
-5.22355e-05
-0.000248406
-5.39665e-05
-0.00030576
-0.000134775
-0.000361104
-0.00024455
-0.000427169
-0.00036426
-0.000522331
-6.81475e-06
0.000106534
4.00965e-05
0.000174331
6.0459e-05
0.00022639
7.71197e-05
0.000261806
0.000118459
0.000291775
0.000150128
-9.59022e-05
-5.34016e-05
-0.000167906
-3.7594e-05
-0.00016044
-1.24399e-05
-0.000188486
-5.59166e-05
-0.000216925
-0.000122241
-0.000252536
-0.000198192
-0.000309145
-0.0642301
-0.119796
-0.00516321
-0.108462
-0.184158
-0.132732
-0.0977851
-0.16577
-0.186373
-0.0503583
-0.100216
-0.159071
-0.00229547
-0.0305323
-0.0910795
0.0276025
0.0943441
0.0898523
0.0156411
-0.0229528
0.0305999
0.0963909
0.0100109
0.0441111
-0.0278459
-0.05669
0.0155431
-0.0931048
0.0446654
-0.110159
-0.065816
-0.0280376
-0.0530808
-0.0985501
-0.0646185
-0.093477
-0.13409
-0.10705
-0.229448
-0.191469
-0.169633
-0.100775
-0.0771277
-0.0542932
-0.0902913
-0.099971
-0.109645
-0.148107
-0.151164
-0.258658
-0.263959
-0.156524
-0.101457
-0.104252
-0.0357517
-0.0482238
-0.0861084
-0.0763825
-0.0939793
-0.123212
-0.163261
-0.205433
-0.0955898
-0.0743399
-0.0964956
-0.0646862
-0.107822
-0.0323977
-0.0388653
-0.0655051
0.0202164
-0.0141613
0.0301828
0.0309059
0.0864452
0.0307029
0.0243777
0.0176387
-0.10208
-0.0507272
-0.0319218
-0.056157
-0.109674
0.0574076
-0.0459882
-0.187692
-0.105116
-0.0746385
-0.100144
-0.18388
-0.15029
-0.136962
-0.0984434
-0.141375
-0.156234
-0.11452
-0.140555
-0.261446
-0.231417
-0.169684
-0.23164
-0.248832
-0.186933
-0.229772
-0.162448
-0.126568
-0.145972
-0.107725
-0.151599
-0.12962
-0.156033
-0.15337
-0.207799
-0.256441
-0.181362
-0.243075
-0.21005
-0.250271
-0.245123
-0.1846
-0.0918945
-0.0559049
-0.127445
-0.0972629
-0.11101
-0.159425
-0.126594
-0.156249
-0.110471
-0.207358
-0.159328
-0.135291
-0.0184077
0.00918066
-0.051489
-0.0225357
-0.0195525
-0.0589954
-0.104628
-0.0644819
-0.063878
0.0342878
0.0523067
0.0118359
0.031936
0.0465998
0.0236062
-0.0193761
-0.0402037
0.0509853
-0.0444239
0.113734
-0.0114078
-0.0041401
-0.0423084
-0.0250021
-0.0227471
-0.0511639
0.0121955
-0.00956316
0.0105509
-0.0105174
-0.0306165
0.109723
-0.0165425
0.0361644
-0.0863757
-0.0573231
-0.0553851
-0.0890731
-0.0700305
-0.0803194
-0.0589322
0.00213493
0.0196364
-0.0562413
-0.0409205
-0.0130551
-0.03529
-0.0552378
-0.0588067
-0.0211032
0.0203967
0.027087
-0.0160511
0.0162875
-0.00245746
0.15882
0.105149
0.0714613
0.0611832
0.101087
0.159157
-0.0627831
-0.0375641
-0.0595117
0.102395
-0.0417087
-0.017474
-0.218868
-0.215879
-0.26571
-0.26579
-0.18466
-0.187305
-0.0819778
-0.0667066
-0.0844503
0.0361951
0.0149397
-0.0102437
0.0106291
0.00159274
-0.0923353
-0.08412
-0.117494
-0.0884715
-0.119739
-0.0914742
-0.0828567
-0.0224498
-0.00520859
-0.0303665
-0.0868197
-0.155442
-0.150854
-0.150565
-0.150759
-0.127506
-0.128685
-0.253888
-0.253952
-0.240196
-0.208287
-0.198019
-0.218153
-0.211012
-0.240865
-0.208924
-0.174823
-0.155852
-0.194141
-0.180167
-0.21226
-0.143901
-0.141702
-0.158094
-0.157249
-0.239993
-0.241518
-0.227912
-0.206488
-0.216061
-0.188442
-0.202462
-0.226094
-0.252858
-0.222547
-0.219805
-0.218508
-0.222322
-0.252738
-0.0836693
-0.0764331
-0.0835812
-0.10723
-0.0589251
-0.0799766
-0.0710763
-0.116845
-0.109986
-0.111869
-0.132671
-0.13589
-0.185734
-0.168101
-0.183094
-0.147076
-0.162901
-0.181734
-0.0218846
-0.000211117
-0.0387522
-0.0405163
-0.0560047
-0.0230134
-0.0385178
-0.0347958
-0.0388972
-0.0242487
-0.0361564
-0.0366506
-0.0134777
-0.0633394
-0.0388792
-0.0420951
-0.0376063
0.0436119
0.0595828
0.0759814
0.0282571
0.0386617
0.0881307
0.056251
0.0384838
0.212396
0.00673938
0.0203154
0.000405255
0.0154543
0.0269815
0.0115041
0.058424
0.0435708
0.0470931
0.160314
0.00767489
-0.0187994
-0.0190041
0.0231412
0.0247027
0.075456
0.059943
0.0711549
0.0259798
0.0250553
0.0662317
0.0598359
0.0834094
0.239234
0.170535
0.124254
0.133492
0.175669
0.242512
-0.124374
-0.104006
-0.114711
-0.225115
-0.211772
-0.203659
-0.151752
-0.130299
-0.128885
-0.129599
-0.131578
-0.152137
-0.262804
-0.264502
-0.173341
-0.196789
0.0446447
0.0378344
0.00654757
0.0131623
0.0315973
0.0526187
0.0463857
0.0595767
0.0102965
-0.0103585
0.102602
-0.174998
-0.198695
-0.210056
-0.139405
-0.114058
-0.0812559
-0.148609
-0.12288
-0.15021
-0.146141
-0.124895
-0.129858
-0.116388
-0.124211
-0.144335
-0.146514
-0.159625
-0.151922
-0.168588
-0.167104
-0.153798
-0.150256
-0.14663
-0.135445
-0.259413
-0.24054
-0.236682
-0.219586
-0.218526
-0.238056
-0.233629
-0.24606
-0.1266
-0.122283
-0.139011
-0.149259
-0.157989
-0.161803
-0.157804
-0.170691
-0.169008
-0.165367
-0.169668
-0.155473
-0.221153
-0.251106
-0.237319
-0.22916
-0.233442
-0.197246
-0.206176
-0.218473
-0.251851
-0.241169
-0.237943
-0.235868
-0.238502
-0.249574
-0.12046
-0.122711
-0.114305
-0.169861
-0.158386
-0.148939
-0.135876
-0.125718
-0.141712
-0.104658
-0.12026
-0.129368
-0.00569351
-0.00259126
-0.0207792
0.0162112
0.00333934
-0.00172406
0.0451686
0.0552744
0.0206368
0.0254014
0.0188841
0.0326935
0.041608
0.0540322
0.0475281
0.0176917
0.158951
0.0425152
0.0146781
0.0026359
0.00412748
0.0167633
0.00141431
-0.000509599
0.0491318
0.0472795
0.151422
0.0203314
0.0302382
-0.0713513
-0.0642079
0.00809497
0.0210692
0.0115477
0.0173974
0.00526606
0.0249007
0.0198883
0.0136799
-0.0474402
-0.0435515
-0.0220632
-0.0252219
0.0227236
0.024643
0.0257857
0.025346
0.027532
-0.0994185
-0.0782886
-0.0392974
-0.118802
-0.0892933
-0.109761
-0.22379
-0.207111
-0.264128
-0.266088
-0.17622
-0.194162
-0.080376
-0.0763685
-0.086309
-0.0639464
-0.0733016
-0.0753603
-0.100572
-0.109831
-0.0894221
-0.0972105
0.0271256
0.0340639
0.0419821
0.018196
0.0301395
0.0243565
0.0301104
0.0185534
-0.106977
-0.0902299
-0.102112
-0.0693927
-0.0856991
-0.103147
-0.118175
-0.124881
-0.105689
-0.115678
-0.0603001
-0.0437065
-0.0639247
-0.0616299
-0.0693157
-0.173414
-0.195626
-0.171598
-0.185057
-0.150989
-0.127935
-0.181412
-0.15723
-0.132099
-0.151915
-0.169133
-0.163372
-0.160549
-0.147001
-0.161147
-0.166315
-0.155505
-0.160753
-0.171106
-0.172382
-0.16703
-0.169064
-0.153742
-0.165995
-0.163982
-0.138475
-0.144085
-0.127072
-0.136
-0.151288
-0.154041
-0.145606
-0.150238
-0.134525
-0.145348
-0.140655
-0.259015
-0.250578
-0.227224
-0.220796
-0.238411
-0.245143
-0.233356
-0.227849
-0.153378
-0.159351
-0.147639
-0.162328
-0.156554
-0.174689
-0.163199
-0.148993
-0.136823
-0.154743
-0.150043
-0.17139
-0.170792
-0.157317
-0.175078
-0.176342
-0.172763
-0.17505
-0.174738
-0.173196
-0.175924
-0.174842
-0.156751
-0.170025
-0.171196
-0.230581
-0.247803
-0.22079
-0.226413
-0.234507
-0.220328
-0.209926
-0.21781
-0.24217
-0.240559
-0.252717
-0.250828
-0.240421
-0.240923
-0.0934649
-0.0940281
-0.0870844
-0.0789207
-0.100766
-0.0900736
-0.100164
-0.0641099
-0.0623982
-0.057075
-0.0756845
-0.0653045
-0.0676281
-0.131971
-0.124147
-0.13388
-0.134683
-0.116456
-0.112396
-0.10429
-0.121254
-0.11344
-0.118605
-0.135219
-0.126039
-0.123835
-0.131931
-0.140366
-0.112917
-0.128155
-0.146319
-0.145562
-0.155246
-0.139732
-0.0126217
-0.0146578
-0.0220712
0.00123143
-0.0114457
-0.00911262
0.00335866
-0.0310204
-0.0247856
-0.0284004
-0.0521154
-0.0525401
-0.060867
-0.0394262
-0.0497052
-0.0488519
-0.0511907
-0.0540448
0.0585067
0.06939
0.0292081
0.0309041
0.0700921
0.0564694
0.00305936
-0.0164231
0.00589085
0.00314002
0.0211364
0.0358501
0.319669
0.244479
0.213177
0.23242
0.263978
0.32675
0.0370733
0.0817833
0.0508183
-0.0872111
-0.101247
-0.120639
-0.227644
-0.239805
-0.241485
-0.261261
-0.264075
-0.108643
-0.0996596
-0.111778
-0.217077
-0.214061
-0.202743
-0.111486
-0.101781
-0.0983127
-0.0841611
-0.065165
-0.0831226
-0.121235
-0.113631
-0.104171
-0.121016
-0.144907
-0.126414
-0.119402
-0.131531
-0.123487
-0.260185
-0.244007
-0.246406
-0.233413
-0.249804
-0.248681
-0.247653
-0.214694
-0.210243
-0.223755
-0.136183
-0.119219
-0.112294
-0.136095
-0.143997
-0.134769
-0.210354
-0.221692
-0.219003
-0.254515
-0.24119
-0.243809
-0.245466
-0.250887
-0.25171
-0.250873
-0.24721
-0.248756
-0.247221
-0.125088
-0.132042
-0.13483
-0.199097
-0.190869
-0.1952
-0.0871871
-0.0835926
-0.0993607
0.0466299
0.0510784
0.0374999
0.0279164
0.0230507
0.0374663
0.0416433
0.0366108
0.0502362
0.0354436
-0.0333419
-0.0282837
-0.0769245
-0.0582311
-0.0608193
-0.0617452
-0.0536563
-0.0534544
-0.0557134
-0.0410747
-0.0421467
-0.0412097
-0.036332
-0.0334764
-0.0324044
0.0274977
0.0251842
0.0234865
0.0933739
0.15071
0.120221
-0.0763346
-0.0771158
-0.0662018
-0.0507637
-0.134186
-0.125463
-0.0265164
0.0126677
0.019856
-0.223968
-0.233713
-0.22153
-0.212964
-0.214177
-0.217112
-0.267336
-0.266232
-0.183683
-0.180208
-0.181932
-0.189473
-0.198289
-0.190346
-0.085403
-0.0881992
-0.0637738
-0.0667926
-0.069644
-0.0908039
-0.0939821
-0.0951343
-0.0981655
-0.0883633
-0.0964698
-0.113178
-0.109453
-0.11292
-0.0808101
-0.0864693
-0.0933669
-0.130902
-0.133296
-0.11569
-0.120941
-0.123299
-0.013619
-0.0377092
-0.0520045
-0.041724
-0.0449385
-0.0421012
-0.0798338
-0.15187
-0.143682
-0.139086
-0.133809
-0.120826
-0.135853
-0.137527
-0.254853
-0.253884
-0.194152
-0.188169
-0.200033
-0.221519
-0.205344
-0.19992
-0.137076
-0.146069
-0.151495
-0.23729
-0.243046
-0.253777
-0.253834
-0.25305
-0.253079
-0.253562
-0.253573
-0.0869639
-0.0871607
-0.0858985
-0.0825041
-0.105606
-0.102246
-0.105044
-0.121524
-0.129343
-0.121595
-0.131669
-0.130199
-0.140195
-0.13824
-0.112478
-0.112115
-0.108822
-0.129449
-0.128782
-0.179424
-0.185364
-0.196011
-0.17171
-0.167074
-0.173246
-0.0442219
-0.0430809
-0.039621
-0.052798
-0.0477449
-0.0470513
-0.0264907
-0.0287109
-0.036325
-0.0167794
-0.0228129
-0.0230285
-0.0578467
-0.0582246
-0.0606957
-0.0439706
-0.0408416
-0.0621078
0.066748
0.066588
0.0735229
0.0284638
0.0347687
0.0308458
0.0286
0.0408249
0.0326386
0.034782
0.0833813
0.067941
0.0449637
0.0522376
0.048928
0.122534
0.212586
0.078234
0.024169
0.0245102
0.0676668
0.0890649
0.0992603
0.0254718
0.0271745
0.0276915
0.0265363
0.0267905
0.0249341
0.0977587
0.0867949
0.0728658
0.16301
0.23666
0.205873
-0.238526
-0.238834
-0.226271
-0.216526
-0.207418
-0.200543
-0.220815
-0.216828
-0.262697
-0.26392
-0.177969
-0.179951
-0.169937
-0.174371
-0.199684
-0.210494
-0.207282
0.041503
0.0436258
0.0466036
0.0376512
0.0412622
0.0390653
-0.202021
-0.190113
-0.186866
-0.197395
-0.193713
-0.205909
-0.259349
-0.234998
-0.246847
-0.251127
-0.246694
-0.247719
-0.246685
-0.235836
-0.225944
-0.213063
-0.253974
-0.24017
-0.242112
-0.239703
-0.252825
-0.252203
-0.251225
-0.248682
-0.250062
-0.250977
-0.163489
-0.15694
-0.162069
-0.151088
-0.153789
-0.160037
0.0544087
0.0568032
0.0315267
0.0333097
0.0351686
0.0334227
0.0311783
0.056246
0.0540161
0.0523193
0.0545758
0.0556851
0.0489932
0.0512208
0.0501536
0.00899308
-0.00563556
-0.00657592
0.0215539
0.130272
0.111303
0.14794
0.0500503
0.0685318
0.0907986
0.00718602
0.00800856
0.00453698
0.0147328
0.0116257
0.0105963
-0.00487298
-0.00284223
-0.00874249
0.00128888
-0.00140945
-0.00142519
0.0637669
0.0707866
0.0424607
-0.0133018
-0.0284437
0.0133509
0.00515779
-0.0745601
-0.0635062
-0.0632806
-0.0664887
0.0132341
0.0177507
0.00452124
0.00838192
0.00984931
-0.050178
-0.0516979
-0.0509207
-0.0410867
-0.0396111
-0.0431294
-0.0409447
-0.043213
-0.0483961
-0.020337
-0.0182286
-0.0196573
-0.0187185
-0.0231591
-0.012342
-0.0155088
-0.0289513
-0.0304092
-0.0266514
0.0257182
0.0261287
0.0263633
0.0251844
0.0257453
0.026351
-0.0926047
-0.0800341
-0.0868744
-0.122393
-0.116878
-0.103575
-0.234661
-0.222296
-0.235362
-0.23753
-0.224326
-0.223351
-0.227929
-0.22584
-0.266031
-0.266997
-0.187875
-0.191881
-0.182469
-0.185169
-0.179025
-0.177083
-0.174167
-0.204436
-0.201299
-0.191783
-0.199953
-0.0757065
-0.082153
-0.0722517
-0.0698129
-0.0727082
-0.103875
-0.108821
-0.105146
-0.113866
-0.111898
-0.106987
-0.0922067
-0.0907351
-0.087793
-0.101108
-0.0941232
-0.0944519
-0.099371
0.0213648
0.0200302
0.0168893
0.0256196
0.0218133
-0.102002
-0.102612
-0.106243
-0.110162
-0.0998338
-0.0927408
-0.098038
-0.127418
-0.129125
-0.130122
-0.128034
-0.122627
-0.121849
-0.125335
-0.0638501
-0.0559858
-0.0529874
-0.04099
-0.0775471
-0.079156
-0.0713597
-0.178193
-0.174551
-0.169163
-0.184269
-0.180046
-0.186617
-0.197329
-0.188781
-0.144167
-0.153997
-0.162324
-0.134371
-0.145092
-0.136771
-0.176253
-0.167411
-0.173148
-0.166317
-0.162932
-0.165405
-0.15638
-0.162029
-0.160928
-0.166829
-0.165334
-0.171585
-0.171927
-0.167806
-0.168468
-0.140861
-0.143322
-0.140816
-0.146674
-0.145189
-0.14261
-0.129409
-0.133812
-0.132095
-0.14148
-0.135537
-0.131927
-0.139133
-0.142983
-0.152319
-0.155621
-0.154489
-0.157864
-0.15687
-0.153305
-0.147004
-0.149387
-0.148338
-0.153565
-0.152345
-0.148903
-0.256198
-0.251912
-0.160278
-0.16124
-0.161247
-0.158934
-0.16057
-0.158315
-0.173387
-0.162075
-0.163719
-0.165473
-0.146628
-0.151735
-0.151833
-0.150249
-0.151845
-0.142087
-0.152997
-0.155602
-0.157232
-0.15248
-0.153742
-0.151311
-0.174988
-0.175097
-0.173007
-0.174867
-0.173762
-0.173225
-0.175433
-0.174404
-0.23389
-0.245215
-0.253265
-0.253861
-0.253378
-0.252049
-0.252936
-0.252204
-0.0899335
-0.0892451
-0.087733
-0.0900561
-0.103224
-0.0981019
-0.0931372
-0.135338
-0.133505
-0.129394
-0.131958
-0.134002
-0.135475
-0.139669
-0.142985
-0.136496
-0.138661
-0.136549
-0.137146
-0.136888
-0.117543
-0.115307
-0.114699
-0.128198
-0.122469
-0.13213
-0.133548
-0.136323
-0.127281
-0.130528
-0.129223
-0.135146
-0.137218
-0.116858
-0.122809
-0.117174
-0.124042
-0.151339
-0.144692
-0.147995
-0.138726
-0.141374
-0.147136
-0.0176211
-0.0177745
-0.01437
-0.0230907
-0.0206129
-0.0200909
-0.00351063
-0.00147896
0.00155854
-0.010219
-0.00563166
-0.00807182
-0.00281721
-0.0351269
-0.0341008
-0.0380781
-0.0363563
-0.0263484
-0.0269673
-0.025446
-0.0328064
-0.0296494
-0.0282652
-0.0532353
-0.056076
-0.0551262
-0.0478379
-0.0572971
0.0590978
0.0616728
0.0304897
0.0277624
0.0250986
0.0295195
0.028583
0.0304391
0.0292745
0.0305998
0.0619225
0.0577651
0.0263905
0.0360591
0.0284073
0.0398344
0.0450429
0.0328249
0.044229
0.0345699
0.027976
0.0293905
0.0170964
0.0167707
0.0133367
0.0200634
0.0211307
0.0248019
0.044847
0.0385263
0.0550858
0.0871771
0.0505891
0.086706
0.0470592
0.0373939
0.0345524
0.00996997
0.0149651
0.00446714
-0.00283722
0.00195411
0.0030487
0.00443656
0.0176664
0.00711947
0.0247011
0.0448998
0.0538619
0.0870271
0.0751673
0.137673
0.0971331
0.0786674
0.0323962
0.0161517
0.0220345
-0.018906
-0.0185006
-0.00935769
-0.0137422
-0.0239534
-0.00200748
-0.0096586
-0.0105123
0.000877245
0.00753633
0.0104574
0.0252932
-0.0538614
-0.0486071
-0.0219065
-0.0583686
-0.0422391
-0.0298865
-0.0283817
-0.0450537
-0.0305633
-0.0431359
-0.0522934
-0.0437259
-0.0807345
-0.0903397
-0.0819443
-0.148822
-0.115597
-0.0932826
-0.0878406
-0.0624603
-0.0536836
-0.0325401
-0.0467932
-0.0472672
-0.0567582
-0.0675687
-0.0667018
-0.110805
-0.122027
-0.121302
-0.172409
-0.136058
-0.133286
-0.0900561
-0.0679697
-0.0673748
-0.0256102
-0.032019
-0.0441788
-0.0467027
-0.0536747
-0.0592891
-0.088037
-0.0952644
-0.10112
-0.128254
-0.107928
-0.121417
-0.0686125
-0.0576622
-0.0644601
-0.013033
-0.0117267
-0.0269714
-0.0374649
-0.0386053
-0.0457395
-0.0625791
-0.0588345
-0.0777241
-0.0386705
-0.038873
-0.0487285
-0.00126626
0.00410378
-0.00708685
-0.00650888
-0.0165262
-0.0269686
-0.0137395
-0.0204797
-0.029181
0.00598668
0.00939958
0.00640862
0.0142686
0.0251591
0.0238973
0.0312666
0.0422754
0.045989
0.0597475
0.0656446
0.0636449
0.0177149
0.00292356
-0.00582711
-0.0033347
-0.00777587
-0.0133596
0.00854594
0.0117856
0.0111296
0.014876
0.0191683
0.0236627
0.0208309
0.0221246
0.0377076
0.0216486
0.01688
0.0222733
0.0139627
0.00710932
0.00397519
0.00250378
-0.00181905
-0.0042188
0.0123502
0.0152826
0.0167758
0.0129523
0.0185934
0.0180063
0.0173621
0.0102104
0.015285
0.0105568
0.00669743
0.00754562
-0.0723887
-0.0614846
-0.0544241
-0.10496
-0.118031
-0.141269
0.0023629
-0.0167759
-0.0219457
-0.119662
-0.117072
-0.105931
-0.180578
-0.20097
-0.207016
-0.147951
-0.166319
-0.144023
-0.106419
-0.111075
-0.101745
-0.171781
-0.19116
-0.180549
-0.207966
-0.20946
-0.187193
-0.0528448
-0.0598643
-0.0569043
-0.108704
-0.117436
-0.102893
-0.176293
-0.162705
-0.15168
-0.0385202
-0.0371426
-0.0286642
-0.0941264
-0.083986
-0.0817811
0.0438247
0.0319409
0.0185032
0.0949669
0.08731
0.0821252
0.0846847
0.0772779
0.0937255
-0.0204673
-0.0123598
-0.0156213
0.063005
0.0884382
0.050994
0.374746
0.329678
0.337366
0.0827321
0.101257
0.137802
0.371401
0.388644
0.021662
0.0330462
0.0199656
0.0698202
0.080801
0.041552
-0.03361
-0.0223134
-0.0188571
-0.027587
-0.0250706
-0.0394028
0.00470714
-0.00989307
-0.0168411
-0.0764742
-0.0834064
-0.112167
0.0557718
0.0327926
0.0253673
-0.0860383
-0.0576773
-0.0688428
-0.0533647
-0.0570838
-0.0728704
-0.0256417
-0.0409292
-0.040643
-0.0638725
-0.0590373
-0.0488168
-0.0886959
-0.0706104
-0.0762716
-0.0520285
-0.0625052
-0.0841056
-0.103902
-0.0976146
-0.087496
-0.131061
-0.124197
-0.127278
-0.100136
-0.104991
-0.111268
-0.198941
-0.202433
-0.195624
-0.132736
-0.119597
-0.155616
-0.0948954
-0.109218
-0.116248
-0.0872118
-0.0994853
-0.0870262
-0.0636655
-0.0664952
-0.0562145
-0.0986535
-0.0786365
-0.07487
-0.0794634
-0.0802265
-0.100338
-0.120455
-0.12173
-0.110601
-0.149765
-0.142386
-0.141065
-0.14352
-0.144168
-0.151812
-0.126527
-0.133335
-0.170031
-0.104507
-0.120241
-0.116173
-0.120408
-0.121738
-0.105574
-0.039933
-0.0471061
-0.0415026
-0.0657464
-0.0537366
-0.044779
-0.0692144
-0.0620346
-0.0714464
-0.0819255
-0.0888118
-0.0823733
-0.10738
-0.0955336
-0.0846948
-0.118204
-0.114939
-0.120138
-0.166985
-0.16616
-0.162971
-0.0843682
-0.101585
-0.120281
-0.0826235
-0.0921728
-0.0817877
-0.109823
-0.101678
-0.0901639
-0.0704208
-0.072897
-0.0641131
-0.108934
-0.105923
-0.104726
-0.0388389
-0.0499306
-0.0547955
-0.0475004
-0.0492883
-0.0390536
-0.0709119
-0.0598862
-0.0564679
0.0158507
0.0194065
0.0240059
-0.0126097
-0.00698474
-0.00881407
0.0340045
0.0402821
0.0314038
0.0518082
0.0436492
0.039802
0.0690885
0.0654794
0.060804
0.0383096
0.0412226
0.0511956
0.0245309
0.0360993
0.0296281
0.038905
0.0372465
0.0231974
-0.0966435
-0.0894689
-0.0950498
-0.0368269
-0.0593542
-0.0770108
-0.0436969
-0.0492075
-0.0354999
-0.0667755
-0.0808063
-0.0657207
0.0422172
0.0464714
0.0653597
-0.0527625
-0.0399787
-0.0340235
-0.183749
-0.1913
-0.195402
-0.110184
-0.118753
-0.113678
-0.0804148
-0.0989069
-0.0908025
-0.114649
-0.107029
-0.0937165
-0.165953
-0.158671
-0.168966
-0.149129
-0.141581
-0.142727
-0.130033
-0.132705
-0.139799
-0.102685
-0.113611
-0.109199
-0.143553
-0.146909
-0.145123
-0.160259
-0.159656
-0.155048
-0.143654
-0.142095
-0.138439
-0.18859
-0.198599
-0.17573
-0.233785
-0.225925
-0.222553
-0.197236
-0.181724
-0.17441
-0.221406
-0.218704
-0.227659
-0.153904
-0.17135
-0.185037
-0.129918
-0.124692
-0.121534
-0.139353
-0.137573
-0.143698
-0.105148
-0.115038
-0.118171
-0.151103
-0.153517
-0.155085
-0.131735
-0.133562
-0.13103
-0.157131
-0.161148
-0.160619
-0.156818
-0.158129
-0.153803
-0.202732
-0.194666
-0.177037
-0.204753
-0.208244
-0.213059
-0.186574
-0.208759
-0.205099
-0.0864077
-0.0888423
-0.0982245
-0.0573904
-0.0614161
-0.0604043
-0.126096
-0.128806
-0.130031
-0.101376
-0.108773
-0.102166
-0.114045
-0.114786
-0.111863
-0.160421
-0.158082
-0.155778
-0.13808
-0.122788
-0.117729
-0.148304
-0.14367
-0.149243
-0.10875
-0.114491
-0.116592
-0.204802
-0.198589
-0.201288
-0.155017
-0.160984
-0.168526
-0.143688
-0.157762
-0.14319
-0.0141569
-0.0137228
-0.018286
0.0113198
0.00785909
0.00575352
-0.0470582
-0.0478431
-0.0527372
-0.0225525
-0.0266873
-0.0266249
-0.0250479
-0.0242497
-0.0183686
-0.0611663
-0.0538565
-0.0533997
-0.0987745
-0.0972771
-0.103035
-0.0630723
-0.0783347
-0.0817857
-0.0727323
-0.0741432
-0.0646035
0.043068
0.0550683
0.0418586
0.065029
0.0574116
0.0448045
0.0151015
0.0170908
0.0142627
0.0376291
0.0539159
0.0593907
-0.0205787
-0.00498598
-0.00601053
-0.00309553
-0.00386068
-0.0291729
0.0333124