/*--------------------------------*- C++ -*----------------------------------*\
| =========                 |                                                 |
| \\      /  F ield         | OpenFOAM: The Open Source CFD Toolbox           |
|  \\    /   O peration     | Version:  5.x                                   |
|   \\  /    A nd           | Web:      www.OpenFOAM.org                      |
|    \\/     M anipulation  |                                                 |
\*---------------------------------------------------------------------------*/
FoamFile
{
    version     2.0;
    format      ascii;
    class       surfaceScalarField;
    location    "300";
    object      phi;
}
// * * * * * * * * * * * * * * * * * * * * * * * * * * * * * * * * * * * * * //

dimensions      [0 3 -1 0 0 0 0];

internalField   nonuniform List<scalar> 
13181
(
8.53387e-06
0.00915676
8.13085e-06
0.0091674
6.89366e-06
0.00916774
5.54769e-06
0.00916785
3.43855e-06
0.00916911
-4.18722e-06
0.00917413
-8.98754e-06
0.00917145
-9.79724e-06
0.00916751
-8.59466e-06
0.00916545
-3.69924e-06
0.00916175
5.40279e-06
0.0091576
1.69693e-05
0.00915508
2.76752e-05
0.00915594
3.42527e-05
0.00916012
3.55957e-05
0.00916531
3.26258e-05
0.00916962
2.69546e-05
0.00917237
1.99405e-05
0.00917366
8.66417e-06
0.00917778
-1.04019e-06
0.0091767
-1.35548e-05
0.00917901
-1.86457e-05
0.00917159
-1.96458e-05
0.009168
0.0091453
1.20681e-05
0.00914161
3.474e-05
0.00914473
3.48761e-05
0.0091676
3.41172e-05
0.0091686
2.78292e-05
0.0091754
8.35538e-06
0.0091936
-1.70315e-05
0.00919684
-2.52238e-05
0.0091757
-2.42469e-05
0.00916447
-1.46961e-05
0.004576
0.0045762
3.73476e-06
0.00456953
0.00456963
2.80771e-05
0.00456516
0.00456558
5.06583e-05
0.0045662
0.00456716
6.437e-05
0.00457262
0.00457379
6.68926e-05
0.00458082
0.00458197
5.30175e-05
0.0091835
3.14257e-05
0.00919396
9.84748e-06
0.00919524
-1.29281e-05
0.00920055
-2.08578e-05
0.00918463
-2.13977e-05
0.00917955
-2.23851e-05
0.00917258
-3.64361e-07
0.00914598
0.00914102
-4.29088e-06
0.0091409
-1.39687e-06
0.00914184
1.82485e-05
0.00914796
1.60335e-05
0.00917082
1.67758e-05
0.00917465
1.77155e-05
0.00919266
-1.55113e-05
0.00923006
-3.75199e-05
0.00919771
-1.97598e-05
0.00917129
-2.45815e-05
0.00457279
-1.65478e-05
0.00456421
-7.08896e-06
1.24104e-05
-1.01717e-08
0.00455695
8.2212e-06
-1.72328e-05
0.00455762
2.58164e-05
-3.32359e-05
0.00456698
3.88715e-05
-4.19276e-05
0.00458055
4.219e-05
4.1474e-05
0.00460971
-3.24041e-05
-4.37808e-05
0.0046085
3.8352e-06
0.0092316
-8.542e-06
0.00920762
-6.99036e-06
0.009199
-8.27717e-06
0.00918592
-9.7245e-06
0.009181
7.71797e-06
0.00915514
8.56781e-06
0.00914513
0.00914332
-1.03063e-05
0.00914434
-1.34464e-05
0.00914498
-1.41404e-05
0.00914865
-7.20413e-07
0.0091574
-5.65669e-06
0.00917959
-5.82702e-06
0.00919283
-1.07025e-05
0.00923494
-3.14713e-05
0.00921848
-3.57381e-05
0.00461586
-3.88668e-05
0.00459856
0.00456769
-3.20956e-05
-0.00457133
0.00454994
-1.94978e-05
-0.00455768
2.7238e-05
7.85688e-06
0.00453063
7.25442e-06
-0.00454574
-2.44157e-05
0.00452906
4.09855e-05
-0.00454563
-5.34356e-05
0.00456166
5.26463e-05
-0.00456087
-3.59985e-05
0.0046104
1.51639e-05
-0.00458956
-1.46965e-06
0.00461247
-1.29449e-06
3.16293e-05
0.00461191
-1.29887e-05
-1.64961e-06
0.00460271
2.54574e-05
0.00921379
1.74155e-05
0.00920704
6.84238e-06
0.00919649
1.83671e-05
0.00916948
1.76179e-05
0.00915589
1.22486e-05
0.0091505
0.00914724
-1.22501e-05
0.00914813
-1.71068e-05
0.00914983
-2.28071e-05
0.00915435
-2.50839e-05
0.00915968
-1.90454e-05
0.00917355
-2.30392e-05
0.00919682
9.57213e-06
0.00920233
1.8971e-05
0.00459111
6.74657e-06
0.00461123
0.0046434
-8.56728e-06
0.00457558
-3.51864e-05
-0.0045687
2.83059e-05
0.0045477
-4.28816e-05
-0.00454341
3.85889e-05
2.68443e-05
-3.36212e-08
-0.00451051
0.00224156
0.00224214
-3.31522e-05
6.58706e-05
-0.00450637
0.00223686
0.00223679
-7.6952e-05
4.16296e-05
-0.00457893
0.00230103
0.00231322
-5.26648e-05
0.00460983
5.43766e-05
-0.00461155
-4.63561e-05
0.00461964
4.67843e-05
-0.00462007
-4.49987e-05
0.00461282
4.40805e-05
5.14164e-05
0.00924114
-4.22793e-05
-3.64868e-05
3.18261e-05
0.00922663
3.38798e-05
0.00919444
2.85137e-05
0.00917484
2.02772e-05
0.00916412
1.43119e-05
0.00915646
0.00915171
-1.33798e-05
0.00915187
-1.84915e-05
0.00915495
-2.51287e-05
0.00916099
-3.43894e-05
0.00916894
-4.00457e-05
0.00917921
-4.35215e-05
0.0092003
-2.75168e-05
0.00922237
-3.60483e-05
0.00460035
-3.67605e-05
0.00460594
-3.85898e-08
-0.00463771
3.18051e-05
0.00458283
1.83634e-05
-0.00458518
-1.60201e-05
-0.00228314
5.41126e-07
0.00228843
-5.82889e-06
-0.00222876
1.54489e-05
0.0022306
-1.72833e-05
-0.00221341
-2.05035e-05
0.00220022
3.36941e-05
-0.00229012
-2.80378e-05
0.00226158
5.65778e-05
-4.15797e-05
0.000104867
-0.00461636
-4.55474e-05
0.00229507
0.00230355
-0.000101234
0.00463504
8.72178e-05
-0.00462103
-7.15417e-05
-0.00462299
0.00463631
5.82176e-05
6.58565e-05
0.00927697
-5.30819e-05
-4.86007e-05
5.26924e-05
0.0092398
4.14979e-05
0.00920564
2.94551e-05
0.00918689
2.1209e-05
0.00917237
1.49272e-05
0.00916275
0.00915611
-1.40168e-05
0.00915565
-1.9305e-05
0.00916023
-2.55939e-05
0.00916728
-3.41925e-05
0.00917754
-4.66e-05
0.00919162
-5.85312e-05
0.00921223
-3.85413e-05
0.00924087
-3.84929e-05
-0.00460953
0.00461951
-4.85251e-05
-0.00460787
0.00462326
-7.64563e-05
6.10676e-05
-0.00459397
0.00461903
9.62752e-05
-5.73212e-05
-6.40136e-05
-0.00227646
5.87951e-05
0.00227759
-5.99186e-05
-0.00111131
2.08575e-05
0.00110732
-1.68651e-05
-1.19884e-05
-0.00105551
0.00104981
1.76842e-05
-4.72836e-05
-0.00227967
9.28974e-05
-3.36563e-05
0.00112084
0.00114686
-0.000105356
-0.00230929
0.00232142
9.32278e-05
-0.000140333
-0.0046587
0.00468752
0.000111505
-8.81058e-05
-0.00465169
0.00467066
6.91302e-05
7.58252e-05
0.0093079
-5.30354e-05
-5.3719e-05
5.65755e-05
0.00925905
3.85793e-05
0.00922363
2.66095e-05
0.00919886
1.85484e-05
0.00918043
1.28572e-05
0.00916844
0.00915878
-1.30973e-05
0.00915858
-1.7963e-05
0.0091651
-2.35464e-05
0.00917286
-3.20878e-05
0.00918608
-4.34728e-05
0.009203
-5.99991e-05
0.00922876
-3.70256e-05
0.00925971
-4.18129e-05
-0.00463007
0.00464117
-4.81246e-05
-0.00464305
0.0046624
-8.2103e-05
6.27466e-05
-0.00465385
0.00469222
0.000108974
-7.22197e-05
-7.51252e-05
-0.00231385
0.000100848
0.00233449
-0.000121494
-0.00112635
0.000106489
0.00114016
-0.000120294
-0.000144978
-0.0011588
0.00117279
0.000130988
-0.000147216
-0.00236737
0.00238925
0.000125333
-0.000163413
-0.00472535
0.00476244
0.000126324
-9.86896e-05
-0.00469335
0.00471344
7.86023e-05
7.17831e-05
0.00935386
-5.57579e-05
-6.19844e-05
4.24629e-05
0.00928837
2.85672e-05
0.00923753
1.92927e-05
0.00920813
1.3746e-05
0.00918598
1.05707e-05
0.00917161
0.00916064
-1.1725e-05
0.00916089
-1.46509e-05
0.00916803
-1.8763e-05
0.00917697
-2.39091e-05
0.00919122
-3.10149e-05
0.00921011
-4.09978e-05
0.00923874
-3.15188e-05
0.00927582
-2.55806e-05
-0.00464422
0.00465316
-4.04644e-05
-0.00468511
0.00470013
-7.08773e-05
5.58559e-05
-0.0047296
0.00475681
9.02568e-05
-6.19035e-05
-5.55608e-05
-0.00239396
8.67757e-05
0.0024095
-0.000102314
-0.00122936
9.03803e-05
0.00123812
-9.91399e-05
-0.000121722
-0.00127446
0.00128531
0.000110871
-0.000112778
-0.00245036
0.00246817
9.49689e-05
-0.00011344
-0.00479715
0.00482326
8.73281e-05
-6.7241e-05
-0.00473132
0.00474476
5.37939e-05
5.19764e-05
0.00937372
-3.0353e-05
-4.14834e-05
2.69781e-05
0.00931336
1.32645e-05
0.00925124
9.09071e-06
0.0092123
6.67461e-06
0.00918839
5.2629e-06
0.00917302
0.00915976
-9.17505e-06
0.00916195
-1.13904e-05
0.00917024
-1.31223e-05
0.0091787
-1.56672e-05
0.00919377
-1.72875e-05
0.00921173
-1.91835e-05
0.00924064
-1.38219e-05
0.00927736
-6.90385e-06
-0.004661
0.00466882
-2.16395e-05
-0.00470948
0.00471279
-2.81219e-05
2.48075e-05
-0.0047726
0.00477551
3.09076e-05
-2.1127e-05
-1.26888e-05
-0.00243752
2.72181e-05
0.00243991
-2.96004e-05
-0.00127055
2.1858e-05
0.00127134
-2.26561e-05
-2.42257e-05
-0.00132658
0.00132766
2.3146e-05
-2.64081e-05
-0.00249951
0.00250247
2.34522e-05
-2.37573e-05
-0.00483826
0.00484072
2.12966e-05
-1.91891e-05
-0.0047534
0.00475628
1.63048e-05
1.68373e-05
0.00937133
-1.95526e-06
-1.24935e-05
1.83923e-05
0.00931181
1.48559e-06
0.00926815
-3.64264e-06
0.00921743
-1.34152e-06
0.00918609
-9.19468e-08
0.00917177
0.009157
-6.8428e-06
0.00916236
-7.37213e-06
0.00917077
-7.30506e-06
0.00917864
-5.88116e-06
0.00919234
-4.34495e-06
0.00921019
1.93486e-06
0.00923436
3.22691e-06
0.009269
7.07025e-06
-0.00467121
0.00467157
2.87203e-06
-0.00471023
0.0047023
1.58577e-05
-7.92404e-06
-0.00476628
0.0047478
-2.85622e-05
1.99454e-05
2.70949e-05
-0.00242765
-3.19485e-05
0.00241834
4.12643e-05
-0.00125148
-4.16029e-05
0.00124581
4.72744e-05
6.66184e-05
-0.00130135
0.00129389
-5.9162e-05
5.89532e-05
-0.00248803
0.00247747
-4.83918e-05
6.25489e-05
-0.00483145
0.00481309
-4.41877e-05
2.94056e-05
-0.00475248
0.00474367
-2.05977e-05
-1.79028e-05
0.0093509
2.28745e-05
1.54552e-05
-3.87161e-06
0.00929778
3.93339e-06
0.00926034
-1.60499e-05
0.00923742
-1.06966e-05
0.00918074
-5.86302e-06
0.00916694
0.00915252
-4.12926e-06
0.00916185
-2.78111e-06
0.00916942
-9.29387e-07
0.00917678
2.55376e-06
0.00918886
9.19247e-06
0.00920355
2.10061e-05
0.00922254
1.53832e-05
0.00925595
1.86657e-05
-0.00466572
0.00465936
2.17448e-05
-0.00469089
0.00467755
4.48211e-05
-3.14839e-05
-0.00472296
0.00469608
-6.38842e-05
4.4367e-05
4.63929e-05
-0.00238201
-6.42476e-05
0.00236883
7.74302e-05
-0.00119768
-6.83292e-05
0.00119077
7.52342e-05
0.000104187
-0.00123345
0.00122491
-9.56499e-05
0.00010481
-0.00243363
0.00241756
-8.87348e-05
0.00011548
-0.00478612
0.00475436
-8.37253e-05
6.24094e-05
-0.00473053
0.0047152
-4.7079e-05
-4.09036e-05
0.00931735
3.88729e-05
3.55761e-05
-2.04653e-05
0.00927734
-6.94821e-06
0.00924683
-7.531e-07
0.00923122
-1.88078e-05
0.00919879
-1.19059e-05
0.00916004
0.00914623
-1.8576e-06
0.00916077
3.79397e-07
0.00916719
3.26347e-06
0.0091739
8.56331e-06
0.00918356
1.62109e-05
0.0091959
2.93898e-05
0.00920936
2.34031e-05
0.00923772
2.4217e-05
-0.00465133
0.00464349
3.12461e-05
-0.00466351
0.00465038
5.3744e-05
-4.06136e-05
-0.00466958
0.00464653
-7.10319e-05
4.79238e-05
4.61539e-05
-0.00233188
-6.54483e-05
0.00232161
7.57109e-05
-0.00114812
-6.06686e-05
0.00114379
6.50024e-05
9.52707e-05
-0.00116673
0.00115932
-8.78616e-05
0.000103774
-0.00237104
0.0023577
-9.04275e-05
0.000120166
-0.0047199
0.00469166
-9.193e-05
7.10692e-05
-0.00469953
0.00468451
-5.60497e-05
-4.93943e-05
0.00928323
4.14903e-05
4.20259e-05
-2.74073e-05
0.00925535
-1.22585e-05
0.00923168
-9.98492e-06
0.00922895
-2.1899e-05
0.00921071
-1.72109e-05
0.00915535
0.00913869
2.98289e-07
0.00915897
2.40857e-06
0.00916507
6.087e-06
0.00917022
1.10458e-05
0.0091786
1.84458e-05
0.0091885
2.91367e-05
0.00919867
4.30941e-05
0.00922377
3.71226e-05
0.00925445
2.80702e-05
-0.00463654
-0.00464002
-0.00463938
0.00463186
4.46412e-05
-0.00462842
0.00463484
4.05359e-05
-4.69547e-05
-0.00230687
-8.62749e-06
0.00233208
-1.6579e-05
-0.00114993
3.40648e-05
0.00113148
-1.56139e-05
-0.000300449
5.9246e-06
0.000310516
-1.59914e-05
3.367e-05
-0.00112918
0.00227085
-7.02326e-05
2.86937e-05
-0.0011338
-0.00232947
7.11441e-05
0.00232547
-6.71413e-05
8.89575e-05
-0.00467025
0.00465421
-7.29111e-05
5.92886e-05
-0.00467347
0.00467003
-5.58536e-05
-4.53844e-05
0.00925802
3.29729e-05
3.76216e-05
-2.66247e-05
0.00923659
-1.31255e-05
0.00921818
-2.51765e-05
0.009241
1.45796e-06
0.00918407
-1.8967e-05
0.00917578
0.00913299
7.96956e-07
0.00915774
2.85003e-06
0.00916302
5.74694e-06
0.00916733
9.56489e-06
0.00917478
1.56295e-05
0.00918244
2.15975e-05
0.00919271
1.64612e-05
0.0092289
-4.87372e-06
0.00930273
-2.69381e-05
-0.00464111
0.00465872
-2.24811e-05
-0.00464467
0.0046243
-5.79913e-08
2.04258e-05
-0.0022977
-1.83337e-05
0.00229369
2.23466e-05
-0.00226147
-1.40641e-05
0.00226795
7.5832e-06
-0.000854509
2.53993e-05
0.00181277
-5.20234e-05
-0.000931633
-0.0022997
6.04629e-05
0.00229418
-5.4942e-05
-0.00462502
6.72733e-05
0.00463645
-0.000122467
4.37625e-05
0.000114208
-0.00464576
0.00463454
-0.000102989
-0.000126203
0.00925314
6.28223e-05
9.45065e-05
-0.00468603
-0.00459823
-9.98687e-05
0.00923169
-8.00206e-05
0.00921675
-6.20395e-05
0.0092002
-7.80364e-06
0.00918676
1.61691e-06
0.00917465
8.93391e-06
0.00916846
0.00915818
1.20711e-06
0.00915679
2.39923e-06
0.00916183
4.16058e-06
0.00916556
6.92813e-06
0.00917202
9.68766e-06
0.00917968
8.67638e-06
0.00919372
-1.46615e-05
0.00925224
-2.70888e-05
0.00930419
1.09581e-05
-0.00465495
0.0046257
2.16452e-06
-0.00461122
0.00461026
1.86926e-05
-1.77302e-05
-0.0045936
0.00460137
7.99825e-06
-1.57674e-05
-0.00228293
4.33418e-07
0.00228634
-3.84922e-06
-0.00186823
1.77557e-05
0.00188922
-3.87482e-05
-0.00229352
3.71579e-05
0.00459851
-8.32351e-05
-0.00229467
3.57592e-05
-0.00462808
9.32855e-05
0.00462204
-8.72419e-05
-0.00462776
8.28743e-05
0.004622
-7.71153e-05
-9.26705e-05
0.00921734
5.98346e-05
6.86367e-05
-6.44393e-05
0.00920346
-5.46414e-05
0.00920695
-4.93225e-05
0.00919488
-4.35747e-05
0.00918101
-3.67729e-05
0.00916785
-2.71131e-05
0.0091588
0.00914962
6.38736e-07
0.00915676
1.804e-06
0.00916066
2.77423e-06
0.00916459
3.87412e-06
0.00917092
4.3198e-06
0.00917923
-5.93839e-06
0.00920397
-2.15622e-05
0.00926786
1.01101e-05
0.00927252
6.95558e-06
0.00924172
-0.00462408
-0.004618
3.51363e-06
-0.0046123
0.00461309
6.16828e-06
-0.00460797
0.0046135
-2.37374e-06
-3.16231e-06
-0.00458542
1.02602e-05
0.00458886
-1.36975e-05
-0.0040471
3.05047e-05
0.0040722
-5.55988e-05
-0.00460809
5.86067e-05
0.00461205
-6.25741e-05
-0.00461702
6.24931e-05
0.00461452
-5.99972e-05
-0.00461822
5.87851e-05
0.00461546
-5.60289e-05
-9.06445e-05
0.00920649
4.95094e-05
5.1988e-05
-7.52218e-05
0.00918803
-5.90469e-05
0.00919077
-4.22424e-05
0.00917807
-2.72318e-05
0.009166
-2.10399e-05
0.00916166
-1.93296e-05
0.00915709
0.00915055
2.20998e-07
0.00915718
2.97584e-07
0.00916059
-3.61131e-08
0.00916493
-1.45181e-08
0.0091709
-3.61376e-06
0.00918283
-2.49358e-05
0.0092253
-2.3522e-05
0.00926645
-6.10716e-07
0.00924961
-5.47852e-06
0.00924658
-5.78641e-06
0.00923829
-0.00461453
-0.00461452
-8.92824e-06
-0.00461845
0.00462258
-9.91906e-06
-0.00458756
1.74856e-05
0.00457488
-4.80547e-06
-0.004096
2.715e-05
0.00412592
-5.70731e-05
-0.00461622
4.12101e-05
0.00462011
-4.51011e-05
-8.75804e-05
0.00922423
-0.00461397
-0.00461169
4.2924e-05
4.6085e-05
-8.51257e-05
0.00922268
-0.00461339
-0.00461175
-7.77972e-05
0.00919916
-7.14078e-05
0.00918164
-5.72729e-05
0.00917664
-4.50481e-05
0.00916585
-3.48124e-05
0.00915577
-2.64896e-05
0.00915333
-1.46713e-05
0.00914527
0.00915719
-4.34081e-07
0.00915806
-1.42824e-06
0.00916158
-1.9835e-06
0.00916548
-2.8574e-06
0.00917177
-5.62182e-06
0.0091856
-2.17255e-05
0.0092414
-1.30283e-05
0.00925775
-3.87211e-06
0.00924045
-1.10594e-05
0.00925377
-2.01487e-05
0.00924738
-2.6464e-05
0.00925888
-0.00462961
-0.00462296
-5.00409e-05
0.00880537
-0.00452254
-0.00425925
-7.45092e-05
0.00870621
-0.00418953
-0.00449221
-7.42703e-05
0.00925382
-0.00462571
-0.00462835
-7.37929e-05
0.00922375
-7.26612e-05
0.00922155
-6.7472e-05
0.00919397
-6.25157e-05
0.00917669
-5.24513e-05
0.00916657
-4.38943e-05
0.00915729
-3.77708e-05
0.00914964
-2.77737e-05
0.00914334
-1.94313e-05
0.00913693
0.00915963
-1.23804e-06
0.00915936
-2.23978e-06
0.00916258
-3.9063e-06
0.00916715
-5.4836e-06
0.00917335
-8.5958e-06
0.00918871
-1.75116e-05
0.00925032
-1.25807e-05
0.00925282
-9.16565e-06
0.00923704
-1.45088e-05
0.00925911
-2.26802e-05
0.00925555
-2.82979e-05
0.00926449
-4.25574e-05
0.00881963
-5.68358e-05
0.00872049
-5.99967e-05
0.00925698
-6.29587e-05
0.00922672
-6.25177e-05
0.00922111
-5.91568e-05
0.00919061
-5.51772e-05
0.00917271
-4.80301e-05
0.00915943
-4.12059e-05
0.00915047
-3.49996e-05
0.00914344
-2.76712e-05
0.00913601
-2.0797e-05
0.00913005
0.00916086
-2.12811e-06
0.00916101
-4.06187e-06
0.00916452
-6.21728e-06
0.0091693
-8.32853e-06
0.00917546
-1.05234e-05
0.00919091
-1.34666e-05
0.00925326
-1.28429e-05
0.0092522
-1.27683e-05
0.00923697
-1.73325e-05
0.00926368
-2.46025e-05
0.00926282
-2.82723e-05
0.00926816
-3.82314e-05
0.00882958
-4.81469e-05
0.0087304
-5.0466e-05
0.0092593
-5.43048e-05
0.00923055
-5.41691e-05
0.00922097
-5.20354e-05
0.00918847
-4.93231e-05
0.00917
-4.41402e-05
0.00915424
-3.86779e-05
0.009145
-3.31683e-05
0.00913793
-2.687e-05
0.00912971
-2.08923e-05
0.00912408
0.00916184
-3.06223e-06
0.00916296
-5.34209e-06
0.0091668
-7.3677e-06
0.00917133
-9.86813e-06
0.00917796
-1.24428e-05
0.00919348
-1.32198e-05
0.00925404
-1.47546e-05
0.00925373
-1.84513e-05
0.00924066
-1.91949e-05
0.00926442
-2.5375e-05
0.009269
-2.83816e-05
0.00927117
-3.49582e-05
0.00883616
-4.15651e-05
0.00873701
-4.39811e-05
0.00926171
-4.73447e-05
0.00923392
-4.73994e-05
0.00922103
-4.6178e-05
0.00918725
-4.44327e-05
0.00916825
-3.98546e-05
0.00914967
-3.64425e-05
0.00914159
-3.09165e-05
0.0091324
-2.59957e-05
0.00912479
-2.13092e-05
0.00911939
0.00916201
-4.51617e-06
0.00916565
-6.05754e-06
0.00916834
-8.85277e-06
0.00917413
-1.11218e-05
0.00918023
-1.39175e-05
0.00919628
-1.48877e-05
0.00925501
-1.66094e-05
0.00925545
-2.01741e-05
0.00924423
-2.03121e-05
0.00926456
-2.5524e-05
0.00927421
-2.80065e-05
0.00927365
-3.23364e-05
0.00884049
-3.66333e-05
0.00874131
-3.88719e-05
0.00926395
-4.17825e-05
0.00923683
-4.18895e-05
0.00922113
-4.11733e-05
0.00918654
-3.94259e-05
0.0091665
-3.66672e-05
0.00914691
-3.35621e-05
0.00913849
-2.88203e-05
0.00912766
-2.463e-05
0.0091206
-2.01303e-05
0.00911489
0.00916276
-4.97153e-06
0.009168
-7.70662e-06
0.00917107
-1.01786e-05
0.0091766
-1.26258e-05
0.00918267
-1.55278e-05
0.00919918
-1.60829e-05
0.00925556
-1.79163e-05
0.00925729
-2.12569e-05
0.00924757
-2.34637e-05
0.00926677
-2.54789e-05
0.00927623
-2.73756e-05
0.00927555
-3.01927e-05
0.00884331
-3.28931e-05
0.00874401
-3.48517e-05
0.00926591
-3.72949e-05
0.00923927
-3.7423e-05
0.00922126
-3.699e-05
0.0091861
-3.56926e-05
0.00916521
-3.30385e-05
0.00914425
-3.05329e-05
0.00913598
-2.74165e-05
0.00912454
-2.38138e-05
0.009117
-2.03892e-05
0.00911146
0.00916253
-5.92646e-06
0.00917046
-8.28641e-06
0.00917343
-1.13655e-05
0.00917968
-1.39182e-05
0.00918523
-1.63448e-05
0.0092016
-1.69141e-05
0.00925613
-1.88769e-05
0.00925925
-2.1949e-05
0.00925064
-2.48985e-05
0.00926972
-2.51778e-05
0.00927651
-2.66627e-05
0.00927704
-2.81996e-05
0.00884485
-3.00153e-05
0.00874582
-3.13555e-05
0.00926725
-3.35894e-05
0.00924151
-3.37155e-05
0.00922139
-3.35593e-05
0.00918595
-3.26186e-05
0.00916427
-3.0899e-05
0.00914253
-2.88404e-05
0.00913392
-2.52236e-05
0.00912093
-2.20899e-05
0.00911386
-1.91348e-05
0.00910851
0.00916271
-6.87727e-06
0.00917298
-9.30857e-06
0.00917586
-1.1931e-05
0.0091823
-1.45337e-05
0.00918783
-1.74376e-05
0.00920451
-1.79747e-05
0.00925667
-1.95036e-05
0.00926078
-2.23469e-05
0.00925348
-2.5009e-05
0.00927238
-3.06294e-05
0.00928213
-3.01736e-05
0.00927658
-3.03074e-05
0.00884498
-3.03661e-05
0.00874588
-3.14204e-05
0.0092683
-3.28517e-05
0.00924294
-3.29e-05
0.00922144
-3.30207e-05
0.00918607
-3.2583e-05
0.00916383
-3.21746e-05
0.00914213
-2.79522e-05
0.0091297
-2.47264e-05
0.0091177
-2.14568e-05
0.00911059
-1.83812e-05
0.00910543
0.00916272
-7.82365e-06
0.0091755
-1.02799e-05
0.00917832
-1.24002e-05
0.00918442
-1.55138e-05
0.00919094
-1.78544e-05
0.00920685
-1.88327e-05
0.00925765
-1.99874e-05
0.00926193
-2.26062e-05
0.0092561
-2.75112e-05
0.00927728
-3.22853e-05
0.0092869
-3.3054e-05
0.00927735
-3.34402e-05
0.00884537
-3.38939e-05
0.00874633
-3.51299e-05
0.00926954
-3.64261e-05
0.00924423
-3.63901e-05
0.0092214
-3.62681e-05
0.00918595
-3.50235e-05
0.00916258
-3.38357e-05
0.00914094
-3.23078e-05
0.00912817
-2.98557e-05
0.00911525
-2.78404e-05
0.00910858
-2.50537e-05
0.00910265
0.00915503
-8.7629e-06
0.00917799
-1.1207e-05
0.00918076
-1.3793e-05
0.009187
-1.58808e-05
0.00919303
-1.81413e-05
0.00920911
-1.90426e-05
0.00925855
-2.03927e-05
0.00926328
-2.52239e-05
0.00926093
-2.9453e-05
0.00928151
-3.20781e-05
0.00928953
-3.24835e-05
0.00927775
-3.24678e-05
0.00884535
-3.24273e-05
0.00874629
-3.33063e-05
0.00927042
-3.4368e-05
0.0092453
-3.43108e-05
0.00922134
-3.41679e-05
0.0091858
-3.34234e-05
0.00916184
-3.18861e-05
0.0091394
-3.05075e-05
0.00912679
-2.87613e-05
0.0091135
-2.6437e-05
0.00910625
-2.43567e-05
0.00910057
0.00914703
-9.69228e-06
0.00918041
-1.15911e-05
0.00918266
-1.41123e-05
0.00918953
-1.61596e-05
0.00919508
-1.883e-05
0.00921178
-1.96524e-05
0.00925937
-2.30753e-05
0.00926671
-2.77833e-05
0.00926564
-2.96272e-05
0.00928336
-3.18455e-05
0.00929175
-3.21434e-05
0.00927805
-3.17204e-05
0.00884493
-3.12506e-05
0.00874582
-3.19652e-05
0.00927113
-3.27907e-05
0.00924612
-3.26545e-05
0.00922121
-3.24627e-05
0.00918561
-3.16857e-05
0.00916106
-3.07339e-05
0.00913845
-2.89481e-05
0.00912501
-2.68532e-05
0.00911141
-2.56407e-05
0.00910504
-2.32097e-05
0.00909814
0.00913912
-1.01022e-05
0.00918222
-1.29383e-05
0.0091855
-1.48702e-05
0.00919146
-1.73682e-05
0.00919758
-1.89397e-05
0.00921335
-2.27039e-05
0.00926313
-2.64578e-05
0.00927046
-2.81096e-05
0.00926729
-2.98196e-05
0.00928507
-3.18107e-05
0.00929374
-3.18471e-05
0.00927809
-3.11901e-05
0.00884427
-3.03289e-05
0.00874496
-3.08481e-05
0.00927165
-3.15751e-05
0.00924685
-3.1301e-05
0.00922093
-3.10973e-05
0.00918541
-3.02567e-05
0.00916022
-2.93559e-05
0.00913755
-2.76131e-05
0.00912327
-2.61104e-05
0.00910991
-2.39665e-05
0.0091029
-2.21191e-05
0.00909629
0.00913127
-1.14862e-05
0.0091844
-1.32329e-05
0.00918725
-1.50622e-05
0.00919329
-1.75051e-05
0.00920002
-2.25069e-05
0.00921835
-2.87216e-05
0.00926935
-2.68396e-05
0.00926858
-2.83881e-05
0.00926884
-2.99531e-05
0.00928663
-3.18372e-05
0.00929562
-3.18063e-05
0.00927806
-3.08718e-05
0.00884333
-2.97864e-05
0.00874388
-3.01267e-05
0.00927199
-3.05762e-05
0.0092473
-3.03063e-05
0.00922066
-3.00354e-05
0.00918514
-2.91049e-05
0.00915929
-2.77277e-05
0.00913617
-2.69824e-05
0.00912252
-2.50391e-05
0.00910796
-2.34058e-05
0.00910126
-2.15974e-05
0.00909448
0.0091229
-1.18167e-05
0.00918592
-1.39725e-05
0.0091894
-1.61836e-05
0.0091955
-1.75726e-05
0.00920141
-3.25453e-05
0.00923333
-2.86551e-05
0.00926546
-2.72447e-05
0.00926717
-2.874e-05
0.00927034
-3.0245e-05
0.00928814
-3.19913e-05
0.00929737
-3.18904e-05
0.00927796
-3.07662e-05
0.00884221
-2.94182e-05
0.00874253
-2.96238e-05
0.0092722
-2.99677e-05
0.00924764
-2.95295e-05
0.00922022
-2.91915e-05
0.0091848
-2.81972e-05
0.0091583
-2.73251e-05
0.0091353
-2.55542e-05
0.00912075
-2.46367e-05
0.00910704
-2.2476e-05
0.0090991
-2.06698e-05
0.00909267
0.00911446
-1.30722e-05
0.00918773
-1.41342e-05
0.00919046
-1.62107e-05
0.00919757
-2.66308e-05
0.00921183
-3.34456e-05
0.00924014
-2.9558e-05
0.00926157
-2.75614e-05
0.00926517
-2.90676e-05
0.00927184
-3.05406e-05
0.00928961
-3.22968e-05
0.00929912
-3.21346e-05
0.00927779
-3.08886e-05
0.00884096
-2.94296e-05
0.00874107
-2.9372e-05
0.00927214
-2.95699e-05
0.00924784
-2.90365e-05
0.00921969
-2.86479e-05
0.00918441
-2.75055e-05
0.00915715
-2.66498e-05
0.00913444
-2.53076e-05
0.00911941
-2.34227e-05
0.00910516
-2.16881e-05
0.00909737
-1.93672e-05
0.00909035
0.0091064
-1.3208e-05
0.00918882
-1.52068e-05
0.00919246
-1.66274e-05
0.009199
-2.95804e-05
0.00922478
-3.27422e-05
0.0092433
-2.94159e-05
0.00925824
-2.78752e-05
0.00926363
-2.94209e-05
0.00927339
-3.08784e-05
0.00929107
-3.27564e-05
0.009301
-3.27218e-05
0.00927776
-3.1263e-05
0.00883951
-2.97006e-05
0.00873951
-2.93564e-05
0.0092718
-2.94163e-05
0.0092479
-2.86862e-05
0.00921896
-2.82837e-05
0.00918401
-2.6999e-05
0.00915587
-2.61918e-05
0.00913364
-2.4739e-05
0.00911795
-2.33958e-05
0.00910382
-2.10539e-05
0.00909503
-1.92069e-05
0.00908851
0.00909767
-1.36375e-05
0.00918963
-1.51526e-05
0.00919398
-1.63563e-05
0.0092002
-2.64257e-05
0.00923485
-3.13734e-05
0.00924825
-3.02662e-05
0.00925714
-2.80118e-05
0.00926138
-2.98629e-05
0.00927524
-3.12503e-05
0.00929245
-3.34879e-05
0.00930324
-3.37147e-05
0.00927799
-3.19689e-05
0.00883776
-3.03382e-05
0.00873788
-2.95759e-05
0.00927103
-2.95436e-05
0.00924787
-2.84502e-05
0.00921787
-2.8225e-05
0.00918378
-2.71312e-05
0.00915478
-2.59957e-05
0.0091325
-2.43328e-05
0.00911629
-2.26289e-05
0.00910211
-2.10934e-05
0.00909349
-1.87913e-05
0.0090862
0.00908871
-1.44089e-05
-1.59739e-05
-1.64654e-05
-2.16693e-05
-2.43741e-05
-3.05611e-05
-2.81345e-05
-3.02132e-05
-3.14407e-05
-3.41801e-05
-3.4903e-05
-3.29635e-05
-3.14142e-05
-2.9973e-05
-2.97104e-05
-2.83327e-05
-2.8247e-05
-2.63911e-05
-2.59479e-05
-2.40675e-05
-2.30151e-05
-2.03015e-05
-1.90504e-05
9.76762e-05
-0.000107441
-0.0012196
0.00128105
0.000131111
-0.00126735
-7.12346e-05
-7.35797e-05
-0.00114885
-0.000160551
0.00116442
3.1078e-05
-3.27132e-05
-0.00126891
0.00133686
3.73493e-05
-0.00133484
-1.83555e-05
-2.10204e-05
0.00129303
-6.58024e-05
-6.78954e-05
-3.51532e-05
4.03245e-05
-0.00125665
0.00130658
-5.78436e-05
-0.00131387
3.35524e-05
3.15795e-05
0.00133745
-1.1092e-05
-1.37174e-05
-6.71966e-05
7.41584e-05
-0.00120464
0.0012335
-0.000102899
-0.00124324
0.000112636
0.00129867
3.81547e-05
3.638e-05
-6.28307e-05
6.8062e-05
-0.00115335
0.00116042
-9.85115e-05
-0.00116881
0.000106903
0.000114387
0.0012233
3.60689e-05
-5.07667e-05
-0.00113524
-6.27142e-06
0.000352713
-4.08157e-06
-0.000180526
-0.000161833
-2.11389e-05
-0.000125253
-0.000160328
0.00112137
-5.17782e-05
-0.00112021
5.06245e-05
0.000102082
0.0011536
0.000100259
-0.000110808
-0.00111581
-0.00104914
4.80928e-07
0.00103667
0.000134317
-0.00113557
-0.000147596
-0.00111116
-5.30308e-05
0.00111691
9.7045e-05
-0.000115723
-0.00237528
0.00122435
-0.00121563
8.89626e-05
-0.00113805
9.57553e-05
0.00114878
0.000309103
0.000124422
-0.00061023
0.000310362
-6.60659e-05
-6.75914e-05
0.000112663
-0.000537036
-0.000122345
0.000546717
0.000118904
-0.00126225
0.00246504
0.000128824
-0.00244079
-0.000153083
-0.00236156
-0.000173257
0.0023876
4.36985e-05
-4.95195e-05
-0.0024317
0.00126289
-0.0012613
2.94898e-05
8.23081e-05
0.00123242
0.00125791
6.66903e-05
-7.22208e-05
-0.00125238
0.000643268
-2.27996e-05
-0.000641602
4.27762e-05
-2.16424e-05
-0.000629493
-6.58375e-05
6.33202e-05
0.00063201
0.000328039
9.44465e-06
-0.000336504
-9.79786e-07
-0.000330506
5.12278e-05
-5.63163e-05
0.000335594
3.5051e-05
-0.00132428
0.00252252
5.02017e-05
-0.00251539
-5.73247e-05
-0.000134146
0.00248641
-1.88967e-05
2.60958e-05
-0.00243485
0.00124704
-0.0012516
-3.05918e-05
2.08336e-05
0.00126391
0.00126801
-4.7559e-06
6.67163e-06
-0.00126993
0.000659579
7.98065e-06
-0.000660843
-8.96701e-06
2.25075e-06
-0.000657795
-7.97122e-06
1.36049e-05
0.000657646
-5.48446e-06
0.000304494
-1.88326e-07
-0.000304125
-1.80417e-07
-0.000306617
2.43344e-08
0.00030696
-3.67476e-07
-5.09601e-05
-0.00130823
0.00250444
-3.97572e-05
-0.00251521
5.05323e-05
-2.87415e-05
0.00252485
-5.94613e-05
7.24055e-05
-0.00239495
0.00119842
-0.0012049
-6.07233e-05
-3.66166e-05
0.00124205
0.00122594
-5.68326e-05
6.3847e-05
-0.00123295
4.70301e-05
0.000617754
-0.000620635
-4.41495e-05
-0.000639027
1.75292e-05
-3.24259e-05
0.000635734
1.81897e-05
0.000330908
-4.18717e-05
-0.000339269
5.02324e-05
-0.00031565
-9.27686e-06
2.07411e-06
0.000322852
-9.34771e-05
-0.00124287
0.0024377
-9.63858e-05
-0.00245677
0.000115461
7.25006e-05
0.00249089
0.00057488
-7.39336e-05
-0.000577159
3.84185e-05
3.77938e-05
-0.000300554
-3.71641e-05
3.79382e-05
0.00029978
-9.08372e-05
-0.0011744
0.00236429
-0.000107559
-0.00238139
0.000124656
0.000123739
0.00241877
0.000534065
-5.36478e-05
-0.000536093
5.56762e-05
-0.000553349
-6.64794e-05
6.90642e-05
0.000550764
-2.10859e-05
1.37602e-05
-0.00225414
-1.33405e-05
0.000895149
-0.000875992
-5.81688e-06
-1.82611e-06
0.000360463
-3.54148e-05
-0.000832435
-6.62215e-05
0.00229
-0.00229898
7.52018e-05
2.93238e-05
0.00112571
-6.72013e-05
-0.000628081
6.57892e-05
-9.06416e-05
-0.000598253
8.50479e-05
0.000603846
-0.00118358
0.000112738
0.00119641
-0.00012557
-0.00059935
0.000605785
-4.89082e-05
-4.8168e-05
0.000630492
-0.000631869
-3.3193e-05
-3.26316e-05
8.67562e-05
-0.00053695
0.000544172
-9.39779e-05
9.27195e-05
-9.85188e-05
-0.000593551
4.55242e-05
-0.000332611
-4.34189e-05
6.19707e-05
-6.37949e-05
0.000310927
-0.00121951
0.000151588
-0.000168528
0.00123645
-0.000615762
-6.11878e-05
0.000623499
0.000115421
0.000331968
4.55969e-05
-0.000332041
-6.73824e-06
-0.000658094
1.66082e-05
-9.57111e-06
-2.30729e-05
4.15226e-05
0.000648837
-2.40187e-05
5.79206e-05
0.00126259
-6.26019e-05
-0.000319959
0.000322734
-2.58482e-05
0.000335133
-7.27486e-06
-0.000334596
0.000317182
0.00031743
-3.37178e-05
-3.62395e-05
-2.32915e-05
-0.000319467
-1.66813e-06
-0.000308436
3.48685e-06
1.57819e-05
-5.42684e-06
0.000317684
-0.00131993
7.58353e-05
0.00132633
-3.98618e-05
-4.23738e-05
-0.000332013
0.000325465
2.233e-05
0.000336158
1.15429e-06
-0.00033898
0.000335725
4.74705e-05
1.70662e-05
-0.000339634
8.82171e-05
-0.00131243
-4.65981e-05
-4.91168e-05
1.75753e-05
-0.000642042
-3.00571e-05
1.54964e-05
7.14463e-06
-1.37053e-05
0.000653844
1.22954e-05
-1.28884e-05
0.00126487
1.60273e-05
-0.000341114
0.000337143
1.11154e-05
0.000322535
1.92276e-05
-0.000324188
0.000334032
-6.87021e-06
7.24533e-06
-0.000340379
-1.5676e-05
-0.000306959
6.98522e-06
-9.11305e-07
0.000304551
8.5433e-07
-0.00133072
-2.62327e-05
0.00132602
1.65577e-05
1.43709e-05
-0.000333987
0.000335536
-2.46018e-06
0.000321175
-2.10139e-05
-0.000315837
0.00033469
1.49186e-06
-1.96561e-06
-0.00033221
-1.42845e-05
-0.00133425
1.00415e-05
7.77234e-06
-0.000615428
-4.77868e-05
0.000613327
2.41442e-05
2.57428e-05
0.000593125
-4.96949e-05
5.15051e-05
-0.000594936
0.000319973
2.00917e-05
-0.000617848
2.47772e-05
2.46738e-05
-3.8613e-05
-0.000302342
4.04014e-05
-4.56414e-05
5.79046e-05
0.000318645
-0.00127188
-9.2104e-05
0.00126232
5.11403e-05
5.05205e-05
-0.000327777
0.000320783
-3.86478e-05
0.000606118
3.81521e-05
-7.18778e-05
-0.000611005
0.000327533
-1.56347e-05
-3.69538e-05
-0.000332695
-8.72119e-05
-0.00128119
4.88276e-05
4.76933e-05
-0.000576904
-4.82406e-05
0.000574813
5.0332e-05
0.000562032
-4.27918e-05
4.42721e-05
-0.000563512
-4.97947e-05
0.00059212
5.08006e-05
-4.85818e-05
5.08564e-05
-0.000579179
-6.72178e-05
-0.000556324
7.01932e-05
-7.36246e-05
0.00057189
3.8642e-05