/*--------------------------------*- C++ -*----------------------------------*\
| =========                 |                                                 |
| \\      /  F ield         | OpenFOAM: The Open Source CFD Toolbox           |
|  \\    /   O peration     | Version:  5.x                                   |
|   \\  /    A nd           | Web:      www.OpenFOAM.org                      |
|    \\/     M anipulation  |                                                 |
\*---------------------------------------------------------------------------*/
FoamFile
{
    version     2.0;
    format      ascii;
    class       volScalarField;
    location    "300";
    object      T;
}
// * * * * * * * * * * * * * * * * * * * * * * * * * * * * * * * * * * * * * //

dimensions      [0 0 0 1 0 0 0];

internalField   nonuniform List<scalar> 
6584
(
275
275
275
275
275
275
275
275
275
275
275
275
275
275
275
275
275
275
275
275
275
275
275
275
275
275
275
275
275
275
275
275
275
275
275
275
275
275
275
275
275
275
275
275
275
275
275
275
275
275
275
275
275
275
275
275
275
275
275
275
275
275
275
275
275
275
275
275
275
275
275
275
275
275
275
275
275
275
275
275
275
275
275
275
275
275
275
275
275
275
275
275
275
275
275
275
275
275
275
275
275
275
275
275
275
275
275
275
275
275
275
275
275
275
275
275
275
275
275
275
275
275
275
275
275
275
275
275
275
275
275
275
275
275
275
275
275
275
275
275
275
275
275
275
275
275
275
275
275
275
275
275
275
275
275
275
275
275
275
275
275
275
275
275
275
275
275
275
275
275
275
275
275
275
275
275
275
275
275
275
275
275
275
275
275
275
275
275
275
275
275
275
275
275
275
275
275
275
275
275
275
275
275
275
275
275
275
275
275
275
275
275
275
275
275
275
275
275
275
275
275
275
275
275
275
275
275
275
275
275
275
275
275
275
275
275
275
275
275
275
275
275
275
275
275
275
275
275
275
275
275
275
275
275
275
275
275
275
275
275
275
275
275
275
275
275
275
275
275
275
275
275
275
275
275
275
275
275
275
275
275
275
275
275
275
275
275
275
275
275
275
275
275
275
275
275
275
275
275
275
275
275
275
275
275
275
275
275
275
275
275
275
275
275
275
275
275
275
272.083
275
275
275
275
275
275
275
275
275
275
275
275
275
275
275
275
275
275
275
275
275
275
275
274.213
275
275
275
275
275
275
275
275
275
275
275
275
275
275
275
275
275
275
275
275
275
275
275
274.276
275
275
275
275
275
275
275
275
275
275
275
275
275
275
275
275
275
275
275
275
275
275
274.994
274.661
275
275
275
275
275
275
275
275
275
275
275
275
275
275
275
275
275
275
275
275
275
275
274.991
274.67
275
275
275
275
275
275
275
275
275
275
275
275
275
275
275
275
275
275
275
275
275
274.999
274.669
274.845
275
275
275
275
275
275
275
275
275
275
275
275
275
275
275
275
275
275
275
275
275
274.998
274.67
274.846
275
275
275
275
275
275
275
275
275
275
275
275
275
275
275
275
275
275
275
275
275
274.997
274.672
274.847
275
275
275
275
275
275
275
275
275
275
275
275
275
275
275
275
275
275
275
275
275
274.996
274.673
274.848
275
275
275
275
275
275
275
275
275
275
275
275
275
275
275
275
275
275
275
275
275
274.995
274.674
274.849
275
275
275
275
275
275
275
275
275
275
275
275
275
275
275
275
275
275
275
275
275
274.994
274.676
274.849
275
275
275
275
275
275
275
275
275
275
275
275
275
275
275
275
275
275
275
275
275
274.993
274.677
274.85
275
275
275
275
275
275
275
275
275
275
275
275
275
275
275
275
275
275
275
275
275
274.992
274.678
274.85
275
275
275
275
275
275
275
275
275
275
275
275
275
275
275
275
275
275
275
275
275
274.991
274.679
274.851
275
275
275
275
275
275
275
275
275
275
275
275
275
275
275
275
275
275
275
275
275
274.99
274.68
274.852
275
275
275
275
275
275
275
275
275
275
275
275
275
275
275
275
275
275
275
275
275
274.988
274.682
274.852
275
275
275
275
275
275
275
275
275
275
275
275
275
275
275
275
275
275
275
275
275
274.987
274.683
274.853
275
275
275
275
275
275
275
275
275
275
275
275
275
275
275
275
275
275
275
275
275
274.986
274.684
274.853
275
275
275
275
275
275
275
275
275
275
275
275
275
275
275
275
275
275
275
275
275
274.985
274.685
274.854
275
275
275
275
275
275
275
275
275
275
275
275
275
275
275
275
275
275
275
275
275
274.984
274.687
274.855
275
275
275
275
275
275
275
275
275
275
275
275
275
275
275
275
275
275
275
275
275
274.983
274.688
274.855
275
275
275
275
275
275
275
275
275
275
275
275
275
275
275
275
275
275
275
275
274.999
274.982
274.689
274.856
275
275
275
275
275
275
275
275
275
275
275
275
275
275
275
275
275
275
275
275
274.999
274.981
274.69
274.856
275
275
275
275
275
275
275
275
275
275
275
275
275
275
275
275
275
275
275
275
275
275
275
275
275
275
275
272.089
271.977
275
275
275
275
275
275
275
275
275
275
275
275
275
275
275
275
275
275
274.996
274.999
274.991
274.999
275
275
275
275
275
275
275
274.984
274.986
274.893
274.946
275
275
275
275
275
275
275
274.99
274.987
274.969
274.921
275
275
275
274.994
274.992
275
275
275
274.998
274.997
275
272.853
272.101
273.576
275
275
274.999
275
275
275
274.998
275
275
274.999
275
275
275
275
274.987
274.995
275
274.984
274.949
274.997
274.986
274.949
274.991
275
274.995
274.985
275
274.996
275
274.987
274.984
275
274.94
274.959
274.947
274.939
274.919
274.89
275
274.982
274.986
274.985
274.982
275
274.956
274.972
274.96
274.954
274.992
274.972
275
274.993
274.998
274.986
274.993
275
274.984
274.989
274.973
274.983
274.997
274.994
274.998
274.999
275
274.993
274.989
274.99
274.993
274.999
274.998
275
275
275
275
275
275
275
275
275
274.996
274.994
274.848
274.772
275
275
275
275
275
275
275
275
274.994
274.991
275
272.287
272.721
274.092
274.332
272.743
273.216
274.757
274.621
275
274.999
274.999
274.36
274.503
274.999
275
275
275
275
275
275
275
275
275
275
275
275
275
275
274.994
274.996
274.924
274.927
274.952
274.947
274.992
274.624
274.995
274.908
274.857
274.866
274.912
274.998
274.946
275
274.842
274.981
274.812
274.999
274.985
275
275
274.999
274.961
275
275
274.964
274.962
274.994
274.993
274.967
274.969
274.986
275
275
275
275
274.986
274.998
275
275
275
275
274.997
274.949
274.95
274.939
274.939
274.853
274.858
274.98
275
275
275
275
274.98
274.984
275
275
275
275
274.984
272.294
274.964
272.678
271.96
273.317
272.727
274.966
274.942
271.965
274.945
274.986
274.984
274.989
275
275
275
275
274.99
273.725
274.04
274.978
273.79
273.358
274.158
273.838
274.979
273.264
273.677
274.996
274.778
274.857
274.641
274.762
274.996
274.587
274.5
274.554
272.509
274.519
274.479
272.733
274.909
274.913
275
275
275
275
275
274.999
274.998
273.385
274.993
274.997
275
274.997
274.996
275
272.392
272.485
271.731
274.497
274.499
272.575
272.732
274.884
274.908
270.575
275
275
275
275
275
275
274.998
275
275
274.991
274.988
274.998
274.984
275
275
275
275
274.985
274.908
274.938
274.962
274.925
274.305
274.178
274.998
274.917
274.95
274.977
274.978
272.777
275
275
275
274.999
274.993
274.989
275
275
275
275
275
275
274.99
275
275
275
275
274.991
274.975
274.587
274.827
274.408
274.452
274.954
274.85
274.875
274.989
274.957
274.976
274.99
274.999
274.999
274.999
274.999
274.986
275
275
274.985
274.944
274.278
274.126
274.943
274.342
274.395
274.098
274.134
274.938
274.893
274.871
274.981
274.999
274.998
274.998
274.999
274.983
274.985
274.998
274.999
274.998
274.998
274.983
274.989
274.859
274.888
274.818
274.801
274.978
274.997
275
275
275
275
274.997
274.986
274.411
274.195
274.627
274.562
274.987
273.265
273.371
274.991
274.695
274.646
273.136
273.233
274.46
274.338
275
275
275
274.169
274.82
274.248
274.312
274.291
274.81
275
275
275
274.999
275
272.388
272.511
272.41
272.396
274.209
272.721
272.627
272.916
272.748
274.24
272.861
272.953
274.706
274.683
274.431
273.169
273.003
272.748
272.833
274.999
275
275
275
275
274.999
274.991
274.997
274.911
274.936
274.96
274.928
274.655
274.902
274.881
274.924
274.909
274.649
274.832
274.812
274.874
274.844
274.89
274.503
274.578
274.365
274.465
274.883
274.109
274.142
274.91
274.995
274.99
274.999
274.996
274.928
274.96
274.95
274.987
274.965
274.997
275
274.999
274.995
274.992
274.998
274.994
274.999
274.995
274.999
275
274.996
274.998
275
274.999
274.998
274.51
274.552
274.972
274.161
273.977
274.625
274.2
273.705
273.531
273.919
273.779
274.956
274.468
274.499
274.821
274.778
274.945
274.859
274.726
274.677
274.77
274.739
274.99
274.881
274.896
274.959
274.975
274.999
274.999
274.988
274.986
274.999
274.999
274.32
274.304
274.946
273.264
273.262
272.557
273.177
273.199
273.435
273.247
273.202
274.262
274.324
274.942
273.25
273.067
273.489
273.306
272.721
272.53
272.996
272.806
274.938
274.164
274.238
274.875
274.867
274.999
274.999
274.98
274.982
274.999
274.999
274.998
274.998
274.985
274.983
274.998
274.998
272.254
272.347
274.475
274.567
274.342
274.441
272.159
273.092
274.678
274.55
274.591
274.658
272.973
273.824
273.912
273.569
273.793
272.009
274.194
274.311
273.953
274.135
271.976
274.833
274.851
274.989
274.755
274.792
274.803
274.754
274.791
274.979
274.79
274.817
273.852
272.196
272.214
272.56
272.238
273.897
272.407
273.41
272.23
273.479
274.704
274.942
274.929
274.958
274.947
274.715
274.534
274.555
273.416
273.526
272.899
273.097
274.544
274.488
275
275
275
275
275
275
275
275
275
275
275
275
275
275
275
275
275
274.998
274.991
274.977
274.975
274.897
274.943
275
275
274.989
274.859
274.849
274.922
274.895
274.91
274.994
275
275
275
274.978
274.985
274.999
275
274.999
275
274.996
274.945
274.975
274.952
274.973
274.97
274.989
274.993
274.993
274.985
274.999
274.999
274.996
274.986
275
275
274.402
274.332
274.955
274.915
274.871
274.867
274.887
274.982
274.993
274.993
274.985
274.993
274.993
274.993
274.993
274.982
274.936
274.508
274.436
274.986
274.998
274.998
274.998
275
275
272.38
272.395
274.749
274.71
274.992
272.357
272.368
274.953
274.961
274.999
275
275
272.289
272.333
272.372
272.69
272.765
272.238
272.287
272.582
272.519
273.15
274.509
274.485
274.642
273.306
273.198
274.45
275
275
275
274.999
274.999
275
275
274.998
274.999
275
275
275
274.986
274.985
274.993
274.997
274.993
274.992
274.918
274.929
274.882
274.889
274.956
274.94
274.852
274.868
274.68
274.683
274.766
274.755
274.624
274.691
274.699
274.994
274.916
274.932
274.932
274.875
274.956
274.946
274.993
274.989
274.973
274.712
274.676
274.922
274.854
274.757
275
275
274.998
274.998
274.994
274.996
274.972
274.996
274.998
274.901
274.928
274.996
274.63
274.587
274.964
274.971
275
275
274.999
274.996
275
275
274.953
274.323
274.317
274.853
274.861
274.993
274.993
274.984
274.984
274.993
274.993
272.3
272.619
273.352
273.416
272.682
272.753
271.966
274.567
274.523
274.939
271.77
271.707
272.124
272.138
271.98
272.574
272.628
271.676
271.73
274.999
274.999
274.987
274.991
274.999
274.999
273.583
274.632
274.657
274.578
274.605
273.509
274.814
274.951
274.961
274.959
274.955
274.826
274.667
274.796
274.781
274.55
274.517
274.592
272.621
272.664
272.695
272.333
274.564
273.521
273.36
273.669
273.562
274.457
274.063
274.075
274.599
274.663
274.925
275
275
275
272.396
272.421
273.416
273.416
271.635
272.663
272.492
272.496
272.425
272.464
272.709
270.623
274.506
274.542
275
275
275
274.98
274.979
274.991
274.984
274.991
274.995
274.989
274.99
274.903
274.941
274.812
274.823
274.824
274.812
274.923
274.842
274.838
274.277
274.069
274.067
274.104
274.097
274.241
274.992
274.997
274.997
274.996
274.996
274.991
274.954
274.986
274.968
274.962
274.986
274.993
274.993
274.87
274.873
274.908
274.878
274.993
274.993
274.981
274.993
274.993
274.985
274.983
274.993
274.993
274.819
274.857
274.841
274.87
274.865
274.816
272.414
272.442
272.355
272.352
273.169
272.692
272.662
274.114
274.112
274.423
274.177
274.229
274.083
274.123
274.38
275
275
275
275
275
275
275
275
275
275
274.231
274.55
274.531
274.602
274.575
274.253
274.369
274.461
274.422
274.516
274.496
274.337
275
275
275
274.998
274.997
275
274.999
272.308
272.629
272.398
272.391
272.407
272.402
273.111
273.161
272.667
272.193
272.195
272.8
272.251
272.218
272.252
273.058
272.394
272.264
274.527
274.562
274.726
274.431
274.441
274.405
274.412
274.661
274.476
274.49
272.764
272.339
272.382
272.301
272.304
272.789
275
275
274.999
274.998
274.999
274.999
274.978
274.992
274.984
274.982
274.986
274.987
274.982
274.984
274.914
274.932
274.836
274.84
274.827
274.832
274.958
274.893
274.895
274.837
274.842
274.933
274.839
274.712
274.689
274.636
274.745
274.733
274.824
274.71
274.707
274.746
274.725
274.818
274.866
274.765
274.777
274.721
274.744
274.856
274.701
274.398
274.645
274.626
274.084
274.102
274.901
274.963
274.96
274.893
274.943
274.979
274.97
274.771
274.74
274.888
274.895
274.954
274.838
274.805
274.983
274.988
274.997
274.991
274.977
274.956
274.976
274.997
274.999
274.999
274.997
274.998
274.994
274.991
274.994
274.999
274.998
274.997
274.999
274.998
274.999
274.996
274.996
274.995
274.997
274.113
274.041
274.506
273.971
274.034
273.84
274.234
273.64
273.582
273.869
273.826
274.799
274.587
274.636
274.491
274.537
274.786
274.935
274.854
274.877
274.664
274.799
274.911
274.547
274.471
274.713
274.185
274.233
274.102
274.143
274.699
274.762
274.413
274.449
274.287
274.347
274.751
274.962
274.973
273.287
272.599
272.694
272.405
272.497
273.277
272.718
272.746
272.743
272.963
273.235
271.906
271.996
272.079
271.918
273.313
273.232
272.242
272.32
272.092
272.172
273.218
273.202
273.147
273.444
273.37
272.645
272.576
272.935
272.883
274.861
274.864
274.984
274.993
274.993
274.993
274.993
274.983
272.293
273.141
273.265
272.522
272.017
272.855
272.993
271.915
271.839
273.851
272.748
272.737
273.68
272.566
272.334
272.719
272.673
273.75
272.091
271.999
272.381
272.503
271.999
271.894
272.148
274.841
274.914
274.908
274.922
274.918
274.846
274.767
274.785
274.785
274.753
274.752
274.766
274.789
274.881
274.874
274.9
274.89
274.8
272.19
272.627
272.673
272.561
272.593
272.199
272.445
272.947
273.041
272.743
272.84
272.331
272.386
272.101
272.113
272.173
272.132
272.24
272.451
272.52
272.193
272.324
272.225
274.819
274.809
274.691
274.531
274.578
272.496
272.581
272.976
272.462
272.355
272.626
272.568
273.045
272.359
272.361
274.077
274.083
275
275
275
275
275
275
275
275
275
275
275
275
275
275
275
275
275
275
275
275
275
275
275
275
275
275
275
275
275
275
275
275
275
275
275
275
275
275
275
275
275
275
275
275
275
275
275
275
275
275
275
275
275
275
275
275
275
275
275
275
275
275
275
275
275
275
275
275
275
275
275
275
275
275
275
275
275
275
275
275
275
275
275
275
275
275
275
275
275
275
275
275
275
275
275
275
275
275
275
275
275
275
275
275
275
275
275
275
275
275
275
275
275
275
275
275
275
275
275
275
275
275
275
275
275
275
275
275
275
275
275
275
275
275
275
275
274.998
274.998
272.408
274.837
274.851
275
275
275
275
275
275
275
275
275
275
275
275
275
273.635
273.605
274.261
275
275
275
275
275
275
275
275
275
275
275
274.996
274.304
273.644
274.656
275
275
275
275
275
275
275
275
275
275
275
275
275
275
275
275
275
275
275
275
275
275
275
275
275
275
275
275
275
275
275
275
275
275
275
275
275
275
275
275
275
275
275
275
275
275
275
274.998
274.999
275
271.634
273.225
273.245
273.945
273.948
270.651
275
275
275
275
275
275
275
275
275
275
275
275
275
275
275
275
275
275
275
275
275
275
275
275
275
275
275
275
275
275
275
275
275
275
275
275
275
275
275
275
275
275
275
275
275
275
275
275
275
275
275
275
275
275
275
275
274.997
274.999
274.999
275
275
274.999
274.997
274.996
274.998
275
275
275
275
275
275
275
275
275
275
275
275
275
275
275
275
275
275
275
275
275
274.984
274.996
274.996
274.997
274.996
274.986
275
275
275
275
275
275
275
275
275
275
275
275
275
275
275
275
275
275
275
275
275
274.989
275
275
274.997
274.997
274.988
274.966
274.907
274.915
275
275
275
275
275
275
275
275
275
274.993
274.952
274.962
274.977
274.979
274.993
275
275
275
275
275
275
275
275
275
274.998
274.993
274.994
274.989
274.99
274.997
274.999
274.998
275
272.794
274.978
274.978
274.506
274.521
272.153
274.994
274.993
273.436
275
274.999
275
275
274.999
275
275
275
275
275
275
275
275
275
275
275
274.999
275
275
275
275
275
275
275
274.999
274.998
274.998
275
275
275
275
275
275
275
275
275
275
275
275
274.988
274.997
274.997
274.999
274.998
274.994
275
275
275
274.982
274.956
274.963
274.879
274.882
274.95
274.967
274.97
274.987
275
275
275
274.995
274.997
274.998
274.999
275
275
274.998
274.998
274.996
275
275
275
274.986
274.997
274.997
274.996
274.996
274.985
275
275
275
274.942
274.858
274.855
274.897
274.894
274.957
274.946
274.873
274.876
274.852
274.851
274.938
275
275
275
274.995
274.995
274.985
275
275
275
274.959
274.766
274.726
274.892
274.885
274.97
274.962
274.904
274.901
274.713
274.666
274.951
274.991
274.973
274.975
274.923
274.93
274.974
275
275
275
274.994
274.999
274.999
274.999
274.999
274.997
274.986
274.995
274.995
274.999
274.999
274.991
275
275
275
274.985
274.941
274.938
274.959
274.956
274.988
274.975
274.904
274.898
274.934
274.93
274.982
274.997
274.987
274.988
274.964
274.971
274.995
274.998
274.999
274.999
275
275
274.998
275
275
275
274.994
274.787
274.76
274.745
274.777
274.994
274.99
274.963
274.961
274.999
274.962
274.963
275
275
275
275
275
275
275
275
275
275
275
275
275
275
275
275
275
275
275
275
275
274.995
275
275
275
275
274.995
274.839
274.734
274.75
274.629
274.654
274.786
275
275
275
275
275
275
274.999
275
275
275
275
275
275
275
275
275
275
275
274.993
275
275
275
275
274.992
275
275
275
274.137
273.673
273.625
273.917
273.872
274.302
274.742
274.584
274.605
275
275
275
274.999
275
275
275
275
274.999
274.386
274.004
273.962
274.188
274.159
274.486
274.999
275
275
275
275
274.999
275
275
275
275
275
275
275
275
275
275
275
275
275
275
275
275
275
275
275
275
275
275
275
275
275
275
275
275
275
275
275
275
275
274.936
274.949
274.992
274.995
274.986
274.987
274.903
274.833
274.842
274.765
274.777
274.865
274.889
274.966
274.963
274.971
274.969
274.895
274.998
274.991
274.991
274.996
274.998
275
274.999
274.987
274.995
274.989
274.996
274.995
275
275
274.999
275
275
275
274.999
274.999
275
275
275
275
274.908
274.912
274.966
274.96
274.899
274.903
274.985
274.987
274.995
274.992
274.981
274.983
274.994
274.994
274.986
275
275
275
275
275
275
275
275
275
275
275
275
274.986
274.994
274.994
274.999
274.999
274.998
275
275
275
275
275
275
275
275
275
275
275
275
274.997
274.999
274.999
274.876
274.874
274.948
274.951
274.88
274.878
274.858
274.86
274.94
274.938
274.854
274.856
274.993
274.993
274.98
275
274.999
275
274.999
274.999
275
275
275
275
275
275
275
274.98
274.993
274.993
275
274.999
274.999
274.999
274.999
275
275
274.999
274.999
274.999
274.999
275
274.861
274.779
274.961
273.265
273.881
273.937
273.469
273.524
272.783
274.968
274.877
274.869
274.948
274.645
274.583
274.958
274.961
274.987
274.983
274.95
274.954
274.996
274.996
274.988
275
275
275
275
275
275
275
275
275
275
275
275
274.99
274.997
274.997
273.768
273.205
273.162
273.567
273.5
273.994
274.915
274.91
274.976
273.731
274.262
274.301
273.982
274.027
273.4
274.021
274.721
274.74
274.68
274.701
273.972
274.98
274.925
274.92
273.307
272.643
272.615
273.112
273.043
273.62
274.984
274.986
274.996
274.79
274.874
274.866
274.92
274.914
274.848
274.856
274.846
274.744
274.995
274.981
274.983
274.52
273.807
273.703
273.932
273.844
274.539
274.535
274.245
274.216
274.905
274.68
274.717
274.85
274.858
274.918
275
275
275
275
275
275
274.999
275
275
275
275
274.998
274.729
274.72
273.326
274.993
274.956
274.957
274.955
274.956
274.994
274.997
275
275
275
275
274.997
275
275
275
272.534
272.424
271.643
274.491
273.969
273.82
273.996
273.98
274.493
274.902
274.611
274.574
274.71
274.768
274.909
270.586
272.805
273.274
275
275
275
275
275
275
275
275
275
275
275
275
275
275
275
275
275
275
274.999
274.999
274.997
275
275
275
275
275
275
274.998
274.995
274.994
274.996
274.996
274.984
275
274.999
274.999
274.999
274.999
275
275
274.999
274.999
274.999
274.999
275
274.985
274.996
274.996
274.898
274.902
274.964
274.992
274.993
274.998
274.943
274.976
274.974
274.979
274.977
274.946
274.977
274.829
274.75
274.832
274.831
274.978
272.76
274.286
274.284
275
275
275
275
275
275
275
275
275
274.999
274.998
274.999
275
275
275
275
275
275
275
275
275
275
275
275
275
275
275
275
275
275
274.998
274.997
274.989
275
274.999
274.999
274.999
274.999
275
275
275
275
274.999
275
275
274.993
274.998
274.998
274.935
274.946
274.979
274.66
274.862
274.828
274.918
274.898
274.77
274.422
274.733
274.727
274.745
274.739
274.437
274.952
274.885
274.889
274.862
274.934
274.928
274.942
274.938
274.869
274.988
274.973
274.975
274.996
274.997
274.993
274.999
274.999
274.999
274.999
274.997
274.997
274.997
274.997
274.999
275
274.999
274.999
274.999
274.999
275
274.985
274.996
274.996
274.866
274.862
274.943
274.231
274.68
274.692
274.653
274.666
274.175
274.867
274.87
274.944
274.361
274.71
274.704
274.722
274.716
274.381
274.09
274.641
274.645
274.645
274.64
274.107
274.938
274.85
274.85
274.999
274.997
274.997
274.997
274.997
274.998
274.997
274.998
274.999
274.984
274.995
274.994
274.998
274.997
274.997
274.997
274.997
274.998
274.998
274.997
274.997
274.997
274.997
274.998
274.969
274.971
274.99
274.869
274.932
274.927
274.942
274.937
274.879
274.976
274.935
274.939
274.999
274.999
274.996
275
275
275
275
275
275
275
275
275
275
275
275
274.997
274.999
274.999
274.948
274.945
274.985
274.322
274.788
274.802
274.757
274.773
274.291
274.606
274.836
274.846
274.815
274.826
274.585
274.988
274.954
274.951
273.298
272.815
272.783
272.89
272.848
273.332
274.966
274.965
274.991
274.68
274.871
274.878
274.855
274.863
274.663
272.753
272.722
273.201
275
275
275
274.705
274.719
274.829
274.799
274.675
274.691
275
275
275
275
275
275
275
275
275
273.753
273.714
274.174
272.696
273.2
273.236
272.838
273.365
273.426
273.273
273.314
272.783
274.272
273.83
273.79
274.074
274.041
274.41
273.132
273.597
273.636
273.49
273.549
273.079
275
275
275
275
275
275
275
274.999
274.999
275
275
275
274.994
274.994
274.997
274.895
274.811
274.825
274.786
274.797
274.887
274.919
274.854
274.862
274.837
274.846
274.914
274.813
274.823
274.897
274.534
274.716
274.7
274.743
274.731
274.558
274.681
274.663
274.429
274.874
274.789
274.801
274.994
274.984
274.986
274.977
274.981
274.992
274.999
274.996
274.997
274.989
274.993
274.998
274.957
274.9
274.905
274.979
274.943
274.967
274.912
274.924
274.971
274.999
274.998
274.993
275
274.999
275
274.998
274.999
275
275
274.999
274.999
275
275
275
274.999
274.999
275
274.999
274.999
274.998
274.521
274.782
274.775
274.805
274.792
274.534
274.969
274.918
274.925
274.892
274.896
274.958
274.479
274.757
274.751
274.768
274.763
274.489
274.977
274.979
274.991
274.886
274.949
274.946
274.956
274.952
274.891
274.999
274.998
274.998
274.998
274.998
274.999
274.987
274.994
274.995
274.993
274.993
274.986
274.999
274.997
274.997
274.998
274.997
274.999
274.322
274.711
274.714
274.701
274.707
274.317
274.947
274.872
274.869
274.287
274.686
274.679
274.698
274.692
274.307
274.941
274.862
274.865
274.851
274.853
274.938
274.192
274.659
274.652
274.672
274.666
274.215
274.999
274.997
274.997
274.997
274.997
274.999
274.98
274.993
274.993
274.994
274.994
274.981
274.999
274.997
274.997
274.997
274.997
274.999
274.998
274.997
274.997
274.997
274.997
274.998
274.998
274.997
274.997
274.997
274.997
274.998
274.507
273.989
273.921
274.091
274.045
274.539
274.373
273.703
273.648
273.844
273.768
274.406
273.741
273.81
273.192
274.696
274.339
274.299
274.614
274.172
274.132
274.257
274.213
274.636
272.863
273.589
273.664
272.801
272.765
273.879
274.241
273.486
273.396
273.6
273.549
274.278
274.006
272.967
272.864
273.266
273.111
274.069
274.988
274.964
274.966
274.942
274.946
274.981
273.297
273.248
273.809
273.946
273.426
273.356
272.745
272.681
273.353
273.553
272.948
272.84
274.938
274.887
274.894
274.871
274.879
274.934
274.955
274.912
274.918
274.9
274.906
274.951
274.727
274.837
274.828
273.468
273.017
272.946
273.103
273.088
273.518
274.533
274.314
274.315
274.261
274.289
274.512
275
275
275
275
275
275
275
275
275
275
275
275
275
275
275
275
275
275
275
275
275
275
275
275
275
275
275
275
275
275
275
275
275
275
275
275
274.999
275
275
274.988
274.997
274.997
274.9
274.95
274.946
274.956
274.953
274.904
274.993
274.98
274.982
275
275
275
274.98
274.992
274.991
274.994
274.993
274.982
275
275
275
275
275
275
275
275
275
274.994
274.995
274.997
274.962
274.984
274.979
274.989
274.987
274.971
274.996
274.998
274.998
274.996
274.996
274.986
275
274.999
274.999
274.999
274.999
275
274.371
274.748
274.758
274.734
274.74
274.347
274.956
274.89
274.887
274.49
274.788
274.796
274.768
274.777
274.466
274.996
274.995
274.986
275
274.999
274.998
275
275
275
274.737
274.896
274.901
274.884
274.89
274.724
274.992
274.97
274.968
274.956
274.982
274.981
274.984
274.983
274.959
273.262
273.737
273.775
273.67
273.703
273.227
274.468
274.131
274.103
275
275
275
275
275
275
275
275
275
275
275
275
275
275
275
275
275
275
274.983
274.984
274.995
274.922
274.962
274.959
274.967
274.965
274.927
275
275
275
274.999
275
274.999
274.907
274.963
274.959
274.973
274.967
274.915
274.995
274.989
274.991
274.999
274.999
274.999
274.998
274.998
274.996
274.885
274.882
274.952
274.317
274.725
274.729
274.717
274.721
274.315
274.551
274.818
274.826
274.804
274.811
274.537
274.987
274.996
274.996
274.997
274.997
274.991
274.167
274.218
273.661
273.448
274.068
274.119
274.892
274.883
274.802
274.923
274.929
274.964
274.838
274.908
274.9
274.298
274.272
274.55
273.474
273.9
273.937
273.816
273.859
273.419
273.634
274.056
274.09
273.982
274.021
273.599
274.621
274.768
274.756
274.791
274.78
274.643
274.922
274.865
274.872
273.372
272.937
272.994
272.972
272.951
273.389
271.635
272.414
272.427
272.546
272.64
270.603
274.555
274.04
273.791
274.271
274.194
274.545
275
275
275
275
275
275
275
275
275
275
275
275
275
275
275
275
275
275
275
275
275
275
275
275
275
275
275
275
275
275
275
275
275
275
275
275
275
275
275
275
275
275
275
275
275
275
275
275
275
275
275
275
275
275
275
275
275
275
275
275
275
275
275
275
275
275
275
275
275
275
275
275
275
275
275
275
275
275
275
275
275
275
275
275
275
275
275
275
275
275
275
275
275
275
275
275
275
275
275
275
275
275
275
275
275
275
275
275
275
275
275
275
275
275
275
275
275
272.19
273.952
273.943
275
275
275
275
275
275
275
275
275
275
274.999
274.999
274.231
274.978
274.978
275
275
275
275
275
275
275
275
275
275
275
275
275
275
275
274.992
274.312
274.308
274.665
275
275
275
275
275
275
275
275
275
275
275
275
275
275
275
275
275
275
275
275
275
275
275
275
275
275
275
275
275
275
275
275
275
275
275
275
275
275
275
275
275
275
275
275
274.99
274.997
274.998
275
275
275
273.258
273.267
272.113
275
275
275
275
275
275
275
275
275
274.999
275
275
274.994
274.998
274.998
274.998
274.997
274.992
275
275
274.999
274.993
274.975
274.974
274.972
274.971
274.992
274.994
274.994
274.999
275
275
275
275
275
275
275
275
275
274.996
274.999
274.999
274.998
274.999
274.994
275
275
275
275
275
275
275
275
275
275
275
275
274.993
274.998
274.998
274.998
274.998
274.991
274.999
275
275
275
275
274.999
274.999
275
275
275
275
275
275
275
275
275
275
275
275
275
275
274.874
274.93
274.925
274.95
274.948
274.906
274.117
274.501
274.524
274.333
274.364
273.882
275
275
275
275
275
275
275
275
275
274.921
274.955
274.953
275
275
275
275
275
275
274.383
274.648
274.663
274.545
274.564
274.228
275
275
275
275
275
275
275
275
275
275
275
275
275
275
275
275
275
275
275
274.999
274.999
274.999
274.999
275
275
275
275
275
275
275
275
275
275
274.999
274.995
274.995
275
275
275
275
275
275
275
275
275
275
275
275
275
275
275
275
275
275
275
275
275
275
275
275
275
275
275
275
275
275
275
275
275
275
275
275
275
275
275
275
275
275
275
275
275
275
275
275
275
275
275
275
275
275
275
275
275
275
275
275
275
275
275
275
275
275
275
275
275
274.998
275
275
275
275
274.998
274.003
273.978
272.294
274.833
274.563
274.576
274.561
274.561
274.833
275
275
275
275
275
275
275
275
275
275
275
275
274.998
274.998
275
273.626
274.89
274.887
274.901
274.895
273.615
274.978
274.978
274.246
275
275
275
275
275
275
275
275
275
275
275
275
275
275
275
275
275
275
275
275
275
275
275
275
275
275
275
275
275
275
275
275
275
275
275
275
275
275
275
274.998
275
275
275
275
274.999
275
275
275
272.437
272.446
271.65
270.861
272.58
272.53
275
275
275
275
275
275
275
275
275
275
275
275
275
275
275
275
275
275
275
275
275
275
275
275
275
275
275
275
275
275
275
275
275
275
275
275
275
275
275
275
275
275
275
275
275
275
275
275
275
275
275
275
275
275
275
275
275
275
275
275
275
275
275
275
275
275
274.997
274.997
274.99
275
274.999
274.999
274.999
274.999
275
275
275
275
274.956
274.98
274.979
274.983
274.982
274.959
274.279
274.275
272.81
274.978
274.833
274.833
274.511
274.02
274.01
274.034
274.028
274.517
272.126
273.273
273.275
274.958
274.959
274.994
273.481
274.744
274.737
275
275
275
275
275
274.999
275
275
275
275
275
275
274.999
275
275
275
275
275
275
275
275
275
275
275
275
275
274.999
275
275
275
275
275
275
275
275
275
275
275
275
275
275
275
275
275
275
274.753
274.899
274.904
274.889
274.894
274.74
274.699
274.877
274.883
274.864
274.871
274.683
275
275
275
274.998
274.998
274.994
274.992
274.997
274.997
275
275
275
275
275
275
274.967
274.986
274.984
274.988
274.987
274.969
275
275
275
275
275
275
274.998
275
275
274.976
274.976
274.994
274.78
274.914
274.917
274.906
274.91
274.77
274.741
274.89
274.891
274.916
274.896
274.749
274.995
274.995
274.999
274.962
274.984
274.985
274.985
274.985
274.962
275
275
275
275
275
275
274.999
274.999
274.995
274.995
274.999
274.999
275
275
275
275
275
275
275
275
275
275
275
275
274.998
274.998
274.993
274.992
274.998
274.998
275
275
274.999
274.999
275
275
275
275
275
275
275
275
275
275
275
275
275
275
275
275
275
275
275
275
275
275
275
275
275
275
275
275
275
275
275
275
275
275
275
275
275
275
275
275
275
275
275
275
275
275
275
275
275
275
274.941
274.972
274.97
274.977
274.975
274.945
274.938
274.934
274.882
274.901
274.945
274.941
274.997
274.999
274.999
274.999
274.999
274.998
274.99
274.996
274.995
274.998
274.997
274.993
274.908
274.913
274.791
274.624
274.849
274.857
274.833
274.841
274.603
274.448
274.475
274.07
273.925
274.392
274.42
273.771
274.178
274.206