/*--------------------------------*- C++ -*----------------------------------*\
| =========                 |                                                 |
| \\      /  F ield         | OpenFOAM: The Open Source CFD Toolbox           |
|  \\    /   O peration     | Version:  5.x                                   |
|   \\  /    A nd           | Web:      www.OpenFOAM.org                      |
|    \\/     M anipulation  |                                                 |
\*---------------------------------------------------------------------------*/
FoamFile
{
    version     2.0;
    format      ascii;
    class       volVectorField;
    location    "300";
    object      U;
}
// * * * * * * * * * * * * * * * * * * * * * * * * * * * * * * * * * * * * * //

dimensions      [0 1 -1 0 0 0 0];

internalField   nonuniform List<vector> 
6584
(
(1.00008 -0.000201148 4.76114e-27)
(1.00005 -0.000441951 2.31168e-25)
(1.00007 -0.000600374 2.08981e-30)
(1.00007 -0.00081779 -4.14968e-25)
(1.00008 -0.00104671 0)
(1.00008 -0.00129895 0)
(1.00007 -0.00154852 0)
(1.00003 -0.001716 4.31614e-25)
(0.999959 -0.00173602 4.40379e-25)
(0.999841 -0.00145064 0)
(0.999721 -0.000657284 2.02128e-25)
(0.999638 0.000585587 -1.49147e-25)
(0.999662 0.00196994 -1.07223e-26)
(0.999786 0.00304524 2.71126e-26)
(0.999932 0.00353732 8.70867e-27)
(1.00008 0.00345934 8.65004e-25)
(1.00015 0.00305645 7.73281e-25)
(1.00018 0.00253846 6.25465e-26)
(1.00017 0.00200957 5.40731e-25)
(1.00015 0.00153835 3.901e-25)
(1.00012 0.0011517 0)
(1.0001 0.000815371 0)
(1.00008 0.000580698 5.88886e-25)
(1.0001 0.000258548 3.61555e-25)
(1.00031 -0.000422575 -2.25696e-25)
(1.00027 -0.000890013 -8.80417e-25)
(1.00032 -0.0011849 -1.18152e-24)
(1.00035 -0.00162389 0)
(1.0004 -0.00208532 -1.59127e-25)
(1.00041 -0.00260792 -1.32498e-24)
(1.00036 -0.00315007 -8.09546e-25)
(1.00015 -0.0035412 1.37018e-24)
(0.999851 -0.00364863 -5.45442e-26)
(0.99907 -0.00312438 -3.26584e-25)
(0.998135 -0.00150727 -1.14862e-28)
(0.997544 0.0011138 0)
(0.997701 0.00407207 4.72958e-25)
(0.998567 0.00633466 3.07337e-25)
(0.999695 0.00734631 -1.92269e-24)
(1.00046 0.00712712 -5.10033e-25)
(1.00076 0.00620654 -1.1906e-24)
(1.00087 0.00509378 -1.55157e-24)
(1.00081 0.00398978 -4.0055e-24)
(1.0007 0.00303113 -3.30129e-24)
(1.00057 0.00226363 -2.27819e-25)
(1.00048 0.00159291 -9.62227e-26)
(1.00038 0.00115793 0)
(1.00041 0.000537714 3.15406e-25)
(1.00069 -0.000648838 -5.70126e-25)
(1.00065 -0.00131708 0)
(1.00078 -0.00172505 -2.31721e-25)
(1.00087 -0.00238566 -1.54001e-24)
(1.001 -0.00309134 -2.33872e-24)
(1.00105 -0.00393219 0)
(1.00098 -0.00489032 0)
(1.00051 -0.00563324 -3.59048e-25)
(0.999617 -0.00641539 -1.16155e-25)
(0.998265 -0.00451295 1.02128e-25)
(0.996714 -0.00252955 -1.80346e-25)
(0.995531 0.000909609 -2.55647e-25)
(0.995693 0.00507559 0)
(0.997252 0.00835214 0)
(0.999235 0.00987449 3.49202e-26)
(1.00117 0.0114964 -2.16802e-24)
(1.00202 0.00956512 0)
(1.00223 0.00765935 -6.90833e-25)
(1.00204 0.00586878 0)
(1.00173 0.00438871 -5.20936e-25)
(1.0014 0.00325277 -1.41969e-24)
(1.00116 0.00226683 -8.51327e-25)
(1.00092 0.00167547 0)
(1.00089 0.000807878 2.45413e-25)
(1.00115 -0.000859678 -3.49544e-25)
(1.00117 -0.00168889 0)
(1.0014 -0.00218632 -3.11326e-25)
(1.0016 -0.00305533 0)
(1.00188 -0.00400838 0)
(1.00208 -0.00522854 0)
(1.00206 -0.00675799 -5.85966e-25)
(1.00143 -0.00824876 4.32806e-24)
(0.999737 -0.0100959 -2.84321e-25)
(0.99713 -0.00815239 3.20182e-25)
(0.993759 -0.00582512 -1.90219e-25)
(0.990421 -0.000292623 4.78844e-26)
(0.990187 0.00766359 4.81604e-26)
(0.993885 0.0138579 0)
(0.998492 0.0157549 -3.22339e-24)
(1.00176 0.0144446 0)
(1.00445 0.013129 0)
(1.00442 0.0101918 5.07641e-24)
(1.0039 0.00753499 3.3332e-24)
(1.00318 0.00550419 -1.11845e-24)
(1.00253 0.00403165 -7.823e-25)
(1.00204 0.00277549 0)
(1.00162 0.00207522 3.55078e-25)
(1.00147 0.00103495 2.91243e-25)
(1.00166 -0.00103484 -1.35524e-25)
(1.00178 -0.00197037 -8.83965e-27)
(1.00214 -0.0025227 -4.20262e-26)
(1.00254 -0.00356761 -6.41561e-26)
(1.00306 -0.00473366 1.29389e-25)
(1.00362 -0.00635893 3.39139e-24)
(1.00388 -0.00858293 -5.48829e-24)
(1.00366 -0.0110551 5.04565e-24)
(1.00027 -0.0119921 2.57034e-25)
(0.996841 -0.0133739 1.47804e-24)
(0.990231 -0.0119287 -2.15617e-25)
(0.981211 -0.00372366 2.67053e-25)
(0.979505 0.0116444 -2.71166e-26)
(0.988869 0.0229861 4.59909e-24)
(0.998871 0.0243831 0)
(1.00452 0.0205948 3.16003e-24)
(1.00634 0.0155386 -7.08655e-25)
(1.00751 0.0118791 -4.12642e-24)
(1.00639 0.00873183 -2.3519e-24)
(1.00501 0.00618649 9.23782e-25)
(1.00392 0.00449241 -5.6947e-26)
(1.00308 0.00304496 -3.30947e-26)
(1.00242 0.0023019 4.05008e-25)
(1.00208 0.00118729 -1.54448e-25)
(1.00219 -0.00115438 6.72544e-26)
(1.00245 -0.00212593 -1.78473e-25)
(1.00297 -0.00268065 -9.65711e-27)
(1.00363 -0.00383095 0)
(1.0045 -0.00509402 -7.2255e-25)
(1.00562 -0.00705652 -3.26539e-25)
(1.00647 -0.00947504 -2.17842e-24)
(1.00535 -0.0121036 -5.25896e-25)
(1.00336 -0.0160404 2.16073e-24)
(0.999541 -0.0211522 8.38637e-24)
(0.987026 -0.0213899 1.78458e-24)
(0.969733 -0.0131829 2.69302e-28)
(0.961954 0.0149105 -7.49508e-26)
(0.982228 0.0360857 6.9444e-25)
(1.00303 0.0373661 -7.13026e-24)
(1.0106 0.0276921 0)
(1.01154 0.019522 4.13171e-28)
(1.01155 0.0127679 8.21237e-25)
(1.00938 0.00920751 2.16085e-25)
(1.00712 0.00627371 1.02783e-24)
(1.00546 0.00452424 -3.86345e-25)
(1.00417 0.00300693 0)
(1.00325 0.00230664 -2.09113e-25)
(1.00267 0.00123589 -2.95828e-25)
(1.0027 -0.00120206 7.1105e-28)
(1.00312 -0.00212914 -8.41714e-26)
(1.00381 -0.00261955 1.05662e-25)
(1.00478 -0.00377416 1.22688e-26)
(1.00605 -0.00496321 1.84122e-26)
(1.00789 -0.00709316 -1.14434e-24)
(1.00967 -0.00948119 -1.58887e-24)
(1.00922 -0.0132034 -7.00043e-26)
(1.00961 -0.0193803 -3.2601e-25)
(1.00784 -0.0292477 1.25721e-24)
(0.992949 -0.0394233 0)
(0.954494 -0.041673 1.18107e-24)
(0.910238 0.0215928 4.35992e-26)
(0.979559 0.0739999 3.18054e-24)
(1.01241 0.0521353 -1.94872e-26)
(1.02187 0.0333157 0)
(1.01918 0.021289 2.152e-24)
(1.01633 0.0120223 4.13237e-25)
(1.01264 0.00857794 3.38427e-25)
(1.00931 0.00558995 -8.96693e-26)
(1.00698 0.0040324 -8.31311e-25)
(1.00521 0.00261304 0)
(1.00402 0.00205621 -1.92045e-25)
(1.00315 0.00115882 -1.83608e-25)
(1.00313 -0.00116958 -8.22613e-26)
(1.00372 -0.00197206 7.29489e-26)
(1.00456 -0.0023275 3.8094e-26)
(1.00584 -0.00336383 2.6901e-26)
(1.00752 -0.00427238 -4.45152e-26)
(1.01007 -0.00623825 5.47096e-25)
(1.01299 -0.00805283 1.38882e-28)
(1.01408 -0.012285 -2.19823e-25)
(1.01813 -0.0191671 2.13053e-28)
(1.02291 -0.0315234 -3.08208e-24)
(1.01837 -0.0542472 -9.18033e-26)
(0.994026 -0.108327 3.44131e-26)
(1.02221 0.130397 5.59303e-25)
(1.04164 0.0631602 -5.55345e-25)
(1.03815 0.0327622 1.17305e-24)
(1.02856 0.0191409 -2.3266e-25)
(1.02104 0.00910205 7.51016e-25)
(1.01565 0.00659503 7.61135e-25)
(1.01126 0.00404803 5.39663e-25)
(1.00829 0.00298184 -2.5948e-25)
(1.00604 0.00185656 0)
(1.00461 0.00154593 0)
(1.00347 0.000947537 -2.25434e-30)
(1.00345 -0.00106035 -1.50927e-26)
(1.00418 -0.00167249 -2.53229e-27)
(1.00514 -0.00183543 -1.14208e-26)
(1.00665 -0.00263617 6.2423e-26)
(1.00865 -0.00308015 7.60705e-26)
(1.01171 -0.00451965 3.9626e-25)
(1.01555 -0.00523398 1.10444e-24)
(1.01857 -0.00891101 0)
(1.02621 -0.0138079 0)
(1.0385 -0.0224172 0)
(1.05279 -0.0427773 -1.08057e-25)
(1.08409 -0.088604 1.39762e-26)
(1.12543 0.108502 0)
(1.07905 0.0465745 0)
(1.05352 0.0217683 0)
(1.03692 0.0120126 2.33969e-25)
(1.02445 0.00417088 0)
(1.01771 0.00335402 -8.22909e-25)
(1.01257 0.00176461 -5.3183e-25)
(1.00913 0.00144755 -4.89386e-26)
(1.00653 0.000795233 0)
(1.00493 0.000810282 1.01027e-26)
(1.00356 0.000611354 1.34066e-26)
(1.00364 -0.000890424 2.88395e-27)
(1.00447 -0.00127518 -4.48572e-27)
(1.00547 -0.0012209 5.12131e-27)
(1.00708 -0.00171379 2.7252e-26)
(1.00921 -0.00161118 -6.96839e-26)
(1.0124 -0.00229903 -5.39727e-27)
(1.0166 -0.00173873 -1.11033e-25)
(1.02105 -0.00385248 -7.01889e-27)
(1.03021 -0.00484592 0)
(1.04544 -0.00572042 -2.77146e-25)
(1.06943 -0.0113253 1.25876e-30)
(1.11768 -0.0200522 -3.53598e-26)
(1.16896 0.02137 -9.00892e-26)
(1.09827 0.00847914 -3.28611e-25)
(1.06017 0.00321245 -2.50719e-24)
(1.04094 0.00139753 0)
(1.0255 -0.00171708 -1.62945e-24)
(1.01827 -0.000604567 0)
(1.01296 -0.000917305 -1.15602e-26)
(1.00933 -0.000373398 0)
(1.00658 -0.000445997 -4.8964e-27)
(1.00492 -7.61406e-05 -5.47897e-28)
(1.00339 0.000179003 -2.80734e-26)
(1.00369 -0.00068551 0)
(1.00456 -0.00084235 -2.49661e-26)
(1.00553 -0.00058846 -2.69563e-26)
(1.00711 -0.000769794 3.78753e-27)
(1.00914 -0.000176087 9.13609e-27)
(1.01207 -0.000119269 8.58252e-26)
(1.01595 0.00146817 3.69448e-25)
(1.02077 0.00125795 1.71591e-25)
(1.02879 0.00404341 0)
(1.04118 0.0101204 1.37237e-24)
(1.06228 0.0193914 4.21163e-25)
(1.09876 0.0434436 -1.70478e-26)
(1.14469 -0.0592443 -4.37831e-26)
(1.09053 -0.0292395 5.39423e-25)
(1.0557 -0.0152784 1.08002e-25)
(1.03926 -0.00932356 1.43737e-24)
(1.02398 -0.00716374 7.13734e-24)
(1.01723 -0.00448961 3.96627e-24)
(1.01232 -0.00353314 -2.67256e-24)
(1.00884 -0.00221856 -1.88291e-24)
(1.00615 -0.00170428 1.1017e-25)
(1.00456 -0.00101361 4.7322e-26)
(1.00296 -0.000307265 -1.11368e-25)
(1.00362 -0.000474565 3.38833e-27)
(1.00448 -0.000437053 1.11197e-26)
(1.00535 -3.76758e-05 1.42415e-26)
(1.00679 3.3588e-05 9.63312e-27)
(1.00856 0.00095481 -4.4782e-34)
(1.01096 0.00155072 1.75714e-25)
(1.01406 0.00365633 5.78551e-25)
(1.01823 0.0049429 1.99114e-25)
(1.02347 0.00982631 0)
(1.02987 0.0189927 -3.81972e-25)
(1.04068 0.035199 -9.14065e-26)
(1.05075 0.0695572 -2.24194e-26)
(1.08593 -0.0982171 -2.07138e-26)
(1.06515 -0.0507029 0)
(1.04371 -0.027464 -2.21092e-24)
(1.03313 -0.0171514 1.79937e-24)
(1.02048 -0.0111289 1.01568e-23)
(1.01494 -0.00760613 6.67255e-24)
(1.01084 -0.00568554 0)
(1.00776 -0.00384127 -1.66259e-24)
(1.00531 -0.00282958 -9.37585e-25)
(1.00387 -0.00190183 7.38208e-26)
(1.00231 -0.000801209 -9.25644e-26)
(1.00347 -0.000282771 0)
(1.00427 -0.000106685 5.31391e-27)
(1.00502 0.000366199 -6.48965e-27)
(1.00624 0.000596844 -1.8077e-26)
(1.0077 0.00164554 0)
(1.00949 0.00248907 -6.01375e-26)
(1.01171 0.00460669 8.78616e-26)
(1.01465 0.00657906 -3.35013e-26)
(1.01703 0.0115859 -5.58914e-26)
(1.01785 0.0198131 2.02564e-25)
(1.01843 0.0344293 3.91114e-26)
(1.00752 0.0612133 0)
(1.02957 -0.0938909 -2.18764e-26)
(1.03703 -0.0534659 1.79017e-25)
(1.02998 -0.0314371 1.02214e-24)
(1.02518 -0.0208502 1.2654e-25)
(1.01609 -0.013254 4.42121e-24)
(1.012 -0.00959722 4.67195e-24)
(1.00883 -0.00715829 0)
(1.00629 -0.00507888 -2.35794e-26)
(1.00417 -0.0037167 3.73304e-25)
(1.00294 -0.00266541 2.08312e-25)
(1.00148 -0.00126204 7.36599e-27)
(1.00328 -0.000127196 0)
(1.00399 0.000124561 0)
(1.00461 0.000601706 0)
(1.00562 0.000897514 0)
(1.00677 0.00190075 -1.67361e-26)
(1.00806 0.00275306 -1.74136e-26)
(1.00954 0.00445888 -1.70666e-25)
(1.0106 0.00693062 2.92645e-24)
(1.01182 0.0102739 0)
(1.00946 0.0153996 0)
(1.0048 0.0233828 6.25975e-25)
(0.983762 0.0317756 2.04677e-24)
(0.526425 -0.0242932 -7.05896e-26)
(0.99678 -0.0570601 -3.79505e-24)
(1.01716 -0.0437395 -7.16722e-25)
(1.01893 -0.0291843 -5.03244e-27)
(1.01773 -0.0209907 -2.82095e-26)
(1.0118 -0.0137852 -1.19762e-24)
(1.00901 -0.0104774 1.85557e-25)
(1.00665 -0.00793579 3.11464e-27)
(1.00463 -0.00587726 -1.68956e-24)
(1.00287 -0.00432723 0)
(1.00186 -0.00326111 7.67367e-26)
(1.00055 -0.00166116 -1.88447e-25)
(1.00307 -1.55908e-05 0)
(1.0037 0.000254322 -3.4062e-26)
(1.00421 0.000683589 2.76986e-27)
(1.00504 0.000970665 0)
(1.00595 0.00182298 0)
(1.0069 0.00251871 -1.12764e-24)
(1.0079 0.00380596 1.61907e-25)
(1.00855 0.00529914 3.68342e-24)
(1.00862 0.0076091 4.18019e-24)
(1.00602 0.00981784 2.17616e-24)
(1.00104 0.0120394 0)
(0.987706 0.00808139 -2.14074e-25)
(0.783081 -0.0210196 2.38613e-25)
(0.995383 -0.0323142 -3.69134e-25)
(1.00766 -0.028999 3.56019e-25)
(1.01211 -0.0240838 -3.68635e-25)
(1.0101 -0.0169704 6.82491e-25)
(1.00821 -0.0131743 -1.42489e-25)
(1.00632 -0.010458 -1.93305e-28)
(1.00454 -0.00813157 -3.43033e-27)
(1.00298 -0.00627726 0)
(1.00154 -0.00467325 -7.27567e-25)
(1.00073 -0.00367846 -8.69643e-25)
(0.999574 -0.00198536 -2.4961e-25)
(1.0029 5.181e-05 1.12404e-27)
(1.00343 0.000295126 -3.72511e-26)
(1.00386 0.000645702 5.12414e-26)
(1.00456 0.000877222 7.2075e-30)
(1.00532 0.00153325 -1.9796e-25)
(1.00608 0.0020093 -8.42076e-25)
(1.00688 0.00283478 -1.93983e-24)
(1.00731 0.00368669 -2.34433e-24)
(1.00719 0.00485194 -9.80617e-25)
(1.00556 0.00514517 -1.32805e-25)
(1.00259 0.00375523 0)
(0.995771 0.00041401 -9.26855e-26)
(0.818488 -0.0179391 -9.56447e-25)
(1.00083 -0.0188493 -1.3786e-25)
(1.00574 -0.0210927 -1.13495e-25)
(1.00856 -0.0191492 -1.87468e-25)
(1.00713 -0.0147232 -3.01945e-24)
(1.00555 -0.0121295 0)
(1.00411 -0.00994403 -4.91869e-25)
(1.00269 -0.00794247 -1.6987e-25)
(1.00145 -0.00635838 -2.44255e-26)
(1.00025 -0.00479693 1.30806e-25)
(0.9996 -0.00392593 0)
(0.998616 -0.00222791 0)
(1.00276 7.95486e-05 -9.93213e-28)
(1.00322 0.000266627 7.42494e-28)
(1.0036 0.000526318 3.46036e-26)
(1.00421 0.000681267 0)
(1.0049 0.00113305 -1.09376e-25)
(1.00558 0.00140546 0)
(1.00639 0.0017868 -1.98788e-24)
(1.00689 0.00220538 8.70347e-25)
(1.00735 0.00192702 -4.13228e-26)
(1.00624 0.00203045 -6.52381e-26)
(1.00555 -8.40091e-05 2.86594e-25)
(1.00018 -0.00604779 -1.55707e-25)
(0.88442 -0.0154531 -1.02485e-24)
(1.00334 -0.0151606 6.21522e-26)
(1.00569 -0.0159505 2.87338e-25)
(1.00683 -0.0152208 9.49711e-26)
(1.00496 -0.0126373 -1.42907e-24)
(1.00362 -0.0107873 1.64592e-24)
(1.00236 -0.00916525 0)
(1.00114 -0.00750698 5.81537e-25)
(1.00009 -0.00622029 -6.32811e-26)
(0.999075 -0.00475734 1.5077e-25)
(0.998539 -0.00403623 0)
(0.997703 -0.00239675 0)
(1.00267 7.43803e-05 1.26897e-26)
(1.00306 0.000189749 2.27706e-27)
(1.00343 0.000359762 -2.04676e-26)
(1.00398 0.000437609 2.93103e-26)
(1.00467 0.00070216 0)
(1.00534 0.000825402 0)
(1.00628 0.000878452 -9.60248e-25)
(1.00697 0.00102108 -3.74537e-26)
(1.008 0.000330232 1.23211e-25)
(1.00721 -0.000170733 -4.32679e-25)
(1.00759 -0.00194791 0)
(0.998615 -0.0051458 -5.10407e-25)
(0.896443 -0.0154656 -3.0341e-24)
(1.00619 -0.0108082 4.86088e-25)
(1.00576 -0.0114651 9.93712e-25)
(1.00567 -0.0110644 2.34934e-24)
(1.00371 -0.0107219 1.35173e-24)
(1.00232 -0.00935544 1.35409e-24)
(1.00101 -0.00829664 -2.15267e-25)
(0.999882 -0.00693446 -1.42065e-25)
(0.998935 -0.00594302 -2.96954e-25)
(0.998039 -0.00460449 -1.06557e-24)
(0.997574 -0.00403823 5.18779e-27)
(0.996863 -0.00250005 -5.36759e-26)
(1.00263 4.33237e-05 1.32961e-26)
(1.00298 8.28722e-05 3.22859e-27)
(1.00334 0.000171884 -2.3178e-26)
(1.00387 0.000184415 3.71982e-28)
(1.00459 0.000288195 0)
(1.00529 0.00032659 0)
(1.00638 0.000129041 7.76006e-25)
(1.00721 0.000261373 2.66195e-25)
(1.00885 -0.000888229 -2.59372e-25)
(1.0081 -8.51142e-05 -6.47443e-25)
(1.0098 -0.00512695 0)
(0.958696 0.0020638 -6.46515e-25)
(0.948103 -0.0134557 -4.17793e-26)
(1.0094 -0.00588156 2.3444e-25)
(1.00573 -0.0105632 1.11365e-25)
(1.00567 -0.00893678 -5.4222e-25)
(1.00305 -0.00927083 -4.05456e-25)
(1.00148 -0.00809957 2.18396e-25)
(1.00001 -0.00747566 -5.38689e-26)
(0.998895 -0.00631942 -1.01545e-24)
(0.997968 -0.00559643 -3.34003e-25)
(0.997149 -0.00438314 -1.37695e-24)
(0.996716 -0.00396201 0)
(0.996108 -0.00254945 -1.94719e-25)
(1.00264 -7.53251e-06 -1.35535e-27)
(1.00295 -4.00503e-05 1.07272e-27)
(1.00333 -2.09549e-05 0)
(1.00385 -5.68503e-05 9.71906e-27)
(1.00462 -9.15143e-05 0)
(1.00535 -7.88257e-05 -1.79889e-25)
(1.00661 -0.000503624 -1.58488e-25)
(1.0075 -0.000228475 1.85128e-26)
(1.00954 -0.00187546 -1.69883e-25)
(1.00893 -0.000288895 -2.06792e-25)
(1.01003 -0.00588065 -9.0271e-26)
(0.960865 0.000735972 -2.40038e-24)
(0.950065 -0.0108419 9.80022e-25)
(1.00928 -0.00415231 -2.22347e-25)
(1.00605 -0.00943233 -6.99655e-26)
(1.00568 -0.00714103 -1.69745e-27)
(1.00258 -0.00815476 -2.17159e-25)
(1.00089 -0.00699023 -2.79348e-25)
(0.999246 -0.0067395 -5.77306e-25)
(0.998121 -0.00571175 -1.52385e-25)
(0.997168 -0.00522689 -9.14828e-26)
(0.996396 -0.00412566 -4.54208e-25)
(0.995969 -0.00383421 -1.93505e-25)
(0.995442 -0.00255583 -8.61964e-26)
(1.00269 -7.34255e-05 0)
(1.00298 -0.000169277 -3.34865e-27)
(1.00338 -0.000209434 -2.3254e-26)
(1.00389 -0.000275075 1.98031e-26)
(1.00472 -0.000431628 1.69186e-25)
(1.00547 -0.000395904 -3.92834e-25)
(1.00689 -0.00103354 0)
(1.00785 -0.000554159 -1.67094e-25)
(1.01011 -0.00258392 0)
(1.00982 -0.000497487 0)
(1.01053 -0.0060033 1.92523e-27)
(0.962519 0.00011653 9.0952e-27)
(0.95171 -0.00925592 4.27091e-25)
(1.00962 -0.00315197 -1.29871e-25)
(1.00654 -0.00840711 -1.31218e-26)
(1.00569 -0.00574205 -1.29988e-28)
(1.00229 -0.00726795 4.00997e-26)
(1.00048 -0.00601287 -1.23495e-25)
(0.998666 -0.0060959 -1.51684e-25)
(0.997514 -0.00513453 2.43063e-25)
(0.996508 -0.00486101 -9.09585e-26)
(0.995764 -0.00385349 0)
(0.995324 -0.00367494 4.27845e-30)
(0.994861 -0.00252844 0)
(1.00278 -0.00015085 0)
(1.00304 -0.000298434 -1.39628e-26)
(1.00347 -0.000388685 -1.02667e-26)
(1.00398 -0.000465596 1.93958e-26)
(1.00487 -0.00073093 0)
(1.00565 -0.000636295 5.86087e-26)
(1.00719 -0.00146378 -4.78809e-25)
(1.00822 -0.000766455 -3.88876e-25)
(1.01062 -0.00305322 -6.59886e-26)
(1.01062 -0.000638606 -1.86932e-27)
(1.011 -0.00592444 2.99849e-25)
(0.963449 -0.000242796 -2.80986e-25)
(0.952657 -0.00810869 5.26354e-25)
(1.01001 -0.00248514 -9.38401e-26)
(1.007 -0.00757787 1.03353e-25)
(1.00573 -0.0046749 5.08903e-27)
(1.00213 -0.00655622 -8.89341e-26)
(1.00019 -0.0051723 8.72364e-26)
(0.998223 -0.00554534 1.96157e-25)
(0.997038 -0.0046013 -3.62269e-30)
(0.995965 -0.00451483 -4.31685e-26)
(0.995237 -0.0035805 -2.75413e-25)
(0.994772 -0.00349882 1.43968e-25)
(0.994358 -0.00247485 1.31046e-25)
(1.0029 -0.000237365 -1.33437e-26)
(1.00315 -0.000423826 -2.22205e-26)
(1.0036 -0.000556862 -9.28348e-34)
(1.00411 -0.000628406 5.62587e-26)
(1.00506 -0.00099139 1.7403e-25)
(1.00586 -0.000815542 4.30184e-26)
(1.0075 -0.00180718 -4.95738e-25)
(1.0086 -0.000905457 -3.60252e-25)
(1.01104 -0.00336139 2.08489e-25)
(1.01128 -0.000746377 0)
(1.01135 -0.00577202 5.96641e-26)
(0.964047 -0.000469587 -1.07122e-25)
(0.953253 -0.00723758 1.56653e-25)
(1.01032 -0.00200351 -7.26356e-26)
(1.00737 -0.00688886 -6.2896e-31)
(1.00577 -0.00384806 -1.61772e-25)
(1.00205 -0.00597738 -7.23338e-26)
(0.999981 -0.00445943 -1.43381e-26)
(0.997884 -0.00507932 1.03694e-25)
(0.996662 -0.00411842 -1.37824e-25)
(0.995517 -0.00419673 -2.35706e-25)
(0.994798 -0.00331543 -1.15432e-25)
(0.994301 -0.00331636 -1.23471e-25)
(0.993925 -0.00240108 1.13444e-25)
(1.00304 -0.000331296 -3.42216e-34)
(1.00327 -0.000543783 -1.41452e-26)
(1.00375 -0.000713884 1.75084e-26)
(1.00426 -0.000766291 3.39372e-26)
(1.00526 -0.00121699 3.64882e-29)
(1.00608 -0.000948715 0)
(1.00779 -0.00207939 -3.37167e-26)
(1.00896 -0.000999072 -3.51657e-25)
(1.01141 -0.00355852 1.76904e-25)
(1.01184 -0.000830698 0)
(1.01163 -0.00558355 -1.32004e-30)
(0.964456 -0.000609941 8.07095e-26)
(0.953651 -0.00656855 -1.62277e-25)
(1.01058 -0.00165398 0)
(1.00768 -0.00631397 9.58461e-29)
(1.00581 -0.00320293 3.68115e-26)
(1.00201 -0.00550112 0)
(0.999822 -0.00385878 3.83173e-26)
(0.997621 -0.00468628 3.35588e-26)
(0.996361 -0.00368687 -3.76943e-25)
(0.995146 -0.00390965 -9.84225e-26)
(0.99443 -0.0030633 9.72376e-26)
(0.993899 -0.00313436 -1.28788e-25)
(0.993552 -0.00231184 0)
(1.0032 -0.000431519 1.78318e-26)
(1.00342 -0.000657874 -1.62155e-26)
(1.00392 -0.000860652 0)
(1.00442 -0.000883193 2.78335e-26)
(1.00548 -0.00141238 9.61997e-26)
(1.00631 -0.00104849 2.27522e-26)
(1.00806 -0.00229435 0)
(1.0093 -0.00106448 6.39295e-27)
(1.01173 -0.00367885 1.66453e-25)
(1.01231 -0.00089941 0)
(1.01184 -0.00538806 4.15744e-26)
(0.964726 -0.000696378 2.97761e-26)
(0.953899 -0.00604278 -1.09318e-25)
(1.0108 -0.00139821 1.24666e-26)
(1.00795 -0.005836 -4.40012e-26)
(1.00584 -0.00269898 -1.76266e-27)
(1.002 -0.00510643 2.46622e-26)
(0.999698 -0.00335535 -8.96016e-27)
(0.997414 -0.00435508 7.45733e-28)
(0.996116 -0.00330496 -1.32814e-25)
(0.994836 -0.00365374 5.09294e-26)
(0.99412 -0.00282669 5.25799e-26)
(0.993553 -0.00295736 -2.2217e-26)
(0.993228 -0.00221083 -1.2773e-26)
(1.00336 -0.000537176 -3.23636e-27)
(1.00357 -0.000766409 -2.73022e-26)
(1.0041 -0.000998338 -8.4357e-27)
(1.00459 -0.000983199 0)
(1.00569 -0.00158218 3.8846e-25)
(1.00653 -0.00112499 0)
(1.00831 -0.00246416 -2.35732e-25)
(1.00961 -0.00111333 0)
(1.01201 -0.00374728 1.38809e-25)
(1.0127 -0.000959822 9.9528e-26)
(1.01199 -0.00519955 0)
(0.964885 -0.000756305 2.31548e-26)
(0.954042 -0.00562525 0)
(1.01097 -0.00121211 9.8924e-27)
(1.00816 -0.00543606 -1.17781e-26)
(1.00587 -0.00230525 0)
(1.002 -0.00477732 0)
(0.999596 -0.00293602 -7.53795e-27)
(0.997248 -0.00407605 1.1748e-26)
(0.995911 -0.00297001 0)
(0.994573 -0.00342731 0)
(0.993855 -0.00260677 4.96913e-26)
(0.993254 -0.00278796 1.06755e-26)
(0.992944 -0.002101 -3.77646e-26)
(1.00353 -0.00064751 3.38893e-27)
(1.00373 -0.000869971 3.12742e-27)
(1.00428 -0.00112815 0)
(1.00477 -0.00107014 -1.0109e-26)
(1.00589 -0.00173061 2.06322e-25)
(1.00675 -0.00118594 1.28141e-26)
(1.00855 -0.00259913 -1.98421e-25)
(1.00989 -0.00115378 3.20438e-27)
(1.01226 -0.00378246 0)
(1.01304 -0.00101388 8.91785e-26)
(1.01208 -0.00502688 0)
(0.964957 -0.000810439 0)
(0.954127 -0.00528936 0)
(1.01112 -0.00107499 3.93299e-26)
(1.00833 -0.00509846 8.81367e-26)
(1.00589 -0.00199895 0)
(1.002 -0.00450162 -1.04728e-27)
(0.999506 -0.00258941 0)
(0.997109 -0.00384096 0)
(0.995735 -0.00267865 0)
(0.994347 -0.00322806 0)
(0.993623 -0.0024044 -5.19598e-26)
(0.99299 -0.00262778 -4.04383e-26)
(0.992692 -0.00198525 7.99256e-31)
(1.00369 -0.000761685 0)
(1.00389 -0.000969085 8.97964e-27)
(1.00445 -0.00125098 -2.50675e-26)
(1.00495 -0.00114705 1.96572e-26)
(1.00609 -0.00186127 1.95111e-25)
(1.00696 -0.00123703 3.82773e-25)
(1.00876 -0.00270773 0)
(1.01016 -0.00119156 0)
(1.01248 -0.00379832 1.23889e-26)
(1.01332 -0.0010666 1.57814e-26)
(1.01214 -0.00487686 -2.46711e-33)
(0.964971 -0.000862099 -1.15895e-26)
(0.954147 -0.00501277 1.37267e-25)
(1.01124 -0.000974876 2.96973e-26)
(1.00847 -0.00482005 3.63027e-27)
(1.0059 -0.0017612 0)
(1.002 -0.00427155 -5.8141e-26)
(0.999423 -0.00230378 -8.69035e-26)
(0.996989 -0.0036432 0)
(0.995578 -0.00242634 -8.7068e-26)
(0.994147 -0.00305373 -7.10514e-41)
(0.993415 -0.00221885 1.23929e-25)
(0.992754 -0.00247786 7.60014e-26)
(0.992462 -0.00186545 6.17455e-26)
(1.00385 -0.00087867 -2.17344e-26)
(1.00404 -0.00106397 5.86436e-27)
(1.00462 -0.00136732 -9.6038e-27)
(1.00512 -0.00121621 3.81688e-26)
(1.00627 -0.00197697 1.68524e-25)
(1.00717 -0.00128227 7.26056e-25)
(1.00896 -0.00279645 0)
(1.0104 -0.00122942 0)
(1.01268 -0.00380373 1.0923e-26)
(1.01357 -0.00112142 0)
(1.01217 -0.00475006 0)
(0.964942 -0.000916026 0)
(0.954116 -0.00478698 0)
(1.01133 -0.000907129 -2.12954e-26)
(1.00859 -0.00459168 -5.61743e-26)
(1.0059 -0.00157898 -4.88053e-26)
(1.002 -0.0040808 -9.43363e-26)
(0.999343 -0.0020705 -7.33024e-26)
(0.996881 -0.00347765 0)
(0.995434 -0.00220959 -2.02131e-26)
(0.993966 -0.00290233 0)
(0.993223 -0.00204996 0)
(0.992536 -0.00233891 3.53802e-26)
(0.992247 -0.0017436 3.14774e-26)
(1.004 -0.000997122 -1.49914e-26)
(1.00419 -0.00115444 -1.23755e-26)
(1.00478 -0.00147709 -6.73876e-27)
(1.00528 -0.00127906 7.07598e-27)
(1.00645 -0.00207972 -4.629e-34)
(1.00736 -0.00132447 3.38627e-25)
(1.00915 -0.0028703 0)
(1.01062 -0.001269 -3.05337e-26)
(1.01286 -0.00380467 8.10022e-29)
(1.0138 -0.00118045 -1.23578e-26)
(1.01218 -0.00464663 5.27199e-26)
(0.964879 -0.000975883 -1.64811e-26)
(0.954043 -0.00460602 4.47353e-26)
(1.01141 -0.00086831 0)
(1.00868 -0.00440635 0)
(1.00589 -0.00144284 8.19168e-28)
(1.00199 -0.00392444 3.85356e-26)
(0.999264 -0.00188256 2.80872e-31)
(0.996781 -0.00334055 -3.4233e-26)
(0.995297 -0.00202551 0)
(0.993798 -0.00277218 0)
(0.993042 -0.00189775 1.2443e-26)
(0.992331 -0.00221167 0)
(0.992039 -0.00162173 0)
(1.00414 -0.00111524 0)
(1.00433 -0.00123961 -1.53929e-26)
(1.00494 -0.00157958 -1.46142e-26)
(1.00544 -0.00133603 -2.05919e-26)
(1.00662 -0.00217074 0)
(1.00755 -0.00136496 0)
(1.00932 -0.00293263 0)
(1.01084 -0.00131166 -2.28383e-26)
(1.01303 -0.00380596 0)
(1.014 -0.00124564 -2.77706e-27)
(1.01218 -0.00456724 2.02179e-26)
(0.964789 -0.001045 -1.07441e-26)
(0.953938 -0.0044657 3.44916e-26)
(1.01146 -0.00085634 1.36838e-26)
(1.00875 -0.00425924 3.50532e-26)
(1.00587 -0.001346 0)
(1.00198 -0.0037986 -3.08507e-26)
(0.999181 -0.00173433 -3.98834e-26)
(0.996685 -0.00322902 0)
(0.995162 -0.00187167 0)
(0.993638 -0.00266229 0)
(0.992864 -0.00176263 1.21868e-26)
(0.992133 -0.00209713 0)
(0.991833 -0.00150216 0)
(1.00426 -0.00123051 1.79527e-27)
(1.00447 -0.00131796 -8.15491e-27)
(1.00507 -0.00167326 5.77014e-27)
(1.0056 -0.00138679 0)
(1.00677 -0.0022501 3.94819e-26)
(1.00773 -0.00140275 1.33902e-26)
(1.00949 -0.00298525 0)
(1.01104 -0.00135714 -1.08179e-26)
(1.01319 -0.00381012 -9.43155e-28)
(1.01419 -0.00131816 -1.2898e-26)
(1.01216 -0.00451332 -1.81965e-27)
(0.964676 -0.00112638 -1.40097e-26)
(0.953805 -0.00436365 4.95862e-26)
(1.01149 -0.00087042 3.77259e-28)
(1.0088 -0.00414684 -4.00411e-28)
(1.00584 -0.00128334 1.89794e-26)
(1.00196 -0.00370035 6.83552e-28)
(0.999093 -0.00162123 -3.29231e-27)
(0.996589 -0.0031407 0)
(0.995025 -0.0017462 -2.87777e-26)
(0.993482 -0.002572 -2.30059e-26)
(0.992685 -0.00164534 0)
(0.991936 -0.00199674 3.27433e-26)
(0.991621 -0.00138762 1.58453e-26)
(1.00436 -0.00133921 0)
(1.00459 -0.00138703 -8.3477e-27)
(1.0052 -0.00175598 -7.65409e-27)
(1.00575 -0.0014309 -2.32856e-27)
(1.00692 -0.00231744 0)
(1.00791 -0.00143743 1.51269e-25)
(1.00964 -0.00302935 -4.2995e-26)
(1.01124 -0.00140432 -2.36988e-26)
(1.01335 -0.00381874 2.19638e-27)
(1.01437 -0.00139862 1.50324e-26)
(1.01214 -0.00448853 4.42078e-27)
(0.964545 -0.00122434 -3.67515e-26)
(0.953654 -0.00430004 1.4982e-26)
(1.0115 -0.000910755 8.67098e-29)
(1.00883 -0.00406634 -1.86791e-26)
(1.0058 -0.00125046 -1.14274e-26)
(1.00193 -0.00362698 1.57453e-27)
(0.998997 -0.0015395 -3.53891e-27)
(0.996495 -0.003074 0)
(0.994884 -0.00164805 -1.93593e-26)
(0.99333 -0.00250143 -1.80951e-26)
(0.992502 -0.00154752 0)
(0.99174 -0.00191269 1.00854e-26)
(0.991401 -0.00128188 -1.48602e-26)
(1.00444 -0.0014366 -3.63358e-27)
(1.0047 -0.00144401 5.82691e-27)
(1.00531 -0.00182509 -1.54954e-26)
(1.0059 -0.00146635 -1.777e-27)
(1.00706 -0.00237166 2.72374e-26)
(1.0081 -0.00146778 1.69398e-25)
(1.00979 -0.00306504 -1.52033e-26)
(1.01145 -0.00145106 -5.58676e-27)
(1.0135 -0.00383182 3.464e-27)
(1.01456 -0.00148479 3.05681e-26)
(1.01213 -0.00449631 2.3074e-27)
(0.964392 -0.00134289 2.37897e-26)
(0.953483 -0.00427735 -4.48453e-27)
(1.01149 -0.000979134 0)
(1.00885 -0.00401541 -1.13892e-26)
(1.00573 -0.00124312 -4.95774e-27)
(1.00189 -0.0035758 8.67217e-28)
(0.998885 -0.00148559 0)
(0.996402 -0.00302708 1.77746e-27)
(0.994729 -0.00157609 2.71325e-27)
(0.993177 -0.00245024 -1.32257e-26)
(0.992303 -0.00147089 -2.10783e-26)
(0.991535 -0.00184715 6.99958e-27)
(0.991156 -0.00118952 0)
(1.00449 -0.00151168 -6.0991e-28)
(1.0048 -0.00148298 5.26146e-27)
(1.00539 -0.00187409 -3.91308e-27)
(1.00604 -0.0014902 0)
(1.00716 -0.00240897 0)
(1.00827 -0.00149135 -3.61621e-26)
(1.00991 -0.00308968 1.79661e-26)
(1.01165 -0.00149235 1.32303e-26)
(1.01364 -0.0038478 8.66767e-27)
(1.01475 -0.00157427 -2.52584e-27)
(1.01212 -0.00456226 -1.7351e-26)
(0.964238 -0.00149893 0)
(0.953323 -0.00430254 0)
(1.01145 -0.0010754 0)
(1.00886 -0.00398946 0)
(1.00566 -0.00125451 -1.46969e-27)
(1.00186 -0.00354464 0)
(0.998771 -0.00145787 0)
(0.996324 -0.0029995 1.52038e-27)
(0.99458 -0.00153258 0)
(0.993047 -0.00242013 0)
(0.992115 -0.00142119 0)
(0.991352 -0.00180554 6.30027e-27)
(0.990923 -0.00112108 0)
(1.00451 -0.00156496 0)
(1.00495 -0.00150774 -1.39418e-27)
(1.00548 -0.00190662 -4.01011e-27)
(1.00628 -0.00150589 -6.09478e-28)
(1.00728 -0.00243379 6.16787e-27)
(1.00859 -0.00150998 -6.97703e-26)
(1.01006 -0.00310587 4.22825e-27)
(1.01201 -0.00152653 3.84066e-30)
(1.01383 -0.00386167 1.97688e-33)
(1.01513 -0.00164131 -5.2446e-31)
(1.01219 -0.00465118 -2.36563e-26)
(0.963952 -0.00167608 0)
(0.953085 -0.00438694 -2.30957e-26)
(1.01127 -0.00121627 -3.22197e-26)
(1.00884 -0.00398627 9.90713e-28)
(1.00547 -0.00127858 -2.7362e-28)
(1.00185 -0.00352689 0)
(0.998541 -0.00144786 0)
(0.996247 -0.00298442 0)
(0.994307 -0.00150991 0)
(0.992879 -0.00240439 0)
(0.991789 -0.0013926 0)
(0.991084 -0.00178236 4.4957e-27)
(0.99052 -0.00107551 0)
(1.07584 -0.0956708 1.90263e-26)
(1.12097 0.128183 7.06558e-26)
(1.01333 0.145864 3.04825e-25)
(1.11648 -0.0291773 -3.4715e-26)
(1.17692 0.0345643 -1.11054e-26)
(1.1324 0.118443 -5.79273e-26)
(1.10347 0.0370723 -1.50796e-26)
(1.15635 -0.0636561 -1.54924e-25)
(1.1784 0.0211596 -4.59853e-26)
(1.05688 0.0684911 -7.75657e-26)
(1.09507 -0.105144 2.11968e-25)
(1.14992 -0.0719975 0)
(1.01206 0.0636733 7.04593e-30)
(1.03211 -0.103392 -1.57416e-25)
(1.08659 -0.107256 1.58265e-25)
(0.985209 0.035974 0)
(0.607107 0.0188829 -9.54107e-26)
(0.504234 -0.0285123 1.49598e-25)
(0.993261 -0.0679097 7.87873e-25)
(1.02535 -0.100495 -2.36018e-25)
(0.982638 -0.102111 1.90856e-25)
(0.909537 0.00132724 4.37502e-26)
(0.998439 0.138116 4.41597e-25)
(0.960386 0.0659548 1.01639e-24)
(1.04512 -0.0483366 -1.28822e-25)
(1.07136 -0.0857534 5.44315e-27)
(1.00266 -0.0974081 -2.48192e-25)
(1.0771 0.240541 0)
(0.948342 0.225628 -2.45708e-25)
(1.11512 0.116932 0)
(1.07656 0.0654489 1.20165e-26)
(1.04049 0.074875 -1.38156e-24)
(1.0676 -0.0199314 1.29956e-25)
(1.10924 -0.026807 -3.31893e-26)
(1.0789 -0.0795115 6.35884e-27)
(1.10321 -0.0646431 -6.00058e-27)
(1.13345 -0.079685 5.45537e-27)
(1.10868 -0.12057 -7.45047e-27)
(1.19327 0.100441 7.99129e-26)
(1.16388 0.171451 3.02942e-26)
(1.16721 0.0330993 4.99719e-27)
(1.10675 0.0239327 -3.95077e-25)
(1.0869 0.0572989 1.47683e-25)
(1.06596 0.0127418 2.74604e-25)
(1.09855 0.0329026 1.32227e-26)
(1.11046 -0.0183767 -2.70506e-28)
(1.11612 0.00648677 2.22865e-30)
(1.14452 0.0173108 -3.40968e-26)
(1.14808 -0.0259323 -7.31269e-28)
(1.19832 -0.0231401 2.20104e-27)
(1.21127 0.0464315 -4.11564e-26)
(1.1508 -0.0510685 -1.75373e-25)