/*--------------------------------*- C++ -*----------------------------------*\
| =========                 |                                                 |
| \\      /  F ield         | OpenFOAM: The Open Source CFD Toolbox           |
|  \\    /   O peration     | Version:  5.x                                   |
|   \\  /    A nd           | Web:      www.OpenFOAM.org                      |
|    \\/     M anipulation  |                                                 |
\*---------------------------------------------------------------------------*/
FoamFile
{
    version     2.0;
    format      ascii;
    class       volScalarField;
    location    "300";
    object      xf;
}
// * * * * * * * * * * * * * * * * * * * * * * * * * * * * * * * * * * * * * //

dimensions      [0 0 0 0 0 0 0];

internalField   nonuniform List<scalar> 
6584
(
0.159242
0.159242
0.159242
0.159242
0.159242
0.159242
0.159243
0.159243
0.159243
0.159243
0.159243
0.159243
0.159243
0.159243
0.159243
0.159243
0.159243
0.159243
0.159242
0.159242
0.159242
0.159242
0.159242
0.159242
0.159068
0.159069
0.159069
0.159069
0.159069
0.159069
0.159069
0.15907
0.15907
0.15907
0.15907
0.15907
0.15907
0.15907
0.15907
0.15907
0.15907
0.15907
0.159069
0.159069
0.159069
0.159069
0.159069
0.159068
0.158895
0.158895
0.158895
0.158895
0.158895
0.158895
0.158896
0.158897
0.158897
0.158984
0.158984
0.158984
0.158984
0.158984
0.158984
0.158897
0.158897
0.158896
0.158896
0.158895
0.158895
0.158895
0.158895
0.158895
0.158721
0.158721
0.158721
0.158722
0.158722
0.158722
0.158723
0.158723
0.158724
0.15881
0.15881
0.15881
0.15881
0.15881
0.15881
0.158811
0.158723
0.158723
0.158722
0.158722
0.158722
0.158722
0.158721
0.158721
0.158547
0.158548
0.158548
0.158548
0.158548
0.158549
0.158549
0.158549
0.158637
0.158637
0.158636
0.158635
0.158635
0.158635
0.158636
0.158637
0.158637
0.15855
0.158549
0.158549
0.158549
0.158548
0.158548
0.158548
0.158374
0.158374
0.158374
0.158375
0.158375
0.158376
0.158376
0.158462
0.158462
0.158461
0.158504
0.158502
0.158501
0.158503
0.158462
0.158464
0.158464
0.158378
0.158377
0.158376
0.158376
0.158375
0.158375
0.158374
0.158201
0.158201
0.158201
0.158202
0.158202
0.158203
0.158204
0.15829
0.158289
0.158287
0.158326
0.158343
0.15834
0.158323
0.158332
0.158292
0.158292
0.158208
0.158205
0.158204
0.158203
0.158202
0.158201
0.158201
0.158028
0.158028
0.158028
0.158029
0.15803
0.158031
0.158033
0.158117
0.158117
0.158117
0.158151
0.158159
0.158164
0.158159
0.158122
0.158122
0.158037
0.158034
0.158032
0.15803
0.158029
0.158029
0.158028
0.157854
0.157855
0.157855
0.157856
0.157857
0.157859
0.157861
0.157946
0.157947
0.157949
0.157983
0.15799
0.157997
0.157993
0.157956
0.157954
0.157868
0.157862
0.15786
0.157858
0.157857
0.157856
0.157855
0.157681
0.157682
0.157683
0.157684
0.157685
0.157687
0.157691
0.157776
0.157777
0.157782
0.157819
0.157832
0.157843
0.157833
0.157791
0.157786
0.157698
0.157692
0.157688
0.157686
0.157684
0.157683
0.157682
0.157508
0.157509
0.15751
0.157511
0.157513
0.157515
0.15752
0.157605
0.157609
0.157616
0.157655
0.157674
0.157691
0.157673
0.157626
0.157619
0.157529
0.157521
0.157517
0.157514
0.157512
0.15751
0.157509
0.157335
0.157336
0.157337
0.157339
0.157341
0.157344
0.157349
0.157435
0.157439
0.157448
0.15749
0.15751
0.157532
0.157511
0.157461
0.157451
0.157359
0.15735
0.157345
0.157341
0.157339
0.157337
0.157336
0.157162
0.157163
0.157164
0.157166
0.157169
0.157172
0.157177
0.157264
0.157269
0.157278
0.157321
0.15734
0.157364
0.157344
0.157293
0.157282
0.157189
0.157179
0.157173
0.157169
0.157166
0.157164
0.157163
0.156989
0.15699
0.156992
0.156994
0.156996
0.157
0.157006
0.157008
0.157097
0.157105
0.157145
0.157156
0.0920772
0.157163
0.157173
0.157123
0.157112
0.157018
0.157008
0.157001
0.156996
0.156993
0.156991
0.156989
0.156816
0.156817
0.156819
0.156821
0.156824
0.156828
0.156833
0.156834
0.156923
0.156931
0.15697
0.156955
0.136788
0.156984
0.156953
0.156951
0.15685
0.156845
0.156834
0.156828
0.156824
0.15682
0.156818
0.156816
0.156643
0.156644
0.156646
0.156648
0.156651
0.156655
0.156659
0.156661
0.156749
0.156758
0.156754
0.156777
0.137429
0.156766
0.156779
0.156779
0.156678
0.156672
0.156661
0.156655
0.15665
0.156646
0.156644
0.156642
0.15647
0.156472
0.156473
0.156476
0.156479
0.156482
0.156486
0.156489
0.156494
0.156585
0.15658
0.156335
0.146327
0.156589
0.156605
0.156605
0.156505
0.156499
0.156488
0.156481
0.156476
0.156472
0.15647
0.156467
0.156297
0.156298
0.1563
0.156303
0.156306
0.156309
0.156313
0.156316
0.156321
0.156324
0.156407
0.156014
0.146256
0.156412
0.156347
0.15634
0.156331
0.156326
0.156315
0.156308
0.156302
0.156298
0.156296
0.156293
0.156124
0.156125
0.156127
0.15613
0.156133
0.156136
0.156141
0.156144
0.156149
0.156151
0.156109
0.145428
0.151082
0.156156
0.156173
0.156166
0.156158
0.156152
0.156141
0.156134
0.156128
0.156124
0.156121
0.156118
0.155951
0.155952
0.155954
0.155957
0.15596
0.155963
0.155969
0.155972
0.155977
0.155978
0.155907
0.145275
0.150915
0.155979
0.155999
0.155993
0.155984
0.155979
0.155967
0.15596
0.155954
0.15595
0.155947
0.155944
0.155778
0.155779
0.155781
0.155784
0.155787
0.155791
0.155797
0.1558
0.155805
0.155806
0.155706
0.145119
0.150746
0.155802
0.155825
0.155819
0.15581
0.155805
0.155793
0.155786
0.15578
0.155775
0.155772
0.155769
0.155605
0.155606
0.155608
0.155611
0.155615
0.155618
0.155625
0.155628
0.155633
0.155633
0.155507
0.144961
0.150574
0.155625
0.155651
0.155646
0.155637
0.155631
0.155619
0.155612
0.155606
0.155601
0.155598
0.155594
0.155432
0.155433
0.155435
0.155438
0.155442
0.155446
0.155452
0.155456
0.155461
0.15546
0.15531
0.144801
0.150401
0.155448
0.155478
0.155472
0.155463
0.155458
0.155446
0.155437
0.155431
0.155426
0.155423
0.15542
0.155258
0.15526
0.155262
0.155266
0.155269
0.155273
0.15528
0.155284
0.155289
0.155288
0.155114
0.14464
0.150226
0.15527
0.155304
0.155299
0.155289
0.155284
0.155272
0.155263
0.155257
0.155252
0.155249
0.155245
0.155085
0.155087
0.155089
0.155093
0.155097
0.155101
0.155108
0.155112
0.155118
0.155115
0.15492
0.144478
0.15005
0.155092
0.155131
0.155126
0.155116
0.15511
0.155098
0.155089
0.155082
0.155077
0.155074
0.15507
0.154912
0.154914
0.154917
0.15492
0.154924
0.154929
0.154936
0.15494
0.154946
0.154943
0.154724
0.144315
0.149874
0.154915
0.154957
0.154953
0.154942
0.154937
0.154924
0.154915
0.154908
0.154903
0.154899
0.154896
0.154739
0.154741
0.154744
0.154747
0.154752
0.154756
0.154764
0.154768
0.154774
0.15477
0.154526
0.144153
0.1497
0.154739
0.154784
0.15478
0.154769
0.154763
0.15475
0.154741
0.154734
0.154728
0.154725
0.154721
0.154566
0.154568
0.154571
0.154574
0.154579
0.154584
0.154592
0.154596
0.154603
0.154598
0.154329
0.143991
0.149525
0.154563
0.154611
0.154607
0.154596
0.15459
0.154576
0.154567
0.15456
0.154554
0.154551
0.154547
0.154393
0.154395
0.154398
0.154402
0.154407
0.154412
0.15442
0.154424
0.154431
0.154425
0.154134
0.143828
0.14935
0.154387
0.154438
0.154434
0.154423
0.154417
0.154403
0.154393
0.154386
0.15438
0.154376
0.154372
0.15422
0.154222
0.154225
0.154229
0.154234
0.154239
0.154248
0.154253
0.15426
0.154252
0.153939
0.143664
0.149174
0.154211
0.154265
0.154261
0.154249
0.154243
0.154229
0.154219
0.154212
0.154206
0.154202
0.154198
0.154047
0.15405
0.154052
0.154056
0.154061
0.154067
0.154076
0.154081
0.154088
0.15408
0.153745
0.1435
0.148999
0.154035
0.154091
0.154088
0.154076
0.15407
0.154055
0.154045
0.154037
0.154031
0.154027
0.154024
0.153874
0.153877
0.15388
0.153884
0.153889
0.153895
0.153905
0.153909
0.153917
0.153907
0.153551
0.143336
0.148822
0.153859
0.153918
0.153915
0.153903
0.153896
0.153882
0.153871
0.153863
0.153857
0.153853
0.153849
0.153701
0.153704
0.153707
0.153711
0.153716
0.153723
0.153733
0.153738
0.153745
0.153734
0.153358
0.143172
0.148646
0.153683
0.153745
0.153742
0.15373
0.153723
0.153708
0.153697
0.153689
0.153683
0.153678
0.153675
0.153529
0.153531
0.153534
0.153538
0.153544
0.153551
0.153561
0.153566
0.153574
0.153561
0.153164
0.143007
0.14847
0.153506
0.153572
0.153569
0.153556
0.153549
0.153534
0.153523
0.153515
0.153508
0.153504
0.1535
0.153356
0.153358
0.153361
0.153366
0.153372
0.153379
0.15339
0.153395
0.153402
0.153388
0.152971
0.142843
0.148293
0.15333
0.153399
0.153396
0.153383
0.153376
0.15336
0.153349
0.153341
0.153334
0.153329
0.153326
0.153183
0.153185
0.153189
0.153193
0.153199
0.153207
0.153218
0.153223
0.153231
0.153216
0.152776
0.142678
0.148117
0.153154
0.153226
0.153223
0.15321
0.153203
0.153187
0.153175
0.153166
0.15316
0.153155
0.153151
0.15801
0.158014
0.15816
0.157851
0.157861
0.157995
0.157694
0.15771
0.157842
0.157531
0.157553
0.15769
0.157361
0.157386
0.157532
0.157179
0.0777123
0.090407
0.157208
0.157364
0.158181
0.15834
0.158182
0.158344
0.158024
0.158013
0.158163
0.158073
0.158154
0.158017
0.158031
0.158156
0.157859
0.157852
0.157993
0.15793
0.157873
0.157977
0.157773
0.157964
0.157862
0.157871
0.157991
0.157696
0.157694
0.157833
0.157773
0.157585
0.157678
0.156056
0.156975
0.15771
0.157713
0.157832
0.157531
0.157531
0.157674
0.157613
0.157479
0.157519
0.156803
0.156243
0.157553
0.157553
0.157674
0.156867
0.15709
0.157386
0.157388
0.157513
0.156715
0.156803
0.156999
0.0970158
0.078035
0.121953
0.157017
0.157184
0.15799
0.158068
0.158072
0.158065
0.157969
0.158156
0.158076
0.157972
0.158068
0.158074
0.158066
0.157987
0.157697
0.157853
0.15791
0.15773
0.157268
0.157948
0.157754
0.157032
0.157762
0.157918
0.157833
0.157594
0.157979
0.157841
0.157937
0.157525
0.157576
0.157753
0.157056
0.15716
0.157245
0.157055
0.156238
0.155994
0.157767
0.157433
0.157398
0.157585
0.157444
0.157785
0.156992
0.157101
0.157169
0.156972
0.157086
0.15685
0.157612
0.157391
0.157423
0.15739
0.157387
0.157632
0.157164
0.157162
0.157112
0.157161
0.156813
0.156865
0.157415
0.157349
0.157471
0.157117
0.156888
0.157159
0.157124
0.156495
0.156701
0.158093
0.158079
0.15816
0.158094
0.158146
0.157363
0.157361
0.15751
0.157447
0.157373
0.157425
0.153394
0.152306
0.157209
0.157218
0.157346
0.15815
0.158099
0.158159
0.158077
0.158095
0.157431
0.157473
0.157593
0.107023
0.114135
0.138358
0.142737
0.114446
0.123244
0.152103
0.150317
0.15745
0.157338
0.157253
0.143272
0.145994
0.15724
0.15714
0.157298
0.158253
0.158244
0.158168
0.158167
0.158243
0.158253
0.158088
0.158107
0.158091
0.15815
0.158097
0.158118
0.157852
0.157886
0.156561
0.156612
0.156641
0.15655
0.156867
0.150422
0.157095
0.154269
0.15352
0.153689
0.154376
0.156768
0.15748
0.158031
0.156396
0.157851
0.156086
0.158018
0.157899
0.158096
0.158109
0.158083
0.157637
0.15802
0.158027
0.157481
0.157451
0.157885
0.157871
0.157349
0.157391
0.157652
0.157884
0.157913
0.157845
0.157874
0.157645
0.157921
0.157963
0.157993
0.157923
0.157953
0.157906
0.157104
0.157109
0.157115
0.157101
0.155295
0.155391
0.157347
0.157732
0.15776
0.157695
0.157723
0.157336
0.157525
0.157807
0.157835
0.157769
0.157797
0.157516
0.10806
0.157047
0.117848
0.110119
0.127116
0.118269
0.157061
0.156885
0.111151
0.156906
0.15703
0.157011
0.157382
0.157657
0.157685
0.157618
0.157647
0.157392
0.132119
0.137422
0.15714
0.134841
0.127704
0.140957
0.135633
0.157146
0.124084
0.131321
0.15684
0.152406
0.153558
0.150626
0.152185
0.156847
0.149897
0.145411
0.146344
0.0913207
0.146308
0.145028
0.111361
0.154218
0.154337
0.158135
0.157191
0.157183
0.15734
0.157274
0.157237
0.1573
0.119308
0.155928
0.156175
0.158136
0.157304
0.157365
0.157426
0.101176
0.102667
0.066906
0.144607
0.144198
0.104446
0.107437
0.153598
0.154181
0.066019
0.158196
0.1582
0.158157
0.158154
0.158199
0.158196
0.157922
0.157953
0.157923
0.157793
0.157815
0.15793
0.157617
0.157793
0.157763
0.157832
0.157802
0.157631
0.15629
0.156828
0.156716
0.156232
0.145848
0.144306
0.156755
0.154449
0.154955
0.15653
0.156451
0.0954778
0.158121
0.158104
0.158154
0.157993
0.157903
0.15784
0.158034
0.158044
0.158076
0.158003
0.158034
0.158023
0.157761
0.157872
0.157842
0.157912
0.157882
0.157783
0.15762
0.153674
0.156108
0.15169
0.152164
0.157343
0.156348
0.156613
0.157809
0.157169
0.157528
0.157735
0.157885
0.157896
0.157816
0.157832
0.157616
0.157753
0.157724
0.157552
0.157082
0.1501
0.148712
0.157182
0.151
0.151554
0.148495
0.148869
0.157061
0.155857
0.155688
0.157395
0.157718
0.157731
0.157655
0.157681
0.157377
0.157561
0.157794
0.15781
0.157736
0.157749
0.157476
0.157063
0.154057
0.154522
0.15371
0.153315
0.156932
0.15745
0.157579
0.157609
0.157539
0.15757
0.157444
0.157168
0.145124
0.141555
0.149317
0.148205
0.157167
0.116791
0.118298
0.157148
0.150537
0.149661
0.114934
0.11636
0.147775
0.146247
0.158115
0.158135
0.158123
0.14454
0.152986
0.145622
0.146341
0.146148
0.152846
0.158128
0.158119
0.158141
0.158109
0.158121
0.10763
0.110128
0.102874
0.101569
0.140454
0.109027
0.107874
0.112335
0.109359
0.141012
0.116538
0.118293
0.151415
0.151109
0.14463
0.11718
0.114022
0.107664
0.109147
0.158067
0.158084
0.158103
0.158057
0.158077
0.158059
0.157801
0.157922
0.156346
0.156777
0.156714
0.156256
0.150831
0.154499
0.154174
0.154842
0.154604
0.150751
0.15345
0.153205
0.154081
0.153618
0.154007
0.148614
0.149546
0.146972
0.148154
0.153895
0.14346
0.14413
0.157098
0.157985
0.157918
0.158053
0.158005
0.157282
0.157572
0.15745
0.157873
0.157624
0.158045
0.158085
0.158062
0.158028
0.157984
0.157985
0.157919
0.158
0.157947
0.158022
0.158049
0.157962
0.158012
0.158045
0.158025
0.157993
0.152812
0.153294
0.15758
0.149403
0.147394
0.154143
0.149784
0.144366
0.142314
0.146765
0.145266
0.157369
0.15233
0.152687
0.156131
0.155669
0.15739
0.156513
0.155149
0.154661
0.155588
0.155273
0.157826
0.156675
0.15685
0.157215
0.157503
0.157861
0.157879
0.157695
0.157624
0.157838
0.157855
0.1504
0.150329
0.157089
0.137901
0.137895
0.129794
0.136922
0.137163
0.139529
0.137688
0.137191
0.150185
0.150816
0.157163
0.138855
0.136508
0.141834
0.139547
0.131827
0.129457
0.135566
0.133035
0.157072
0.149188
0.149933
0.155572
0.155607
0.157701
0.157713
0.157383
0.157356
0.157685
0.157696
0.157774
0.157789
0.157552
0.157486
0.157754
0.157769
0.110267
0.113505
0.149606
0.150714
0.148164
0.149208
0.110742
0.1236
0.15217
0.149842
0.151008
0.151892
0.121684
0.143411
0.143967
0.140961
0.143196
0.114464
0.146766
0.147886
0.144301
0.146149
0.114739
0.153751
0.15396
0.157056
0.152421
0.152991
0.153085
0.152389
0.153039
0.156944
0.153139
0.153514
0.134187
0.100882
0.102055
0.106828
0.101346
0.134954
0.103122
0.126603
0.102523
0.12783
0.151424
0.155123
0.154918
0.155371
0.155191
0.151551
0.149242
0.149499
0.119052
0.120732
0.110439
0.114271
0.148793
0.148128
0.158187
0.158198
0.158328
0.157276
0.157172
0.157044
0.158171
0.158174
0.158147
0.158141
0.158172
0.158171
0.158251
0.158247
0.158171
0.157994
0.157963
0.157937
0.15778
0.157568
0.157533
0.156122
0.156926
0.157675
0.157645
0.157501
0.155095
0.154923
0.156237
0.154613
0.154811
0.157092
0.158025
0.158035
0.158004
0.157745
0.157831
0.157987
0.158056
0.158033
0.158051
0.157933
0.157383
0.157708
0.157078
0.157496
0.157457
0.157738
0.157721
0.157727
0.157601
0.157908
0.157919
0.157862
0.157545
0.157714
0.157685
0.150933
0.150378
0.157132
0.156205
0.15537
0.15526
0.155931
0.157423
0.157622
0.157627
0.157577
0.157708
0.157715
0.157632
0.157637
0.157454
0.156846
0.151852
0.151239
0.15736
0.157638
0.157647
0.15739
0.157498
0.157529
0.0977405
0.0975078
0.151447
0.150796
0.157142
0.0982549
0.0979877
0.154995
0.155075
0.156649
0.1581
0.158099
0.106308
0.104868
0.105936
0.113622
0.11479
0.102782
0.103783
0.110475
0.109256
0.122039
0.148903
0.1486
0.150578
0.119662
0.117701
0.144999
0.158205
0.158202
0.158158
0.158078
0.158081
0.158087
0.158094
0.158037
0.158046
0.15811
0.15813
0.158119
0.15774
0.157721
0.157826
0.157903
0.157855
0.157824
0.156468
0.156663
0.155258
0.155347
0.156693
0.156434
0.154752
0.155021
0.151168
0.151206
0.152298
0.152149
0.150426
0.151325
0.151456
0.157093
0.154906
0.155171
0.157339
0.15674
0.15755
0.157449
0.157976
0.15793
0.157755
0.155092
0.154737
0.157199
0.156506
0.155543
0.158103
0.158091
0.158064
0.158066
0.158021
0.158047
0.157761
0.158004
0.158025
0.156908
0.157203
0.157922
0.154255
0.153822
0.157307
0.157431
0.157953
0.157964
0.157948
0.15787
0.15793
0.157942
0.157126
0.150345
0.150375
0.155267
0.155465
0.157674
0.15768
0.157534
0.157505
0.157663
0.157668
0.109148
0.117283
0.130993
0.131695
0.1231
0.123635
0.109215
0.152244
0.151956
0.156866
0.115087
0.113913
0.121938
0.121859
0.112304
0.122574
0.122817
0.113206
0.113577
0.157622
0.15763
0.157356
0.157391
0.157606
0.157614
0.131288
0.151057
0.151446
0.150244
0.150646
0.13005
0.152923
0.155186
0.155418
0.155306
0.15525
0.153103
0.150954
0.152722
0.152502
0.149449
0.149019
0.149974
0.0986754
0.100863
0.101008
0.0995031
0.147147
0.123806
0.120712
0.126351
0.124543
0.14461
0.141508
0.141875
0.149797
0.150608
0.154502
0.158131
0.158137
0.158124
0.100996
0.1014
0.117409
0.116119
0.0667196
0.106203
0.102519
0.102722
0.101154
0.101913
0.107049
0.0657529
0.147361
0.148682
0.158178
0.158174
0.158145
0.157635
0.157602
0.157787
0.157761
0.157842
0.157904
0.157806
0.157826
0.156215
0.156877
0.153747
0.153934
0.153887
0.153717
0.156231
0.154778
0.154659
0.145515
0.142778
0.14264
0.143334
0.143192
0.145083
0.157885
0.157944
0.157952
0.157926
0.157937
0.157864
0.157123
0.157679
0.157414
0.157315
0.157609
0.157733
0.157739
0.15546
0.155456
0.156102
0.155791
0.157612
0.157617
0.157409
0.157697
0.157703
0.157569
0.157466
0.157642
0.157647
0.153664
0.154419
0.154169
0.154565
0.15452
0.153548
0.0973449
0.0974073
0.0989693
0.0985435
0.115454
0.105504
0.105181
0.142866
0.142932
0.147306
0.143864
0.144516
0.142741
0.143194
0.146761
0.158111
0.158106
0.158108
0.158111
0.158129
0.158131
0.158139
0.158118
0.158123
0.158123
0.145406
0.149286
0.14906
0.14995
0.149603
0.145657
0.147158
0.14823
0.147778
0.148884
0.148653
0.146723
0.158125
0.158128
0.158121
0.158085
0.158064
0.158111
0.158103
0.10622
0.112505
0.106801
0.107037
0.102464
0.102015
0.118099
0.118887
0.108416
0.102427
0.102111
0.115395
0.104175
0.103515
0.104244
0.120303
0.106768
0.104146
0.149093
0.149523
0.151687
0.147872
0.148006
0.147557
0.147634
0.150819
0.148472
0.148651
0.107905
0.0996328
0.100364
0.0991675
0.0991241
0.10833
0.158074
0.15808
0.158075
0.158043
0.158053
0.158067
0.157625
0.157811
0.157696
0.157666
0.157755
0.157781
0.157696
0.157727
0.156403
0.156717
0.15433
0.154446
0.154063
0.154197
0.15671
0.155374
0.15538
0.15458
0.154598
0.156326
0.154488
0.15159
0.151287
0.150579
0.15203
0.151874
0.153338
0.151648
0.15161
0.152143
0.151856
0.15327
0.153968
0.152405
0.152561
0.151796
0.152113
0.153807
0.151505
0.147358
0.150506
0.15026
0.143237
0.143547
0.157019
0.157643
0.157596
0.156919
0.157444
0.157816
0.157713
0.155665
0.155359
0.156816
0.156888
0.157493
0.156343
0.156004
0.157895
0.157955
0.158048
0.157998
0.157817
0.157597
0.157809
0.157971
0.157992
0.158002
0.157961
0.157975
0.157932
0.157883
0.157929
0.15803
0.158013
0.158002
0.158041
0.158022
0.158039
0.157976
0.157988
0.15796
0.157987
0.148914
0.148107
0.152921
0.147477
0.148185
0.146175
0.150143
0.143583
0.142898
0.146223
0.145769
0.155897
0.153821
0.154311
0.15288
0.153329
0.155763
0.157283
0.156467
0.156699
0.154588
0.155918
0.157036
0.153428
0.152716
0.155023
0.149794
0.150283
0.148962
0.149375
0.154881
0.155506
0.152153
0.152492
0.150839
0.151463
0.155394
0.157265
0.15747
0.138173
0.129571
0.130931
0.126691
0.128056
0.13809
0.131654
0.131614
0.131698
0.134453
0.137467
0.119528
0.120675
0.121765
0.119749
0.13825
0.137501
0.124339
0.125451
0.122154
0.123347
0.13734
0.138295
0.137605
0.141321
0.140365
0.130772
0.129865
0.134768
0.134109
0.155356
0.155535
0.157543
0.157685
0.157691
0.157652
0.157657
0.157495
0.110041
0.128313
0.129925
0.116087
0.109142
0.124711
0.126401
0.117799
0.116389
0.143576
0.129025
0.129088
0.142123
0.127512
0.124766
0.12905
0.128663
0.142826
0.120967
0.119326
0.120888
0.122081
0.113487
0.11526
0.11819
0.153855
0.155225
0.155145
0.155321
0.155274
0.153906
0.152604
0.152857
0.152832
0.152318
0.152271
0.152553
0.153102
0.154699
0.15461
0.15501
0.154845
0.153251
0.101107
0.110074
0.110707
0.109265
0.109656
0.101558
0.104803
0.115302
0.116942
0.111804
0.113438
0.102786
0.102919
0.101443
0.101736
0.102658
0.101938
0.103107
0.107602
0.108693
0.103194
0.105422
0.103195
0.153053
0.152912
0.151258
0.149198
0.149791
0.098073
0.0994193
0.111951
0.101967
0.100161
0.1047
0.103776
0.113307
0.0996502
0.0994197
0.142147
0.142346
0.158548
0.158547
0.158635
0.158546
0.158546
0.158634
0.158546
0.158546
0.158635
0.158547
0.158549
0.158636
0.158374
0.158372
0.15846
0.15837
0.158368
0.158503
0.158366
0.158364
0.158501
0.158364
0.158367
0.158501
0.158369
0.158372
0.158504
0.158375
0.158377
0.158462
0.158202
0.158198
0.158328
0.158194
0.158185
0.158323
0.158273
0.158271
0.158343
0.158266
0.158268
0.15834
0.158278
0.158281
0.158324
0.158202
0.158207
0.158291
0.158033
0.158027
0.158155
0.158109
0.158107
0.15815
0.158136
0.158135
0.158157
0.158099
0.158109
0.158172
0.158034
0.15804
0.158123
0.157866
0.157861
0.157986
0.157941
0.157941
0.157982
0.15797
0.15797
0.15799
0.157938
0.157946
0.158006
0.157873
0.157877
0.157958
0.157699
0.157697
0.15782
0.157778
0.157779
0.15782
0.157812
0.157812
0.157831
0.157786
0.15779
0.157848
0.157713
0.157714
0.157796
0.157532
0.157531
0.157656
0.157614
0.157617
0.157658
0.157654
0.157654
0.157674
0.157632
0.157632
0.157692
0.157552
0.157551
0.157633
0.157363
0.157363
0.15749
0.157489
0.15749
0.157511
0.157471
0.157469
0.157531
0.157386
0.157385
0.157468
0.157193
0.157191
0.15732
0.157298
0.157302
0.157345
0.157216
0.157216
0.157301
0.157017
0.157012
0.1571
0.157014
0.157005
0.157137
0.157089
0.157024
0.157095
0.0973073
0.152444
0.15286
0.157029
0.157044
0.157175
0.157041
0.157046
0.157131
0.156844
0.156839
0.156926
0.15684
0.15683
0.156961
0.156822
0.117045
0.116544
0.137314
0.156834
0.156972
0.156849
0.156868
0.156998
0.156866
0.156872
0.156958
0.156667
0.15666
0.156748
0.156502
0.135085
0.117166
0.14635
0.156537
0.156788
0.156677
0.156693
0.15678
0.15801
0.15803
0.158031
0.158034
0.158041
0.158009
0.158158
0.158137
0.158138
0.157851
0.157871
0.157871
0.15788
0.157879
0.15785
0.157998
0.157968
0.157976
0.157694
0.157714
0.157713
0.157729
0.157727
0.157699
0.157841
0.157812
0.157823
0.157531
0.157552
0.157552
0.157573
0.157573
0.157545
0.15769
0.157661
0.157671
0.157407
0.157402
0.157381
0.157525
0.157505
0.157512
0.157119
0.157215
0.157251
0.066645
0.110285
0.110177
0.134787
0.134963
0.0657958
0.15736
0.157338
0.157342
0.158172
0.158247
0.15825
0.15815
0.158149
0.158143
0.15834
0.158268
0.158266
0.158148
0.158149
0.158205
0.158203
0.15818
0.158343
0.158271
0.158274
0.158024
0.158065
0.158066
0.158076
0.158064
0.158023
0.158148
0.158106
0.158097
0.158085
0.158082
0.158062
0.158152
0.158139
0.158142
0.158026
0.158088
0.158078
0.158072
0.158072
0.158032
0.158155
0.158113
0.158114
0.15786
0.157901
0.1579
0.157912
0.157901
0.157861
0.157982
0.157941
0.157932
0.15793
0.15795
0.15795
0.157891
0.157918
0.157906
0.157986
0.157975
0.157964
0.157943
0.157918
0.157952
0.157867
0.157926
0.157919
0.157911
0.157913
0.157874
0.157992
0.157952
0.157951
0.157698
0.157739
0.157737
0.157754
0.157741
0.157701
0.157821
0.157781
0.157773
0.157773
0.157792
0.157792
0.157595
0.157727
0.157718
0.157791
0.15778
0.157661
0.157712
0.15777
0.157767
0.157753
0.157757
0.157717
0.157835
0.157796
0.157792
0.157534
0.157576
0.157573
0.157593
0.157578
0.157537
0.15766
0.157619
0.157613
0.157614
0.157634
0.157633
0.157496
0.157635
0.157605
0.157634
0.157625
0.157513
0.156759
0.155483
0.155614
0.157552
0.157612
0.157613
0.157594
0.157598
0.157558
0.157678
0.157638
0.157634
0.156869
0.155483
0.155622
0.156526
0.156543
0.157091
0.157387
0.157429
0.15745
0.15743
0.157435
0.157393
0.157517
0.157476
0.157472
0.156729
0.156101
0.156096
0.156107
0.15611
0.156792
0.156957
0.157
0.157044
0.0958949
0.15642
0.156311
0.144245
0.144182
0.0791695
0.155854
0.155907
0.120089
0.157062
0.156738
0.156806
0.156993
0.156766
0.157115
0.158002
0.158007
0.157997
0.158078
0.158046
0.158036
0.158051
0.158051
0.158071
0.158054
0.158037
0.158065
0.158144
0.158142
0.158154
0.158073
0.158084
0.158087
0.157979
0.157964
0.157956
0.158067
0.15806
0.158062
0.158073
0.158052
0.158054
0.158055
0.158058
0.158069
0.157995
0.158006
0.158
0.157718
0.157816
0.157804
0.157894
0.157881
0.15783
0.157891
0.15789
0.15791
0.157699
0.157425
0.157502
0.156523
0.156564
0.157292
0.157554
0.157593
0.157774
0.157918
0.157889
0.157899
0.157819
0.157861
0.15787
0.157955
0.157975
0.157985
0.157878
0.157885
0.157848
0.157956
0.157958
0.157928
0.157531
0.157652
0.157643
0.157708
0.157699
0.157568
0.157733
0.157733
0.157753
0.157065
0.156152
0.156127
0.156407
0.156377
0.157149
0.157223
0.156447
0.156485
0.156113
0.15611
0.157052
0.157765
0.157737
0.157748
0.157586
0.157588
0.157401
0.157804
0.157803
0.157775
0.157012
0.154096
0.153695
0.155782
0.1557
0.157089
0.157179
0.156468
0.156438
0.153573
0.153135
0.156952
0.157079
0.156468
0.156501
0.155762
0.155881
0.156891
0.157613
0.157583
0.157593
0.157395
0.157573
0.157581
0.157519
0.157528
0.157429
0.15738
0.157579
0.157583
0.15759
0.157598
0.157385
0.157652
0.157651
0.157622
0.157166
0.156391
0.156348
0.156579
0.156555
0.157164
0.157122
0.155932
0.155858
0.156302
0.15625
0.157157
0.156823
0.156095
0.156102
0.155663
0.155768
0.15686
0.157407
0.157499
0.157509
0.157457
0.157488
0.15738
0.157491
0.157485
0.157465
0.15709
0.152037
0.151626
0.150536
0.151651
0.157063
0.157156
0.15662
0.156601
0.156621
0.155074
0.155044
0.158092
0.158113
0.158115
0.158113
0.158122
0.158089
0.158155
0.158133
0.158124
0.158143
0.158135
0.158138
0.157426
0.157411
0.157369
0.157495
0.157454
0.157447
0.157447
0.157469
0.157468
0.157396
0.157459
0.157438
0.1575
0.15748
0.157404
0.153259
0.151747
0.151963
0.150363
0.150686
0.152508
0.157216
0.157259
0.157276
0.158143
0.15814
0.158148
0.15809
0.158101
0.158107
0.158122
0.158132
0.158167
0.158087
0.158121
0.15811
0.158116
0.158115
0.158094
0.15745
0.157555
0.157521
0.157595
0.157565
0.157456
0.157572
0.157573
0.157593
0.139151
0.129501
0.128683
0.133837
0.132978
0.142151
0.151904
0.149796
0.150054
0.157444
0.157423
0.157429
0.157303
0.157415
0.157446
0.157371
0.157404
0.157291
0.143782
0.135519
0.134701
0.139038
0.138492
0.145671
0.157197
0.157328
0.157349
0.157284
0.157306
0.157183
0.15732
0.157316
0.157294
0.158254
0.158214
0.158211
0.158218
0.158217
0.158256
0.158162
0.158203
0.158206
0.15818
0.158178
0.158165
0.158255
0.158216
0.158218
0.158211
0.158214
0.158253
0.158108
0.158088
0.158096
0.158127
0.158136
0.15815
0.158101
0.158108
0.158104
0.15813
0.158128
0.158115
0.155232
0.155424
0.156869
0.157096
0.156626
0.156639
0.154193
0.153121
0.153243
0.152164
0.15234
0.153634
0.154033
0.155397
0.155355
0.155465
0.155433
0.154126
0.15678
0.156111
0.15611
0.157986
0.158026
0.158043
0.158003
0.157862
0.157965
0.157941
0.158025
0.158002
0.158101
0.158094
0.158086
0.158098
0.158095
0.158106
0.158013
0.158006
0.158014
0.158033
0.158027
0.15802
0.156886
0.156942
0.157511
0.157424
0.156789
0.156836
0.157788
0.157815
0.157898
0.157856
0.157736
0.157762
0.157772
0.15778
0.15766
0.157893
0.157887
0.157877
0.157907
0.157897
0.157903
0.157854
0.157847
0.157837
0.157867
0.157857
0.157864
0.157638
0.157758
0.157765
0.157939
0.157947
0.157932
0.157973
0.157969
0.157959
0.157989
0.157979
0.157983
0.157933
0.157928
0.157918
0.157948
0.157938
0.157943
0.157891
0.157921
0.15793
0.156266
0.156256
0.157099
0.157114
0.156288
0.156277
0.156245
0.156276
0.157129
0.157091
0.156192
0.156217
0.157594
0.157598
0.15736
0.157741
0.157732
0.157723
0.157751
0.157742
0.157751
0.157704
0.157695
0.157686
0.157714
0.157705
0.157713
0.157331
0.157587
0.15759
0.157816
0.157808
0.157798
0.157827
0.157817
0.157826
0.157779
0.15777
0.15776
0.157788
0.157779
0.157788
0.155412
0.154236
0.15703
0.126361
0.138095
0.138914
0.132283
0.13294
0.118881
0.157076
0.155605
0.155509
0.156929
0.152941
0.152373
0.156268
0.156312
0.157044
0.156986
0.156131
0.156204
0.157566
0.157566
0.157371
0.157666
0.157658
0.157649
0.157677
0.157668
0.157676
0.157628
0.157621
0.157612
0.15764
0.15763
0.157638
0.157397
0.157563
0.157564
0.132817
0.121562
0.120892
0.127684
0.126492
0.136628
0.156074
0.156005
0.157132
0.133851
0.144026
0.144649
0.139571
0.140252
0.128311
0.13865
0.152415
0.152701
0.151788
0.152107
0.137825
0.157152
0.156194
0.156136
0.124806
0.111605
0.111107
0.120062
0.118867
0.130337
0.156074
0.156085
0.156831
0.152581
0.153853
0.153732
0.154568
0.154481
0.153421
0.153592
0.153442
0.151937
0.156853
0.15604
0.156058
0.14577
0.128591
0.126897
0.130582
0.129241
0.146106
0.146608
0.140134
0.139592
0.154162
0.150828
0.1513
0.153358
0.153468
0.154398
0.15723
0.157239
0.157194
0.157326
0.157283
0.157274
0.157259
0.157288
0.157266
0.157332
0.15731
0.15728
0.150089
0.149987
0.118371
0.155958
0.15479
0.154777
0.154849
0.154822
0.15602
0.157331
0.157375
0.157353
0.157417
0.157396
0.15734
0.157405
0.157405
0.157426
0.09366
0.0895057
0.0668951
0.144255
0.130581
0.127381
0.130749
0.130616
0.144178
0.154002
0.148481
0.147574
0.151157
0.151947
0.154176
0.0658524
0.111689
0.122713
0.158198
0.158182
0.15818
0.158186
0.158185
0.1582
0.158151
0.158177
0.158172
0.158162
0.158161
0.158152
0.158199
0.158183
0.158185
0.15818
0.158181
0.158197
0.157941
0.15793
0.157907
0.157943
0.157939
0.157949
0.157918
0.157928
0.157933
0.15794
0.157899
0.157886
0.157747
0.157737
0.157606
0.157783
0.157772
0.157782
0.157753
0.157762
0.157773
0.157822
0.157812
0.157822
0.157792
0.157802
0.157812
0.157645
0.157768
0.157758
0.155385
0.155409
0.156727
0.156108
0.156105
0.156742
0.154856
0.155514
0.155492
0.155547
0.155532
0.154908
0.156506
0.152484
0.150573
0.15238
0.15245
0.156479
0.0950336
0.136914
0.136467
0.158118
0.15813
0.158132
0.158125
0.158127
0.158115
0.158152
0.158139
0.158132
0.157978
0.157971
0.157986
0.158037
0.158048
0.158045
0.158055
0.158051
0.158041
0.158073
0.158062
0.158066
0.158013
0.15801
0.157999
0.15803
0.15802
0.158023
0.158012
0.158016
0.158027
0.157842
0.157829
0.157739
0.157862
0.157854
0.157864
0.157833
0.157843
0.157852
0.157902
0.157896
0.157907
0.157875
0.157886
0.157892
0.157806
0.157868
0.157855
0.157192
0.157314
0.157662
0.154425
0.156456
0.156104
0.157027
0.156816
0.155538