/*--------------------------------*- C++ -*----------------------------------*\
| =========                 |                                                 |
| \\      /  F ield         | OpenFOAM: The Open Source CFD Toolbox           |
|  \\    /   O peration     | Version:  5.x                                   |
|   \\  /    A nd           | Web:      www.OpenFOAM.org                      |
|    \\/     M anipulation  |                                                 |
\*---------------------------------------------------------------------------*/
FoamFile
{
    version     2.0;
    format      ascii;
    class       volScalarField;
    location    "300";
    object      Y;
}
// * * * * * * * * * * * * * * * * * * * * * * * * * * * * * * * * * * * * * //

dimensions      [0 0 0 0 0 0 0];

internalField   nonuniform List<scalar> 
6584
(
0.00632781
0.00632781
0.00632781
0.00632781
0.00632781
0.00632781
0.00632781
0.00632782
0.00632782
0.00632782
0.00632782
0.00632782
0.00632782
0.00632782
0.00632782
0.00632782
0.00632782
0.00632781
0.00632781
0.00632781
0.00632781
0.00632781
0.00632781
0.00632781
0.00632561
0.00632561
0.00632561
0.00632562
0.00632562
0.00632562
0.00632562
0.00632563
0.00632563
0.00632563
0.00632563
0.00632563
0.00632564
0.00632563
0.00632563
0.00632563
0.00632563
0.00632563
0.00632562
0.00632562
0.00632562
0.00632561
0.00632561
0.00632561
0.00632341
0.00632342
0.00632342
0.00632342
0.00632342
0.00632342
0.00632343
0.00632344
0.00632345
0.00632454
0.00632454
0.00632454
0.00632454
0.00632454
0.00632454
0.00632345
0.00632344
0.00632344
0.00632343
0.00632342
0.00632342
0.00632342
0.00632342
0.00632341
0.00632122
0.00632122
0.00632122
0.00632123
0.00632123
0.00632123
0.00632124
0.00632125
0.00632126
0.00632235
0.00632235
0.00632234
0.00632234
0.00632235
0.00632235
0.00632235
0.00632125
0.00632124
0.00632124
0.00632123
0.00632123
0.00632123
0.00632122
0.00632122
0.00631902
0.00631903
0.00631903
0.00631903
0.00631904
0.00631904
0.00631904
0.00631904
0.00632015
0.00632016
0.00632014
0.00632013
0.00632013
0.00632014
0.00632015
0.00632016
0.00632015
0.00631906
0.00631905
0.00631904
0.00631904
0.00631903
0.00631903
0.00631903
0.00631683
0.00631683
0.00631684
0.00631684
0.00631684
0.00631685
0.00631686
0.00631795
0.00631794
0.00631793
0.00631848
0.00631845
0.00631844
0.00631847
0.00631795
0.00631797
0.00631797
0.00631689
0.00631687
0.00631686
0.00631685
0.00631684
0.00631684
0.00631683
0.00631464
0.00631464
0.00631464
0.00631465
0.00631466
0.00631466
0.00631468
0.00631576
0.00631575
0.00631573
0.00631622
0.00631645
0.00631641
0.00631621
0.0063163
0.0063158
0.0063158
0.00631472
0.00631469
0.00631468
0.00631466
0.00631465
0.00631465
0.00631464
0.00631245
0.00631245
0.00631245
0.00631246
0.00631247
0.00631248
0.00631251
0.00631358
0.00631358
0.00631358
0.00631401
0.00631411
0.00631421
0.00631414
0.00631366
0.00631365
0.00631257
0.00631252
0.0063125
0.00631248
0.00631247
0.00631246
0.00631245
0.00631026
0.00631026
0.00631027
0.00631028
0.00631029
0.00631031
0.00631034
0.00631142
0.00631142
0.00631145
0.00631188
0.00631198
0.00631211
0.00631205
0.00631155
0.00631152
0.00631042
0.00631036
0.00631032
0.0063103
0.00631028
0.00631027
0.00631026
0.00630807
0.00630807
0.00630808
0.00630809
0.00630811
0.00630813
0.00630817
0.00630926
0.00630928
0.00630934
0.00630981
0.00630998
0.00631019
0.00631002
0.00630947
0.0063094
0.00630827
0.00630819
0.00630815
0.00630812
0.0063081
0.00630808
0.00630807
0.00630588
0.00630588
0.00630589
0.00630591
0.00630593
0.00630596
0.00630601
0.0063071
0.00630714
0.00630723
0.00630774
0.00630799
0.00630829
0.00630801
0.00630739
0.00630728
0.00630613
0.00630603
0.00630598
0.00630594
0.00630591
0.00630589
0.00630588
0.00630369
0.00630369
0.00630371
0.00630372
0.00630375
0.00630378
0.00630384
0.00630494
0.006305
0.00630511
0.00630565
0.00630595
0.00630631
0.00630596
0.00630529
0.00630516
0.00630398
0.00630387
0.0063038
0.00630376
0.00630372
0.0063037
0.00630369
0.0063015
0.00630151
0.00630152
0.00630154
0.00630157
0.00630161
0.00630167
0.00630277
0.00630284
0.00630296
0.00630352
0.00630381
0.00630421
0.00630386
0.00630317
0.00630302
0.00630182
0.0063017
0.00630163
0.00630157
0.00630153
0.00630151
0.00630149
0.0062993
0.00629932
0.00629933
0.00629936
0.00629939
0.00629943
0.0062995
0.00629954
0.00630067
0.00630077
0.0063013
0.00630151
0.00496033
0.00630171
0.0063017
0.00630102
0.00630087
0.00629965
0.00629953
0.00629945
0.00629938
0.00629934
0.00629932
0.0062993
0.00629711
0.00629713
0.00629714
0.00629717
0.0062972
0.00629725
0.00629731
0.00629733
0.00629845
0.00629856
0.00629909
0.00629901
0.00593425
0.00629951
0.00629892
0.00629884
0.00629755
0.00629746
0.00629733
0.00629726
0.0062972
0.00629715
0.00629712
0.0062971
0.00629492
0.00629494
0.00629496
0.00629498
0.00629502
0.00629506
0.00629511
0.00629514
0.00629626
0.00629637
0.00629637
0.00629679
0.00596047
0.00629676
0.00629673
0.00629666
0.00629537
0.00629527
0.00629514
0.00629506
0.006295
0.00629495
0.00629492
0.0062949
0.00629273
0.00629275
0.00629277
0.0062928
0.00629283
0.00629287
0.00629292
0.00629296
0.00629303
0.00629419
0.00629418
0.00629091
0.00613618
0.00629457
0.00629455
0.00629447
0.00629318
0.00629308
0.00629294
0.00629286
0.00629279
0.00629274
0.00629272
0.00629269
0.00629054
0.00629056
0.00629058
0.00629061
0.00629064
0.00629067
0.00629073
0.00629078
0.00629085
0.0062909
0.006292
0.00628721
0.00613802
0.00629238
0.00629126
0.00629111
0.00629098
0.00629088
0.00629074
0.00629066
0.00629059
0.00629054
0.00629051
0.00629047
0.00628835
0.00628836
0.00628839
0.00628842
0.00628845
0.00628848
0.00628854
0.0062886
0.00628867
0.00628872
0.00628814
0.00611279
0.00621645
0.00628911
0.00628907
0.00628892
0.00628879
0.00628868
0.00628854
0.00628845
0.00628838
0.00628833
0.0062883
0.00628826
0.00628616
0.00628617
0.0062862
0.00628623
0.00628626
0.0062863
0.00628636
0.00628642
0.00628649
0.00628654
0.00628541
0.00611118
0.00621465
0.00628692
0.00628689
0.00628673
0.00628659
0.00628648
0.00628634
0.00628625
0.00628618
0.00628612
0.00628609
0.00628605
0.00628396
0.00628398
0.006284
0.00628404
0.00628408
0.00628411
0.00628418
0.00628424
0.00628432
0.00628435
0.00628269
0.00610953
0.00621279
0.00628473
0.0062847
0.00628454
0.0062844
0.00628428
0.00628414
0.00628404
0.00628397
0.00628391
0.00628388
0.00628384
0.00628177
0.00628179
0.00628181
0.00628185
0.00628189
0.00628193
0.006282
0.00628206
0.00628214
0.00628217
0.00627997
0.00610783
0.00621087
0.00628255
0.00628251
0.00628236
0.0062822
0.00628208
0.00628194
0.00628184
0.00628176
0.0062817
0.00628167
0.00628163
0.00627958
0.0062796
0.00627962
0.00627966
0.0062797
0.00627974
0.00627982
0.00627988
0.00627997
0.00627999
0.00627726
0.00610611
0.00620891
0.00628036
0.00628033
0.00628017
0.00628001
0.00627989
0.00627973
0.00627963
0.00627955
0.00627949
0.00627945
0.00627941
0.00627739
0.00627741
0.00627743
0.00627747
0.00627752
0.00627756
0.00627764
0.00627771
0.0062778
0.00627781
0.00627456
0.00610436
0.00620692
0.00627818
0.00627815
0.00627798
0.00627781
0.00627769
0.00627753
0.00627742
0.00627734
0.00627728
0.00627724
0.0062772
0.0062752
0.00627522
0.00627525
0.00627528
0.00627533
0.00627538
0.00627546
0.00627553
0.00627563
0.00627563
0.00627188
0.00610259
0.00620491
0.00627599
0.00627596
0.0062758
0.00627562
0.00627549
0.00627532
0.00627522
0.00627513
0.00627507
0.00627503
0.00627498
0.00627301
0.00627303
0.00627306
0.0062731
0.00627315
0.00627319
0.00627329
0.00627336
0.00627346
0.00627345
0.00626915
0.00610085
0.0062029
0.00627381
0.00627378
0.00627361
0.00627342
0.00627329
0.00627312
0.00627301
0.00627292
0.00627286
0.00627281
0.00627277
0.00627082
0.00627084
0.00627087
0.00627091
0.00627096
0.00627101
0.00627111
0.00627118
0.00627129
0.00627126
0.00626637
0.00609914
0.00620092
0.00627163
0.00627161
0.00627143
0.00627123
0.00627109
0.00627092
0.00627081
0.00627072
0.00627065
0.00627061
0.00627056
0.00626863
0.00626865
0.00626868
0.00626872
0.00626878
0.00626883
0.00626893
0.00626901
0.00626912
0.00626908
0.0062636
0.00609742
0.00619893
0.00626945
0.00626943
0.00626925
0.00626904
0.0062689
0.00626872
0.0062686
0.00626851
0.00626844
0.0062684
0.00626835
0.00626644
0.00626646
0.00626649
0.00626653
0.00626659
0.00626665
0.00626675
0.00626684
0.00626696
0.00626689
0.00626085
0.00609569
0.00619693
0.00626728
0.00626726
0.00626707
0.00626686
0.0062667
0.00626652
0.0062664
0.0062663
0.00626623
0.00626619
0.00626614
0.00626425
0.00626427
0.0062643
0.00626435
0.00626441
0.00626447
0.00626458
0.00626467
0.00626479
0.00626471
0.0062581
0.00609395
0.00619493
0.0062651
0.00626508
0.00626489
0.00626467
0.00626451
0.00626432
0.00626419
0.0062641
0.00626402
0.00626397
0.00626393
0.00626206
0.00626208
0.00626212
0.00626216
0.00626223
0.00626229
0.00626241
0.0062625
0.00626262
0.00626252
0.00625536
0.00609221
0.00619291
0.00626292
0.00626291
0.00626271
0.00626248
0.00626231
0.00626212
0.00626199
0.00626189
0.00626181
0.00626176
0.00626172
0.00625987
0.0062599
0.00625993
0.00625998
0.00626004
0.00626011
0.00626023
0.00626033
0.00626046
0.00626033
0.00625262
0.00609047
0.0061909
0.00626074
0.00626073
0.00626052
0.00626029
0.00626011
0.00625992
0.00625979
0.00625968
0.0062596
0.00625955
0.00625951
0.00625768
0.00625771
0.00625774
0.00625779
0.00625786
0.00625793
0.00625806
0.00625816
0.00625829
0.00625814
0.00624988
0.00608872
0.00618888
0.00625857
0.00625856
0.00625834
0.0062581
0.00625792
0.00625771
0.00625758
0.00625747
0.00625739
0.00625734
0.00625729
0.00625549
0.00625552
0.00625556
0.00625561
0.00625568
0.00625576
0.00625589
0.00625599
0.00625613
0.00625594
0.00624714
0.00608698
0.00618686
0.00625639
0.00625638
0.00625616
0.00625591
0.00625572
0.00625551
0.00625538
0.00625526
0.00625518
0.00625513
0.00625508
0.00625331
0.00625333
0.00625337
0.00625342
0.0062535
0.00625358
0.00625372
0.00625382
0.00625396
0.00625375
0.00624438
0.00608524
0.00618485
0.00625421
0.00625421
0.00625398
0.00625372
0.00625353
0.00625331
0.00625317
0.00625305
0.00625297
0.00625291
0.00625287
0.00625112
0.00625115
0.00625119
0.00625124
0.00625132
0.00625141
0.00625155
0.00625166
0.0062518
0.00625155
0.00624161
0.00608351
0.00618284
0.00625204
0.00625203
0.0062518
0.00625153
0.00625133
0.00625111
0.00625096
0.00625085
0.00625076
0.0062507
0.00625066
0.00631223
0.00631233
0.00631415
0.00631023
0.00631042
0.00631209
0.00630824
0.00630854
0.00631019
0.00630621
0.00630658
0.0063083
0.00630408
0.0063045
0.00630632
0.0063018
0.00488676
0.00491235
0.00630231
0.00630423
0.00631439
0.00631641
0.00631443
0.00631646
0.00631241
0.00631227
0.00631417
0.00631307
0.00631408
0.00631236
0.00631253
0.00631409
0.00631032
0.00631024
0.00631201
0.00631122
0.0063093
0.00631158
0.00630702
0.00631139
0.00631043
0.00631051
0.00631202
0.00630826
0.00630825
0.00630999
0.00630924
0.00630173
0.0063036
0.00626131
0.00628578
0.00630853
0.00630852
0.00631001
0.00630618
0.0063062
0.006308
0.00630724
0.00630256
0.00630194
0.00629378
0.00627295
0.00630656
0.0063065
0.00630802
0.00630268
0.00630299
0.00630448
0.00630442
0.00630599
0.00630251
0.00630298
0.00629956
0.00522499
0.0048923
0.00564116
0.00630005
0.00630201
0.00631182
0.00631296
0.00631302
0.00631292
0.00631105
0.00631408
0.00631306
0.00631156
0.006313
0.00631308
0.00631298
0.0063119
0.00630413
0.00630875
0.00631097
0.00630363
0.00628624
0.00631048
0.0063045
0.00628734
0.0063068
0.00631113
0.0063089
0.00630355
0.00631178
0.00630906
0.00631137
0.00630185
0.00630168
0.00630899
0.00628069
0.00628812
0.00628543
0.00628039
0.00627216
0.00625992
0.00630925
0.00630102
0.00630195
0.00630344
0.00630117
0.00630948
0.00628521
0.00629175
0.00628871
0.00628403
0.00630279
0.00629497
0.00630732
0.00630437
0.00630536
0.006302
0.00630422
0.00630757
0.0062965
0.00629826
0.00629245
0.00629612
0.00630301
0.00630279
0.00630532
0.00630487
0.00630555
0.00629904
0.00629559
0.00629843
0.00629903
0.00630152
0.00630241
0.00631328
0.0063131
0.00631413
0.00631323
0.00631397
0.00630406
0.00630407
0.00630594
0.00630516
0.00630307
0.00630309
0.00623598
0.00620218
0.00630229
0.00630228
0.00630389
0.00631401
0.00631327
0.00631413
0.00631311
0.00631334
0.00630306
0.00630265
0.00630698
0.00492681
0.00513173
0.00581472
0.00593796
0.00514224
0.00537764
0.00619565
0.00613439
0.00630529
0.00630478
0.00630407
0.00595227
0.00602507
0.00630396
0.00630309
0.00630342
0.00631531
0.00631519
0.00631423
0.00631424
0.0063152
0.00631531
0.00631311
0.00631349
0.00631322
0.00631402
0.00631332
0.00631363
0.00630869
0.00630965
0.00627547
0.0062767
0.00628667
0.00628424
0.00630219
0.00613651
0.00630388
0.00626209
0.0062398
0.00624437
0.00626445
0.00630283
0.00628825
0.00631242
0.00624069
0.00630437
0.00622701
0.00631218
0.00630625
0.00631322
0.00631348
0.0063128
0.00629498
0.00631235
0.00631244
0.006294
0.0062929
0.00630875
0.00630832
0.0062955
0.00629659
0.00630429
0.0063107
0.00631107
0.00631022
0.00631058
0.00630421
0.00631069
0.00631169
0.00631207
0.00631119
0.00631157
0.00631032
0.00628416
0.00628458
0.00628113
0.00628071
0.00624272
0.0062452
0.00629972
0.00630884
0.00630918
0.00630838
0.00630872
0.00629964
0.00630254
0.00630975
0.0063101
0.00630929
0.00630963
0.00630241
0.00493406
0.00628841
0.005123
0.0048207
0.00542444
0.00514229
0.00628932
0.00627895
0.00483147
0.00628021
0.00630051
0.00629998
0.00630304
0.00630793
0.00630827
0.00630746
0.00630781
0.00630331
0.0056304
0.00578782
0.00629427
0.00566211
0.00544426
0.00584978
0.0056865
0.00629479
0.00540149
0.00560671
0.00630301
0.00620535
0.00624051
0.00614412
0.00619829
0.00630298
0.00611924
0.0060215
0.00604862
0.00507693
0.00603355
0.00601078
0.0052654
0.00626158
0.00626417
0.00631382
0.00630188
0.00630182
0.0063038
0.00630299
0.00630222
0.00630293
0.00555513
0.00629782
0.00630047
0.00631383
0.00630266
0.00630304
0.00630489
0.00504733
0.00508807
0.00473245
0.00601753
0.00601535
0.00512755
0.00519595
0.00624893
0.00626065
0.0042751
0.0063146
0.00631464
0.0063141
0.00631407
0.00631464
0.0063146
0.00631048
0.0063115
0.00631111
0.00630731
0.0063065
0.00631063
0.00630214
0.00630943
0.00630906
0.00630993
0.00630955
0.00630239
0.00626806
0.00628216
0.00629077
0.00627486
0.0059864
0.00592974
0.00630276
0.00626659
0.00628087
0.00628812
0.00628759
0.00518988
0.00631363
0.0063134
0.00631406
0.0063119
0.00630899
0.0063072
0.00631257
0.00631271
0.00631311
0.00631219
0.00631258
0.00631243
0.00630599
0.00631045
0.00631006
0.00631098
0.00631058
0.00630664
0.00629941
0.00612171
0.00623154
0.00603701
0.00605802
0.0062889
0.00624245
0.00625405
0.00630636
0.00629078
0.0063001
0.00630629
0.00631054
0.00631069
0.00630957
0.00630979
0.00630385
0.00630894
0.00630858
0.00630167
0.00628241
0.0059716
0.00590255
0.00628328
0.00600567
0.00603083
0.0058903
0.00590764
0.00627992
0.00626056
0.00625118
0.00630031
0.00630843
0.00630857
0.00630764
0.00630805
0.00630108
0.00630308
0.00630929
0.0063095
0.00630862
0.00630877
0.00630175
0.00630198
0.00624331
0.00625635
0.0062259
0.00621783
0.00629746
0.00630546
0.00630698
0.00630734
0.00630649
0.00630686
0.00630545
0.00629743
0.00598038
0.00586849
0.00609658
0.00606292
0.00629767
0.00542349
0.00546794
0.0062988
0.00613248
0.00610668
0.00536975
0.00541023
0.00605567
0.00600114
0.00631357
0.00631382
0.00631367
0.00592725
0.0062235
0.00596406
0.0059922
0.00598377
0.00621916
0.00631372
0.00631356
0.00631389
0.00631331
0.00631362
0.00497225
0.00503032
0.00505433
0.005049
0.00587492
0.00519041
0.00514859
0.00527634
0.0052021
0.00589076
0.00520137
0.00524694
0.00617292
0.00616256
0.00598845
0.00538834
0.00531494
0.00520259
0.00523879
0.00631274
0.00631317
0.00631343
0.00631277
0.00631309
0.00631254
0.00630743
0.00631047
0.00626939
0.0062809
0.00629005
0.00627615
0.00615045
0.00626182
0.00625246
0.00627164
0.00626477
0.00614784
0.00623094
0.00622208
0.00624955
0.00623598
0.00625422
0.0060779
0.0061117
0.00601618
0.00606104
0.00625093
0.00589872
0.00591464
0.00627182
0.00631038
0.00630809
0.0063125
0.00631105
0.00627997
0.00629405
0.00628933
0.00630635
0.0062961
0.00631182
0.00631315
0.00631272
0.00631104
0.00630939
0.0063113
0.00630942
0.00631201
0.00631
0.00631203
0.00631264
0.00631043
0.00631179
0.0063127
0.00631223
0.00631148
0.00608542
0.00610518
0.00629781
0.00592685
0.00584208
0.00613945
0.00594483
0.00571691
0.00563661
0.00581568
0.00575084
0.00628988
0.0060653
0.00608028
0.00623027
0.00621011
0.00628689
0.00624748
0.00618618
0.00616312
0.00620656
0.00619203
0.00630689
0.00625667
0.00626388
0.00629195
0.00629949
0.00631018
0.00631045
0.00630522
0.00630395
0.00630987
0.0063101
0.00598925
0.00598351
0.00628292
0.00550715
0.00550448
0.0051862
0.00546812
0.00547098
0.00557568
0.00549675
0.00547377
0.00596799
0.00599717
0.00628265
0.00550628
0.00542189
0.0056167
0.00553222
0.00526252
0.00517429
0.00538936
0.00530148
0.00628006
0.00592197
0.00595644
0.00625251
0.00624921
0.00630825
0.00630838
0.00630014
0.00630048
0.00630809
0.0063082
0.00630905
0.00630923
0.00630295
0.0063019
0.00630882
0.00630899
0.00492967
0.00497708
0.00603591
0.00608038
0.00597377
0.00601966
0.00489328
0.00531441
0.00613589
0.00606936
0.00609222
0.00612576
0.00525619
0.00574759
0.00578261
0.0056361
0.00573499
0.00487485
0.00590782
0.00596007
0.00579995
0.00588129
0.00486641
0.00623198
0.00624012
0.00630168
0.00619657
0.00621334
0.0062179
0.00619581
0.00621313
0.00629806
0.00621283
0.00622503
0.00569328
0.00495824
0.00496444
0.00511931
0.00497732
0.00571612
0.00505258
0.00547405
0.00497064
0.00550831
0.00617251
0.00627944
0.00627375
0.00628626
0.00628134
0.00617714
0.00609545
0.00610472
0.00548762
0.00553459
0.00526745
0.00535324
0.00609286
0.00606822
0.00631449
0.00631463
0.00631627
0.00630314
0.00630289
0.00630203
0.00631427
0.00631431
0.00631397
0.00631391
0.00631429
0.00631428
0.00631529
0.00631524
0.00631429
0.00631203
0.00631163
0.00631079
0.00630712
0.00630057
0.00629962
0.00626297
0.00628454
0.00630798
0.00630762
0.00630218
0.00624506
0.00624077
0.00627351
0.00625921
0.00626581
0.00630347
0.00631239
0.00631255
0.00631216
0.00630197
0.00630509
0.00631149
0.00631279
0.00631239
0.00631278
0.00631015
0.00628673
0.00630057
0.00628848
0.00629864
0.00629761
0.00630618
0.00630708
0.00630716
0.00630366
0.00631087
0.00631103
0.00630939
0.00630169
0.00630846
0.0063081
0.00602206
0.00599182
0.00628641
0.00627067
0.00625081
0.0062491
0.00625852
0.00630086
0.006306
0.00630604
0.00630332
0.00630693
0.006307
0.00630609
0.00630614
0.00630134
0.00627657
0.00606915
0.00603724
0.00630213
0.00630747
0.00630755
0.00630516
0.00630597
0.00630635
0.00503391
0.00503873
0.00616014
0.00614015
0.00629888
0.0050271
0.00502992
0.00628214
0.00628496
0.00630209
0.00631332
0.00631326
0.00492506
0.00496076
0.00497502
0.00511636
0.00515348
0.00492731
0.00494431
0.00510175
0.00507153
0.00534485
0.00608363
0.00607308
0.00614386
0.00544805
0.00540113
0.00599832
0.00631472
0.00631467
0.00631412
0.00631284
0.00631302
0.00631318
0.0063133
0.00631213
0.00631233
0.00631352
0.00631377
0.00631363
0.00630515
0.00630467
0.006308
0.00631009
0.00630855
0.0063077
0.00627255
0.00627794
0.0062552
0.00625832
0.00628826
0.0062812
0.00624175
0.00624885
0.00616195
0.0061633
0.0062005
0.00619542
0.00613646
0.00616667
0.00617053
0.00630359
0.00626845
0.00627569
0.00628212
0.00625567
0.00629225
0.00628795
0.00630957
0.0063078
0.00630036
0.00618132
0.00616496
0.006277
0.00624605
0.00620208
0.0063134
0.00631324
0.00631244
0.0063123
0.0063105
0.00631145
0.00630025
0.00631114
0.0063118
0.00626623
0.00627879
0.00630987
0.00614367
0.00612418
0.00629443
0.00629764
0.00631153
0.00631168
0.00631121
0.00630953
0.00631119
0.00631136
0.00628593
0.00598836
0.00598733
0.0062428
0.00624651
0.00630653
0.00630659
0.00630268
0.00630221
0.0063064
0.00630646
0.00494119
0.00509914
0.005471
0.00549935
0.00517016
0.00519824
0.004815
0.00609372
0.00607553
0.00627775
0.00480303
0.00477025
0.00497857
0.00498304
0.00484684
0.00513051
0.00515004
0.00475126
0.00477021
0.00630731
0.00630739
0.00630225
0.00630375
0.00630714
0.00630723
0.00555603
0.00611084
0.00612374
0.00608346
0.00609718
0.00551884
0.00622154
0.00628281
0.00628758
0.00628621
0.00628461
0.00622697
0.00615586
0.00621398
0.00620706
0.00610271
0.00608764
0.00612154
0.00512774
0.00514867
0.00516047
0.00502291
0.00605656
0.00554389
0.00547218
0.00560915
0.00556189
0.00599937
0.00586996
0.0058762
0.00612074
0.00614909
0.00626929
0.00631374
0.00631383
0.00631362
0.00504924
0.00506033
0.00548307
0.00547936
0.00469159
0.00516614
0.00509207
0.00509372
0.00506368
0.0050802
0.00518585
0.00429456
0.00607356
0.00609126
0.00631437
0.00631432
0.00631396
0.00630236
0.00630148
0.00630721
0.00630482
0.00630756
0.00630947
0.00630661
0.00630716
0.00626585
0.00628334
0.00622339
0.00622836
0.00622874
0.0062232
0.00627408
0.00623763
0.00623573
0.00597384
0.0058789
0.00587746
0.00589575
0.00589196
0.00595783
0.00630848
0.00631049
0.00631063
0.00631011
0.00631037
0.00630792
0.00628962
0.0063045
0.00629645
0.0062936
0.00630376
0.00630723
0.00630732
0.00625053
0.00625176
0.00626749
0.00625418
0.00630592
0.00630596
0.00630056
0.00630679
0.00630686
0.0063032
0.00630157
0.00630618
0.00630624
0.00622628
0.00624321
0.00623635
0.00624889
0.00624677
0.0062246
0.00504492
0.00505557
0.00502879
0.00502625
0.0053837
0.00517496
0.00516303
0.00589597
0.00589565
0.00603905
0.00592613
0.00594933
0.00588388
0.00590189
0.00601969
0.0063135
0.00631342
0.00631347
0.00631346
0.00631375
0.00631378
0.00631388
0.00631359
0.00631366
0.00631365
0.00595591
0.00610105
0.00609263
0.00612461
0.00611239
0.0059656
0.00601933
0.00606119
0.00604373
0.00608588
0.00607708
0.00600477
0.00631365
0.00631372
0.00631362
0.00631266
0.00631197
0.00631343
0.00631325
0.00493355
0.00508712
0.00498355
0.00497853
0.00505319
0.00505121
0.00536088
0.00538342
0.00516645
0.00491765
0.00491371
0.0051709
0.00495878
0.00494804
0.00495543
0.00529911
0.00501362
0.00495286
0.00609188
0.00610759
0.00618197
0.00604821
0.00605288
0.00603603
0.00603931
0.0061525
0.00606863
0.00607525
0.00520943
0.00502663
0.00504526
0.0050102
0.00501176
0.00522004
0.00631297
0.00631307
0.0063129
0.00631209
0.00631249
0.00631284
0.00630142
0.00630763
0.006304
0.00630321
0.00630522
0.00630594
0.00630357
0.00630444
0.00627076
0.00627924
0.0062345
0.00623606
0.00623039
0.00623252
0.00628928
0.00625995
0.00626107
0.00623512
0.00623722
0.00627828
0.00623593
0.00617609
0.00616568
0.00614181
0.00619117
0.00618568
0.00622726
0.00617572
0.00617438
0.00619208
0.00618267
0.00622466
0.00624607
0.00620043
0.0062058
0.0061805
0.00619093
0.00624141
0.00617156
0.00603102
0.0061439
0.00613538
0.00588775
0.00589605
0.00626792
0.00629595
0.00629412
0.00626377
0.00628691
0.00630309
0.00629883
0.00620819
0.00619394
0.00626111
0.00626427
0.00629101
0.00623859
0.00622358
0.00630554
0.00630789
0.0063117
0.00630944
0.00630253
0.00629309
0.006302
0.00631096
0.00631166
0.00631187
0.00631085
0.0063112
0.00630972
0.00630799
0.0063095
0.00631221
0.00631162
0.00631133
0.00631237
0.00631182
0.0063124
0.00631077
0.00631096
0.00631008
0.00631106
0.00590458
0.00587167
0.00608492
0.00584126
0.00587003
0.00578105
0.00596069
0.00568672
0.00565998
0.00579242
0.00577236
0.00621995
0.00612398
0.00614612
0.00607977
0.00610112
0.00621415
0.0062823
0.00624536
0.00625589
0.00615899
0.0062204
0.00627131
0.00610613
0.00607128
0.00618017
0.00593958
0.00596174
0.00590138
0.00592026
0.00617341
0.00620292
0.00604392
0.00606072
0.00598651
0.00601396
0.00619773
0.00629336
0.00629864
0.00551727
0.00520381
0.00524764
0.00511477
0.00515732
0.00551193
0.00525933
0.00527149
0.00527055
0.00537086
0.00548626
0.00488514
0.00492645
0.00496085
0.00488955
0.00552101
0.00548919
0.00504007
0.00507578
0.00497082
0.0050077
0.0054818
0.00548422
0.0054588
0.00559593
0.00556205
0.00522753
0.0051957
0.005361
0.00533671
0.00624625
0.00624781
0.00630281
0.00630666
0.00630672
0.00630629
0.00630635
0.00630205
0.00494291
0.00537325
0.0054309
0.00505722
0.0048322
0.00524261
0.00530512
0.00487482
0.00483752
0.00575831
0.00525113
0.00524902
0.00568544
0.00517841
0.00507492
0.00524383
0.00522497
0.00571657
0.0049597
0.00491534
0.00505195
0.0051031
0.00486344
0.00483955
0.0049499
0.00623564
0.00626837
0.0062658
0.0062721
0.00627029
0.00623788
0.00620226
0.00621017
0.00621003
0.00619522
0.0061951
0.00620142
0.00621229
0.00625389
0.00625096
0.00626219
0.0062579
0.00621747
0.00495531
0.00514494
0.00516566
0.00511447
0.00512935
0.00495869
0.00506848
0.0052875
0.00532979
0.00519676
0.00523974
0.00501836
0.00504306
0.0049071
0.00491399
0.00493192
0.00491753
0.00497418
0.0050648
0.00509565
0.00495042
0.00500846
0.00496641
0.00622437
0.00621991
0.0061665
0.00609377
0.00611525
0.00507786
0.0051134
0.00530074
0.00507898
0.00503329
0.00514813
0.00512369
0.00533092
0.00503297
0.00503245
0.00587772
0.00588127
0.00631904
0.00631903
0.00632014
0.00631901
0.00631901
0.00632013
0.00631901
0.00631901
0.00632013
0.00631903
0.00631904
0.00632014
0.00631683
0.00631681
0.00631792
0.00631678
0.00631676
0.00631847
0.00631674
0.00631671
0.00631844
0.00631671
0.00631675
0.00631845
0.00631678
0.00631682
0.00631849
0.00631685
0.00631687
0.00631795
0.00631465
0.0063146
0.00631625
0.00631456
0.00631445
0.00631618
0.00631556
0.00631553
0.00631644
0.00631547
0.00631551
0.00631641
0.00631563
0.00631567
0.00631622
0.00631467
0.00631472
0.00631579
0.00631251
0.00631245
0.00631406
0.00631347
0.00631346
0.006314
0.00631383
0.00631381
0.00631409
0.00631339
0.0063135
0.00631431
0.00631256
0.00631263
0.00631367
0.00631039
0.00631035
0.00631192
0.00631136
0.00631136
0.00631188
0.00631172
0.00631172
0.00631198
0.00631138
0.00631146
0.00631221
0.00631052
0.00631056
0.00631159
0.00630829
0.00630827
0.00630983
0.00630929
0.00630931
0.00630982
0.00630973
0.00630973
0.00630997
0.00630948
0.00630951
0.00631024
0.00630851
0.0063085
0.00630953
0.00630617
0.00630618
0.00630775
0.00630722
0.00630726
0.00630777
0.00630774
0.00630775
0.006308
0.00630756
0.00630754
0.00630828
0.00630648
0.00630643
0.00630747
0.00630404
0.00630405
0.00630565
0.00630569
0.00630569
0.00630595
0.00630554
0.00630547
0.00630625
0.00630439
0.00630433
0.00630539
0.00630187
0.00630188
0.00630351
0.0063034
0.00630339
0.00630392
0.00630224
0.0063022
0.00630327
0.00629965
0.00629962
0.00630072
0.00629964
0.00629959
0.00630124
0.00630067
0.00629953
0.00630036
0.0051082
0.0062259
0.00623298
0.00630007
0.0063001
0.00630174
0.00630002
0.00630004
0.00630112
0.00629746
0.00629743
0.00629852
0.00629746
0.00629738
0.00629904
0.00629735
0.00558771
0.0055753
0.00595434
0.00629783
0.0062995
0.00629784
0.00629789
0.00629952
0.00629782
0.00629784
0.00629894
0.00629527
0.00629523
0.00629633
0.00629319
0.00592754
0.00559123
0.0061352
0.00629542
0.00629727
0.00629567
0.0062957
0.0062968
0.00631223
0.00631249
0.00631249
0.00631258
0.00631267
0.00631227
0.00631413
0.00631386
0.00631388
0.00631022
0.00631047
0.00631047
0.00631066
0.00631066
0.0063103
0.00631214
0.00631176
0.00631185
0.00630825
0.0063085
0.00630849
0.00630878
0.0063088
0.00630845
0.00631018
0.00630984
0.00630996
0.00630622
0.00630648
0.00630647
0.00630683
0.00630689
0.00630653
0.00630834
0.00630798
0.00630806
0.00630476
0.00630474
0.00630447
0.00630628
0.00630603
0.00630607
0.00630063
0.00630197
0.0063027
0.00469041
0.00539186
0.00539941
0.00581453
0.00581622
0.00430605
0.00630421
0.00630394
0.00630396
0.00631429
0.00631523
0.00631527
0.006314
0.006314
0.00631391
0.00631641
0.0063155
0.00631547
0.00631399
0.00631401
0.00631472
0.0063147
0.00631441
0.00631645
0.00631555
0.00631558
0.0063124
0.00631293
0.00631294
0.00631306
0.00631291
0.00631239
0.00631398
0.00631344
0.00631333
0.00631321
0.00631316
0.00631289
0.00631405
0.00631389
0.00631393
0.00631247
0.00631324
0.00631312
0.00631304
0.00631304
0.00631254
0.00631408
0.00631356
0.00631356
0.00631033
0.00631085
0.00631084
0.00631099
0.00631085
0.00631034
0.00631187
0.00631136
0.00631124
0.00631122
0.00631147
0.00631147
0.00630974
0.0063108
0.00631059
0.00631187
0.00631171
0.00631134
0.00631075
0.00631005
0.00631112
0.00631048
0.00631122
0.00631114
0.00631101
0.00631104
0.00631055
0.00631203
0.00631154
0.00631151
0.00630829
0.0063088
0.00630878
0.006309
0.00630882
0.00630832
0.00630984
0.00630933
0.00630925
0.00630924
0.00630948
0.00630948
0.00630181
0.00630742
0.00630731
0.00630837
0.00630816
0.00630312
0.00630853
0.00630927
0.00630924
0.00630902
0.00630908
0.00630858
0.00631006
0.00630957
0.00630952
0.00630622
0.00630674
0.0063067
0.00630698
0.00630677
0.00630625
0.00630781
0.00630729
0.00630724
0.00630725
0.0063075
0.00630749
0.00630227
0.00630749
0.00630713
0.00630651
0.00630644
0.00630202
0.0062926
0.00626614
0.0062696
0.00630652
0.00630728
0.00630731
0.00630701
0.00630708
0.00630657
0.00630808
0.00630758
0.00630752
0.00630254
0.00628441
0.00628834
0.0062963
0.00629696
0.00630317
0.00630445
0.00630498
0.00630528
0.00630495
0.00630501
0.00630448
0.00630605
0.00630553
0.00630547
0.0063026
0.00630035
0.00630042
0.00629934
0.00629959
0.00630294
0.00629891
0.00629925
0.00630012
0.00519774
0.00628731
0.0062863
0.00601829
0.00602377
0.00491576
0.00629698
0.00629761
0.00557801
0.00630061
0.00630044
0.00629978
0.00630174
0.00630072
0.00630117
0.00631203
0.00631218
0.00631203
0.00631309
0.00631269
0.00631254
0.00631275
0.00631275
0.00631301
0.00631277
0.00631224
0.00631286
0.00631393
0.0063139
0.00631406
0.00631299
0.00631316
0.0063132
0.00631168
0.00631123
0.00631106
0.00631298
0.00631289
0.00631293
0.00631307
0.00631281
0.00631282
0.00631284
0.00631288
0.00631302
0.00631209
0.00631222
0.00631211
0.00630472
0.00630883
0.00630859
0.00631037
0.00631012
0.00630806
0.00631072
0.00631072
0.00631097
0.0063025
0.00629075
0.00629396
0.00625375
0.00625529
0.00628707
0.00629604
0.00629751
0.0063052
0.00631114
0.00631078
0.0063109
0.0063086
0.0063098
0.00630998
0.00631134
0.00631182
0.00631195
0.00631012
0.00631023
0.00630917
0.00631161
0.00631163
0.00631126
0.00630178
0.00630666
0.00630659
0.0063072
0.0063071
0.00630167
0.00630874
0.00630874
0.00630899
0.00628129
0.00624207
0.00624053
0.00625823
0.00625668
0.00628751
0.00628468
0.00625085
0.00625228
0.00623949
0.00623888
0.00628004
0.00630926
0.00630891
0.00630901
0.00630617
0.00630614
0.00630183
0.00630972
0.00630972
0.00630937
0.00628634
0.00618477
0.00616605
0.00624874
0.00624537