/*--------------------------------*- C++ -*----------------------------------*\
| =========                 |                                                 |
| \\      /  F ield         | OpenFOAM: The Open Source CFD Toolbox           |
|  \\    /   O peration     | Version:  5.x                                   |
|   \\  /    A nd           | Web:      www.OpenFOAM.org                      |
|    \\/     M anipulation  |                                                 |
\*---------------------------------------------------------------------------*/
FoamFile
{
    version     2.0;
    format      ascii;
    class       volScalarField;
    location    "300";
    object      YSat;
}
// * * * * * * * * * * * * * * * * * * * * * * * * * * * * * * * * * * * * * //

dimensions      [0 0 0 0 0 0 0];

internalField   nonuniform List<scalar> 
6584
(
0.00431405
0.00431405
0.00431405
0.00431405
0.00431405
0.00431405
0.00431405
0.00431405
0.00431405
0.00431405
0.00431405
0.00431405
0.00431405
0.00431405
0.00431405
0.00431405
0.00431405
0.00431405
0.00431405
0.00431405
0.00431405
0.00431405
0.00431405
0.00431405
0.00431405
0.00431405
0.00431405
0.00431405
0.00431405
0.00431405
0.00431405
0.00431405
0.00431405
0.00431405
0.00431405
0.00431405
0.00431405
0.00431405
0.00431405
0.00431405
0.00431405
0.00431405
0.00431405
0.00431405
0.00431405
0.00431405
0.00431405
0.00431405
0.00431405
0.00431405
0.00431405
0.00431405
0.00431405
0.00431405
0.00431405
0.00431405
0.00431405
0.00431405
0.00431405
0.00431405
0.00431405
0.00431405
0.00431405
0.00431405
0.00431405
0.00431405
0.00431405
0.00431405
0.00431405
0.00431405
0.00431405
0.00431405
0.00431405
0.00431405
0.00431405
0.00431405
0.00431405
0.00431405
0.00431405
0.00431405
0.00431405
0.00431405
0.00431405
0.00431405
0.00431405
0.00431405
0.00431405
0.00431405
0.00431405
0.00431405
0.00431405
0.00431405
0.00431405
0.00431405
0.00431405
0.00431405
0.00431405
0.00431405
0.00431405
0.00431405
0.00431405
0.00431405
0.00431405
0.00431405
0.00431405
0.00431405
0.00431405
0.00431405
0.00431405
0.00431405
0.00431405
0.00431405
0.00431405
0.00431405
0.00431405
0.00431405
0.00431405
0.00431405
0.00431405
0.00431405
0.00431405
0.00431405
0.00431405
0.00431405
0.00431405
0.00431405
0.00431405
0.00431405
0.00431405
0.00431405
0.00431405
0.00431405
0.00431405
0.00431405
0.00431405
0.00431405
0.00431405
0.00431405
0.00431405
0.00431405
0.00431405
0.00431405
0.00431405
0.00431405
0.00431405
0.00431405
0.00431405
0.00431405
0.00431405
0.00431405
0.00431405
0.00431405
0.00431405
0.00431405
0.00431405
0.00431405
0.00431405
0.00431405
0.00431405
0.00431405
0.00431405
0.00431405
0.00431405
0.00431405
0.00431405
0.00431405
0.00431405
0.00431405
0.00431405
0.00431405
0.00431405
0.00431405
0.00431405
0.00431405
0.00431405
0.00431405
0.00431405
0.00431405
0.00431405
0.00431405
0.00431405
0.00431405
0.00431405
0.00431405
0.00431405
0.00431405
0.00431405
0.00431405
0.00431405
0.00431405
0.00431405
0.00431405
0.00431405
0.00431405
0.00431405
0.00431405
0.00431405
0.00431405
0.00431405
0.00431405
0.00431405
0.00431405
0.00431405
0.00431405
0.00431405
0.00431405
0.00431405
0.00431405
0.00431405
0.00431405
0.00431405
0.00431405
0.00431405
0.00431405
0.00431405
0.00431405
0.00431405
0.00431405
0.00431405
0.00431405
0.00431405
0.00431405
0.00431405
0.00431405
0.00431405
0.00431405
0.00431405
0.00431405
0.00431405
0.00431405
0.00431405
0.00431405
0.00431405
0.00431405
0.00431405
0.00431405
0.00431405
0.00431405
0.00431405
0.00431405
0.00431405
0.00431405
0.00431405
0.00431405
0.00431405
0.00431405
0.00431405
0.00431405
0.00431405
0.00431405
0.00431405
0.00431405
0.00431405
0.00431405
0.00431405
0.00431405
0.00431405
0.00431405
0.00431405
0.00431405
0.00431405
0.00431405
0.00431405
0.00431405
0.00431405
0.00431405
0.00431405
0.00431405
0.00431405
0.00431405
0.00431405
0.00431405
0.00431405
0.00431405
0.00431405
0.00431405
0.00431405
0.00431405
0.00431405
0.00431405
0.00431405
0.00431405
0.00431405
0.00431405
0.00431405
0.00431405
0.00431405
0.00431405
0.00431405
0.00431405
0.00431405
0.00431405
0.00431405
0.00431405
0.00431405
0.00431405
0.00431405
0.00431405
0.00431405
0.00431405
0.00431405
0.00431405
0.00431405
0.00431405
0.00431405
0.00431405
0.00431405
0.00431405
0.00431405
0.00431405
0.00431405
0.00431405
0.00431405
0.00431405
0.00431405
0.00431405
0.00431405
0.00431405
0.00348916
0.00431405
0.00431405
0.00431405
0.00431405
0.00431405
0.00431405
0.00431405
0.00431405
0.00431405
0.00431405
0.00431405
0.00431405
0.00431405
0.00431405
0.00431405
0.00431405
0.00431405
0.00431405
0.00431405
0.00431405
0.00431405
0.00431405
0.00431404
0.00407591
0.00431405
0.00431405
0.00431405
0.00431405
0.00431405
0.00431405
0.00431405
0.00431405
0.00431405
0.00431405
0.00431405
0.00431405
0.00431405
0.00431405
0.00431405
0.00431405
0.00431405
0.00431405
0.00431405
0.00431405
0.00431405
0.00431405
0.00431404
0.00409448
0.00431405
0.00431405
0.00431405
0.00431405
0.00431405
0.00431405
0.00431405
0.00431405
0.00431405
0.00431405
0.00431405
0.00431405
0.00431405
0.00431405
0.00431405
0.00431405
0.00431405
0.00431405
0.00431405
0.00431405
0.00431405
0.00431405
0.00431227
0.00420997
0.00431405
0.00431405
0.00431405
0.00431405
0.00431405
0.00431405
0.00431405
0.00431405
0.00431405
0.00431405
0.00431405
0.00431405
0.00431405
0.00431405
0.00431405
0.00431405
0.00431405
0.00431405
0.00431405
0.00431405
0.00431405
0.00431405
0.00431138
0.00421275
0.00431405
0.00431405
0.00431405
0.00431405
0.00431405
0.00431405
0.00431405
0.00431405
0.00431405
0.00431405
0.00431405
0.00431405
0.00431405
0.00431405
0.00431405
0.00431405
0.00431405
0.00431405
0.00431405
0.00431405
0.00431405
0.00431372
0.00421242
0.00426627
0.00431404
0.00431405
0.00431405
0.00431405
0.00431405
0.00431405
0.00431405
0.00431405
0.00431405
0.00431405
0.00431405
0.00431405
0.00431405
0.00431405
0.00431405
0.00431405
0.00431405
0.00431405
0.00431405
0.00431405
0.00431405
0.0043134
0.00421287
0.00426659
0.00431404
0.00431405
0.00431405
0.00431405
0.00431405
0.00431405
0.00431405
0.00431405
0.00431405
0.00431405
0.00431405
0.00431405
0.00431405
0.00431405
0.00431405
0.00431405
0.00431405
0.00431405
0.00431405
0.00431405
0.00431404
0.00431308
0.00421328
0.00426687
0.00431403
0.00431405
0.00431405
0.00431405
0.00431405
0.00431405
0.00431405
0.00431405
0.00431405
0.00431405
0.00431405
0.00431405
0.00431405
0.00431405
0.00431405
0.00431405
0.00431405
0.00431405
0.00431405
0.00431405
0.00431404
0.00431276
0.00421368
0.00426711
0.00431402
0.00431405
0.00431405
0.00431405
0.00431405
0.00431405
0.00431405
0.00431405
0.00431405
0.00431405
0.00431405
0.00431405
0.00431405
0.00431405
0.00431405
0.00431405
0.00431405
0.00431405
0.00431405
0.00431405
0.00431404
0.00431244
0.00421406
0.00426732
0.00431402
0.00431405
0.00431405
0.00431405
0.00431405
0.00431405
0.00431405
0.00431405
0.00431405
0.00431405
0.00431405
0.00431405
0.00431405
0.00431405
0.00431405
0.00431405
0.00431405
0.00431405
0.00431405
0.00431405
0.00431403
0.00431214
0.00421443
0.00426751
0.00431401
0.00431405
0.00431405
0.00431405
0.00431405
0.00431405
0.00431405
0.00431405
0.00431405
0.00431405
0.00431405
0.00431405
0.00431405
0.00431405
0.00431405
0.00431405
0.00431405
0.00431405
0.00431405
0.00431405
0.00431402
0.00431185
0.00421478
0.00426769
0.00431401
0.00431405
0.00431405
0.00431405
0.00431405
0.00431405
0.00431405
0.00431405
0.00431405
0.00431405
0.00431405
0.00431405
0.00431405
0.00431405
0.00431405
0.00431405
0.00431405
0.00431405
0.00431405
0.00431405
0.00431401
0.00431152
0.00421515
0.00426787
0.004314
0.00431405
0.00431405
0.00431405
0.00431405
0.00431405
0.00431405
0.00431405
0.00431405
0.00431405
0.00431405
0.00431405
0.00431405
0.00431405
0.00431405
0.00431405
0.00431405
0.00431405
0.00431405
0.00431405
0.004314
0.00431116
0.00421554
0.00426806
0.004314
0.00431405
0.00431405
0.00431405
0.00431405
0.00431405
0.00431405
0.00431405
0.00431405
0.00431405
0.00431405
0.00431405
0.00431405
0.00431405
0.00431405
0.00431405
0.00431405
0.00431405
0.00431405
0.00431405
0.00431399
0.00431081
0.00421592
0.00426825
0.00431399
0.00431405
0.00431405
0.00431405
0.00431405
0.00431405
0.00431405
0.00431405
0.00431405
0.00431405
0.00431405
0.00431405
0.00431405
0.00431405
0.00431405
0.00431405
0.00431405
0.00431405
0.00431405
0.00431405
0.00431398
0.00431047
0.0042163
0.00426844
0.00431399
0.00431405
0.00431405
0.00431405
0.00431405
0.00431405
0.00431405
0.00431405
0.00431405
0.00431405
0.00431405
0.00431405
0.00431405
0.00431405
0.00431405
0.00431405
0.00431405
0.00431405
0.00431405
0.00431405
0.00431397
0.00431014
0.00421667
0.00426861
0.00431398
0.00431405
0.00431405
0.00431405
0.00431405
0.00431405
0.00431405
0.00431405
0.00431405
0.00431405
0.00431405
0.00431405
0.00431405
0.00431405
0.00431405
0.00431405
0.00431405
0.00431405
0.00431405
0.00431405
0.00431395
0.0043098
0.00421705
0.00426879
0.00431397
0.00431405
0.00431405
0.00431405
0.00431405
0.00431405
0.00431405
0.00431405
0.00431405
0.00431405
0.00431405
0.00431405
0.00431405
0.00431405
0.00431405
0.00431405
0.00431405
0.00431405
0.00431405
0.00431405
0.00431394
0.00430947
0.00421742
0.00426896
0.00431397
0.00431405
0.00431405
0.00431405
0.00431405
0.00431405
0.00431405
0.00431405
0.00431405
0.00431405
0.00431405
0.00431405
0.00431405
0.00431405
0.00431405
0.00431405
0.00431405
0.00431405
0.00431405
0.00431405
0.00431392
0.00430914
0.00421779
0.00426913
0.00431396
0.00431405
0.00431405
0.00431405
0.00431405
0.00431405
0.00431405
0.00431405
0.00431405
0.00431405
0.00431405
0.00431405
0.00431405
0.00431405
0.00431405
0.00431405
0.00431405
0.00431405
0.00431405
0.00431405
0.0043139
0.00430881
0.00421817
0.00426931
0.00431396
0.00431405
0.00431405
0.00431405
0.00431405
0.00431405
0.00431405
0.00431405
0.00431405
0.00431405
0.00431405
0.00431405
0.00431405
0.00431405
0.00431405
0.00431405
0.00431405
0.00431405
0.00431405
0.00431405
0.00431388
0.00430847
0.00421855
0.00426948
0.00431395
0.00431405
0.00431405
0.00431405
0.00431405
0.00431405
0.00431405
0.00431405
0.00431405
0.00431405
0.00431405
0.00431405
0.00431405
0.00431405
0.00431405
0.00431405
0.00431405
0.00431405
0.00431405
0.00431404
0.00431386
0.00430812
0.00421894
0.00426967
0.00431395
0.00431405
0.00431405
0.00431405
0.00431405
0.00431405
0.00431405
0.00431405
0.00431405
0.00431405
0.00431405
0.00431405
0.00431405
0.00431405
0.00431405
0.00431405
0.00431405
0.00431405
0.00431405
0.00431405
0.00431405
0.00431405
0.00431405
0.00431405
0.00431405
0.00431405
0.00431405
0.0034907
0.00346213
0.00431405
0.00431405
0.00431405
0.00431405
0.00431405
0.00431405
0.00431405
0.00431405
0.00431405
0.00431404
0.00431405
0.00431405
0.00431405
0.00431405
0.00431405
0.00431405
0.00431405
0.00431405
0.00431286
0.00431381
0.00431128
0.00431367
0.00431405
0.00431405
0.00431405
0.00431405
0.00431405
0.00431405
0.00431405
0.00430915
0.00430979
0.00428102
0.00429734
0.00431405
0.00431405
0.00431405
0.00431405
0.00431405
0.00431405
0.00431405
0.00431109
0.00431008
0.00430449
0.00428951
0.00431405
0.00431405
0.00431405
0.00431211
0.00431167
0.00431405
0.00431405
0.00431405
0.00431352
0.00431316
0.00431404
0.00369211
0.00349391
0.00389182
0.00431405
0.00431405
0.00431389
0.00431405
0.00431405
0.00431404
0.00431339
0.00431405
0.00431404
0.00431375
0.00431404
0.00431405
0.00431405
0.00431394
0.00431006
0.00431257
0.00431405
0.0043091
0.00429817
0.00431308
0.00430964
0.00429838
0.00431117
0.00431405
0.0043126
0.0043095
0.0043139
0.00431267
0.00431405
0.00430993
0.00430921
0.00431405
0.00429552
0.00430129
0.00429768
0.00429526
0.00428894
0.00428009
0.00431405
0.00430839
0.00430958
0.00430946
0.00430846
0.00431405
0.00430052
0.00430528
0.00430173
0.00429967
0.00431148
0.00430536
0.00431405
0.00431194
0.00431328
0.00430965
0.0043118
0.00431405
0.00430898
0.00431064
0.0043058
0.00430866
0.00431309
0.00431228
0.00431334
0.00431364
0.00431405
0.00431191
0.00431071
0.00431084
0.00431181
0.00431367
0.00431356
0.00431405
0.00431405
0.00431405
0.00431395
0.00431405
0.00431405
0.00431405
0.00431405
0.00431405
0.00431279
0.0043122
0.0042672
0.00424373
0.00431405
0.00431405
0.00431405
0.00431405
0.00431396
0.00431405
0.00431405
0.00431405
0.0043121
0.00431124
0.00431405
0.003542
0.00365665
0.00404047
0.00411126
0.00366242
0.00379127
0.00423925
0.00419772
0.00431405
0.00431367
0.00431382
0.00411954
0.00416214
0.00431384
0.00431391
0.00431405
0.00431405
0.00431405
0.00431405
0.00431405
0.00431405
0.00431405
0.0043139
0.00431405
0.00431398
0.00431405
0.004314
0.00431405
0.00431215
0.00431277
0.00429053
0.00429135
0.00429928
0.00429755
0.0043115
0.00419892
0.0043126
0.00428569
0.00426988
0.00427253
0.00428675
0.00431335
0.00429728
0.00431397
0.00426527
0.00430829
0.00425606
0.00431389
0.00430953
0.00431395
0.00431405
0.00431369
0.00430183
0.00431398
0.004314
0.00430294
0.00430226
0.00431217
0.00431192
0.00430372
0.00430442
0.00430971
0.00431401
0.00431403
0.004314
0.00431401
0.00430969
0.00431346
0.00431404
0.00431405
0.00431403
0.00431404
0.00431326
0.00429823
0.00429856
0.00429524
0.00429502
0.0042685
0.00427017
0.00430774
0.004314
0.004314
0.004314
0.004314
0.00430772
0.00430911
0.00431399
0.004314
0.004314
0.00431399
0.00430905
0.00354387
0.00430283
0.00364501
0.00345789
0.0038191
0.00365802
0.00430349
0.00429599
0.003459
0.00429691
0.00430958
0.00430916
0.00431065
0.00431401
0.00431401
0.00431402
0.00431401
0.00431087
0.00393428
0.00402521
0.00430719
0.0039529
0.00383071
0.00405973
0.00396676
0.00430759
0.00380456
0.00392066
0.00431281
0.00424552
0.00426983
0.00420403
0.0042407
0.0043127
0.00418757
0.00416139
0.00417762
0.00360007
0.00416713
0.00415505
0.00365968
0.00428599
0.00428719
0.00431403
0.00431405
0.00431405
0.00431405
0.00431405
0.00431362
0.00431355
0.00383811
0.00431198
0.00431316
0.00431404
0.00431322
0.00431286
0.00431405
0.00356948
0.00359372
0.00339992
0.00416059
0.00416095
0.0036176
0.00365951
0.00427828
0.00428554
0.00312069
0.00431405
0.00431405
0.00431405
0.00431405
0.00431405
0.00431405
0.0043134
0.00431404
0.00431403
0.00431136
0.00431034
0.00431328
0.00430917
0.00431397
0.00431397
0.00431398
0.00431397
0.00430925
0.00428557
0.00429496
0.00430228
0.00429093
0.00410315
0.00406566
0.0043134
0.00428828
0.00429854
0.00430693
0.00430718
0.00367143
0.00431405
0.00431402
0.00431405
0.00431385
0.00431189
0.00431079
0.00431404
0.00431405
0.00431405
0.00431405
0.00431405
0.00431403
0.00431105
0.004314
0.00431399
0.00431402
0.00431401
0.0043114
0.00430639
0.00418768
0.00426056
0.00413378
0.00414704
0.00429979
0.00426781
0.00427543
0.00431077
0.00430062
0.00430668
0.00431093
0.00431379
0.00431381
0.0043136
0.00431363
0.0043096
0.00431397
0.00431398
0.00430946
0.00429683
0.0040951
0.00405033
0.00429642
0.00411407
0.00412992
0.00404229
0.00405267
0.00429476
0.00428086
0.00427418
0.00430801
0.00431359
0.00431357
0.00431352
0.00431369
0.00430886
0.00430933
0.00431356
0.00431359
0.00431357
0.00431355
0.00430875
0.00431078
0.00427039
0.00427943
0.00425797
0.00425263
0.00430722
0.00431301
0.00431402
0.00431402
0.00431403
0.00431403
0.00431308
0.0043098
0.00413483
0.00407049
0.00419955
0.00418019
0.00431003
0.00380485
0.00383424
0.00431132
0.0042204
0.00420539
0.00376918
0.00379599
0.00414931
0.00411299
0.00431403
0.00431404
0.00431404
0.004063
0.00425847
0.00408634
0.00410509
0.00409905
0.00425545
0.00431405
0.004314
0.00431405
0.00431386
0.00431404
0.00356844
0.00360063
0.00357419
0.00357058
0.00407491
0.00365656
0.00363134
0.00370905
0.00366368
0.00408405
0.00369421
0.00371912
0.00422374
0.00421672
0.00414058
0.00377818
0.0037327
0.00366375
0.00368666
0.00431378
0.00431403
0.00431404
0.00431394
0.00431402
0.00431368
0.00431141
0.00431321
0.00428645
0.00429413
0.00430174
0.00429185
0.00420821
0.0042837
0.00427717
0.0042906
0.00428576
0.00420647
0.00426229
0.00425614
0.00427514
0.00426576
0.00428007
0.00416213
0.00418498
0.00412092
0.00415086
0.00427773
0.00404541
0.00405503
0.00428627
0.00431252
0.0043111
0.00431378
0.00431293
0.00429177
0.00430175
0.00429867
0.00430995
0.0043031
0.00431319
0.00431402
0.00431388
0.00431263
0.00431154
0.00431332
0.00431215
0.00431389
0.00431243
0.00431362
0.0043139
0.00431268
0.0043135
0.00431403
0.00431379
0.0043134
0.00416428
0.00417689
0.00430536
0.00406062
0.00400675
0.0041991
0.00407207
0.00392866
0.0038793
0.00399014
0.00394976
0.00430039
0.00415165
0.00416104
0.00425889
0.00424551
0.00429705
0.00427046
0.00422985
0.00421474
0.0042432
0.00423368
0.00431108
0.00427714
0.00428183
0.00430139
0.0043063
0.0043137
0.00431376
0.00431024
0.00430962
0.00431364
0.00431369
0.00410749
0.00410297
0.00429723
0.00380443
0.00380401
0.00361279
0.00378047
0.00378639
0.00385225
0.00379975
0.0037874
0.00409043
0.00410874
0.00429607
0.00380048
0.00375017
0.00386722
0.00381604
0.00365661
0.00360573
0.0037309
0.00367936
0.00429479
0.00406164
0.00408317
0.0042753
0.00427286
0.00431363
0.0043136
0.00430792
0.00430841
0.00431367
0.00431364
0.00431355
0.00431356
0.00430928
0.00430881
0.00431355
0.00431355
0.00353347
0.00355752
0.00415396
0.00418149
0.00411404
0.00414371
0.00350873
0.00375691
0.00421513
0.00417649
0.00418876
0.00420905
0.00372452
0.00396275
0.00398789
0.00389005
0.00395387
0.00347025
0.00407029
0.00410491
0.00399978
0.00405304
0.00346183
0.00426249
0.00426817
0.00431053
0.00423864
0.00424985
0.00425327
0.00423818
0.00424967
0.00430769
0.00424928
0.00425771
0.00397062
0.0035183
0.00352301
0.00361376
0.00352933
0.00398381
0.00357332
0.00384529
0.00352717
0.00386465
0.00422316
0.00429615
0.00429211
0.00430106
0.00429752
0.00422631
0.00417167
0.00417782
0.00384697
0.00387782
0.00370451
0.00375847
0.00417473
0.00415777
0.00431405
0.00431405
0.00431405
0.00431405
0.00431397
0.00431398
0.00431405
0.00431405
0.00431405
0.00431404
0.00431405
0.00431405
0.00431405
0.00431405
0.00431405
0.00431405
0.00431404
0.00431353
0.00431131
0.00430681
0.00430621
0.00428214
0.00429653
0.00431398
0.00431399
0.0043105
0.00427037
0.00426746
0.00428993
0.00428144
0.00428609
0.00431213
0.00431401
0.00431405
0.00431405
0.00430726
0.00430926
0.0043136
0.00431398
0.00431385
0.00431404
0.00431295
0.00429707
0.00430635
0.00429912
0.00430557
0.0043049
0.00431078
0.00431192
0.00431194
0.00430954
0.00431385
0.00431388
0.00431278
0.00430956
0.00431398
0.00431398
0.004132
0.00411129
0.0043
0.00428788
0.00427425
0.00427311
0.00427916
0.00430831
0.00431186
0.00431185
0.00430942
0.00431189
0.00431191
0.00431185
0.00431184
0.00430854
0.00429423
0.00416384
0.00414212
0.00430985
0.00431357
0.00431354
0.00431349
0.00431403
0.00431403
0.00356639
0.00357031
0.00423667
0.00422489
0.00431146
0.00356034
0.00356302
0.00429954
0.00430184
0.00431364
0.00431397
0.00431391
0.00354255
0.00355392
0.00356428
0.00364813
0.00366842
0.00352915
0.00354193
0.00361942
0.00360287
0.00377308
0.00416395
0.00415699
0.0042041
0.00381606
0.0037863
0.00414638
0.00431405
0.00431405
0.00431405
0.00431376
0.00431389
0.00431399
0.00431402
0.00431352
0.00431363
0.00431405
0.00431405
0.00431404
0.00430973
0.00430944
0.00431172
0.00431303
0.00431198
0.00431144
0.00428856
0.00429216
0.00427759
0.00427977
0.00430042
0.00429541
0.0042683
0.00427319
0.00421584
0.00421674
0.00424199
0.00423853
0.00419888
0.00421898
0.00422155
0.00431227
0.00428794
0.00429304
0.00429315
0.00427539
0.00430027
0.00429738
0.00431183
0.00431066
0.00430559
0.00422558
0.00421466
0.00428997
0.004269
0.00423927
0.00431404
0.00431403
0.00431357
0.0043134
0.00431217
0.00431279
0.00430539
0.00431292
0.00431333
0.00428337
0.00429173
0.0043128
0.00420048
0.00418756
0.00430302
0.0043051
0.00431397
0.00431399
0.00431369
0.00431283
0.00431391
0.00431394
0.00429963
0.00410859
0.00410659
0.00426858
0.00427105
0.00431184
0.00431185
0.00430916
0.00430896
0.00431184
0.00431184
0.00354531
0.00362932
0.00382901
0.00384673
0.00364614
0.00366502
0.00345923
0.00418147
0.0041684
0.00429511
0.00340987
0.00339403
0.00349982
0.00350347
0.00346286
0.00361725
0.0036317
0.00338622
0.00339966
0.00431362
0.00431359
0.00430998
0.0043113
0.00431366
0.00431364
0.00389373
0.00420116
0.00420883
0.00418488
0.00419304
0.00387307
0.00425666
0.00429886
0.00430203
0.00430141
0.0043002
0.00426042
0.00421192
0.00425121
0.00424648
0.00417654
0.00416659
0.004189
0.00362973
0.00364139
0.00364951
0.00355408
0.00418072
0.00387639
0.00383119
0.00391834
0.00388789
0.00414833
0.00403197
0.00403542
0.00419114
0.00421048
0.00429092
0.00431403
0.00431403
0.00431399
0.00357055
0.00357711
0.00384686
0.00384678
0.003376
0.00364109
0.00359562
0.00359675
0.0035781
0.00358827
0.00365319
0.00313205
0.00416332
0.00417399
0.00431405
0.00431405
0.00431405
0.00430797
0.0043074
0.00431133
0.00430922
0.00431111
0.00431238
0.00431053
0.00431087
0.00428408
0.00429574
0.00425608
0.00425942
0.00425982
0.004256
0.00429035
0.00426535
0.00426407
0.00409472
0.00403378
0.0040332
0.00404398
0.00404184
0.00408408
0.00431158
0.00431296
0.00431302
0.00431278
0.00431292
0.00431124
0.00429987
0.00430967
0.00430414
0.00430222
0.00430957
0.00431195
0.00431197
0.00427401
0.00427488
0.00428566
0.00427621
0.00431188
0.00431187
0.00430814
0.00431188
0.00431188
0.00430938
0.00430866
0.00431184
0.00431184
0.00425828
0.00426979
0.00426505
0.00427375
0.00427226
0.00425717
0.00357505
0.00358246
0.00355972
0.00355896
0.00377835
0.00364882
0.00364085
0.00404678
0.00404617
0.0041382
0.00406545
0.00408071
0.00403766
0.00404954
0.00412532
0.00431401
0.00431399
0.00431402
0.00431397
0.00431403
0.00431404
0.00431405
0.00431402
0.00431403
0.00431401
0.00408117
0.00417633
0.00417065
0.00419221
0.00418396
0.00408761
0.00412211
0.00414959
0.004138
0.00416608
0.00416017
0.00411267
0.00431402
0.00431404
0.00431403
0.00431352
0.00431309
0.00431396
0.00431388
0.00354752
0.00363189
0.00357085
0.0035692
0.00357335
0.00357202
0.00376215
0.00377591
0.00364208
0.00351762
0.00351809
0.00367773
0.00353268
0.00352413
0.00353297
0.00374781
0.00356999
0.00353595
0.00416956
0.00418005
0.0042299
0.00414076
0.0041438
0.00413286
0.00413495
0.00420992
0.00415408
0.0041585
0.00366815
0.00355542
0.00356679
0.00354555
0.0035464
0.0036749
0.00431393
0.00431396
0.00431385
0.0043134
0.00431369
0.00431389
0.00430716
0.00431151
0.00430901
0.00430851
0.00430966
0.00431011
0.0043086
0.00430917
0.00428736
0.00429302
0.0042635
0.00426452
0.00426077
0.00426218
0.00430117
0.00428092
0.00428173
0.00426369
0.00426516
0.00429335
0.0042644
0.00422541
0.00421838
0.00420244
0.00423564
0.0042319
0.00425975
0.00422489
0.00422403
0.00423585
0.00422954
0.00425794
0.00427272
0.00424171
0.00424538
0.00422819
0.00423525
0.0042695
0.00422222
0.00413081
0.0042053
0.0041995
0.00403813
0.00404325
0.00428352
0.00430271
0.00430151
0.00428084
0.00429646
0.0043075
0.00430463
0.00424354
0.004234
0.00427949
0.00428158
0.00429977
0.00426399
0.00425388
0.00430887
0.00431044
0.00431304
0.00431139
0.0043069
0.00430045
0.0043065
0.00431312
0.0043136
0.0043137
0.00431313
0.00431333
0.00431232
0.00431112
0.00431212
0.0043137
0.0043133
0.00431314
0.00431373
0.0043134
0.00431379
0.00431288
0.00431292
0.00431235
0.00431304
0.00404644
0.00402548
0.00416317
0.00400524
0.00402345
0.00396714
0.00408218
0.00390999
0.00389357
0.00397559
0.00396312
0.004252
0.00418773
0.00420242
0.0041586
0.00417264
0.00424816
0.00429397
0.00426892
0.00427599
0.00421095
0.00425211
0.00428655
0.00417563
0.00415261
0.00422592
0.00406771
0.00408192
0.0040434
0.00405539
0.0042215
0.00424082
0.0041352
0.00414614
0.00409788
0.00411568
0.00423742
0.00430232
0.00430575
0.00381094
0.00362395
0.0036494
0.00357272
0.0035971
0.00380811
0.00365562
0.00366318
0.0036624
0.00372185
0.00379636
0.00344414
0.00346693
0.00348815
0.0034472
0.00381819
0.00379564
0.0035304
0.00355057
0.00349166
0.00351227
0.00379167
0.00378732
0.00377219
0.00385465
0.00383406
0.0036363
0.00361795
0.00371421
0.00370001
0.00427097
0.00427192
0.00430922
0.00431186
0.00431187
0.00431183
0.00431183
0.00430888
0.00354352
0.00377037
0.00380467
0.00360372
0.00347245
0.00369259
0.00373002
0.00344635
0.00342713
0.00397049
0.00366375
0.00366073
0.00392129
0.00361526
0.00355425
0.00365611
0.00364368
0.00394145
0.00349144
0.00346765
0.00356655
0.00359854
0.00346773
0.00344106
0.00350598
0.00426502
0.00428737
0.00428557
0.00429003
0.00428874
0.0042666
0.00424244
0.00424776
0.00424789
0.0042379
0.00423786
0.00424201
0.00424896
0.00427727
0.00427521
0.00428304
0.00428006
0.00425253
0.00351687
0.00363143
0.00364367
0.00361386
0.00362235
0.00351922
0.00358332
0.00371741
0.00374319
0.00366236
0.00368838
0.00355352
0.00356782
0.00349402
0.00349686
0.00351241
0.0035019
0.00352982
0.00358493
0.00360299
0.00351767
0.00355161
0.00352584
0.00425834
0.00425527
0.0042191
0.00417057
0.00418481
0.00359684
0.00361916
0.00372529
0.00358791
0.00355975
0.00363113
0.00361565
0.00374425
0.00356083
0.0035612
0.00403594
0.00403776
0.00431405
0.00431405
0.00431405
0.00431405
0.00431405
0.00431405
0.00431405
0.00431405
0.00431405
0.00431405
0.00431405
0.00431405
0.00431405
0.00431405
0.00431405
0.00431405
0.00431405
0.00431405
0.00431405
0.00431405
0.00431405
0.00431405
0.00431405
0.00431405
0.00431405
0.00431405
0.00431405
0.00431405
0.00431405
0.00431405
0.00431405
0.00431405
0.00431405
0.00431405
0.00431405
0.00431405
0.00431405
0.00431405
0.00431405
0.00431405
0.00431405
0.00431405
0.00431405
0.00431405
0.00431405
0.00431405
0.00431405
0.00431405
0.00431405
0.00431405
0.00431405
0.00431405
0.00431405
0.00431405
0.00431405
0.00431405
0.00431405
0.00431405
0.00431405
0.00431405
0.00431405
0.00431405
0.00431405
0.00431405
0.00431405
0.00431405
0.00431405
0.00431405
0.00431405
0.00431405
0.00431405
0.00431405
0.00431405
0.00431405
0.00431405
0.00431405
0.00431405
0.00431405
0.00431405
0.00431405
0.00431405
0.00431405
0.00431405
0.00431405
0.00431405
0.00431404
0.00431404
0.00431405
0.00431405
0.00431405
0.00431405
0.00431405
0.00431405
0.00431405
0.00431405
0.00431405
0.00431405
0.00431405
0.00431405
0.00431405
0.00431404
0.00431404
0.00431405
0.00431405
0.00431405
0.00431405
0.00431405
0.00431405
0.00431405
0.00431405
0.00431405
0.00431405
0.00431404
0.00431404
0.00431405
0.00431405
0.00431405
0.00431405
0.00431405
0.00431405
0.00431405
0.00431405
0.00431405
0.00431405
0.00431405
0.00431405
0.00431405
0.00431405
0.00431405
0.00431405
0.00431405
0.00431405
0.00431405
0.00431405
0.00431405
0.00431405
0.00431344
0.00431342
0.00357355
0.00426375
0.00426789
0.00431405
0.00431405
0.00431405
0.00431405
0.00431405
0.00431405
0.00431405
0.00431405
0.00431405
0.00431405
0.00431405
0.00431405
0.00431404
0.00390866
0.00390002
0.0040901
0.00431405
0.00431405
0.00431405
0.00431405
0.00431405
0.00431405
0.00431405
0.00431405
0.00431405
0.00431405
0.00431405
0.00431296
0.00410282
0.00391125
0.00420854
0.00431397
0.00431405
0.00431405
0.00431405
0.00431405
0.00431405
0.00431405
0.00431405
0.00431405
0.00431405
0.00431405
0.00431405
0.00431405
0.00431405
0.00431404
0.00431404
0.00431405
0.00431405
0.00431404
0.00431403
0.00431405
0.00431405
0.00431405
0.00431404
0.00431404
0.00431405
0.00431405
0.00431403
0.00431404
0.00431403
0.00431403
0.00431405
0.00431404
0.00431404
0.00431405
0.00431405
0.00431404
0.00431404
0.00431404
0.00431404
0.00431405
0.00431405
0.00431405
0.00431405
0.00431404
0.00431405
0.00431405
0.00431342
0.00431364
0.00431405
0.00337572
0.00379379
0.00379914
0.00399768
0.00399843
0.00313847
0.00431405
0.00431405
0.00431405
0.00431405
0.00431405
0.00431405
0.00431405
0.00431405
0.00431404
0.00431405
0.00431405
0.00431405
0.00431405
0.00431405
0.00431405
0.00431405
0.00431405
0.00431405
0.00431405
0.00431405
0.00431405
0.00431405
0.00431405
0.00431405
0.00431405
0.00431405
0.00431405
0.00431405
0.00431405
0.00431405
0.00431404
0.004314
0.00431405
0.00431405
0.00431405
0.00431405
0.00431405
0.00431405
0.00431405
0.00431405
0.00431405
0.00431405
0.00431405
0.00431405
0.00431405
0.00431405
0.00431405
0.00431405
0.00431405
0.00431405
0.00431405
0.00431405
0.00431405
0.00431405
0.00431405
0.00431405
0.00431307
0.00431378
0.00431372
0.004314
0.00431397
0.00431374
0.00431325
0.00431281
0.00431353
0.00431405
0.00431405
0.00431405
0.00431405
0.00431405
0.00431405
0.00431405
0.00431405
0.00431405
0.00431405
0.00431405
0.00431405
0.00431405
0.00431405
0.00431405
0.00431405
0.00431405
0.00431405
0.00431404
0.00431404
0.00431405
0.00430912
0.00431283
0.00431283
0.00431297
0.00431291
0.00430956
0.00431405
0.00431405
0.00431405
0.00431405
0.00431405
0.00431405
0.00431405
0.00431405
0.00431405
0.00431405
0.00431405
0.00431405
0.00431405
0.00431405
0.00431405
0.00431405
0.00431405
0.00431405
0.00431404
0.00431404
0.00431405
0.00431065
0.00431399
0.004314
0.00431305
0.00431308
0.00431022
0.00430363
0.00428533
0.00428775
0.00431405
0.00431405
0.00431405
0.00431405
0.00431405
0.00431405
0.00431405
0.00431405
0.00431405
0.00431193
0.00429928
0.00430213
0.00430697
0.00430748
0.00431184
0.00431405
0.00431405
0.00431405
0.00431405
0.00431405
0.00431405
0.00431405
0.00431405
0.00431405
0.00431348
0.00431193
0.00431207
0.00431063
0.00431091
0.00431323
0.00431371
0.00431344
0.00431404
0.00367602
0.00430722
0.00430723
0.00416309
0.00416768
0.00350734
0.0043122
0.00431203
0.00385232
0.00431405
0.00431387
0.00431396
0.00431398
0.00431387
0.00431405
0.00431395
0.00431403
0.00431401
0.00431405
0.00431405
0.00431403
0.00431405
0.00431405
0.00431405
0.00431403
0.00431371
0.00431398
0.00431405
0.00431405
0.00431405
0.00431402
0.00431404
0.00431405
0.00431379
0.0043135
0.00431343
0.00431404
0.00431403
0.00431404
0.00431405
0.00431405
0.00431405
0.00431405
0.00431405
0.00431405
0.00431403
0.00431403
0.00431399
0.00431036
0.00431312
0.00431304
0.00431365
0.00431357
0.00431219
0.00431405
0.00431404
0.00431404
0.00430839
0.00430046
0.00430258
0.00427652
0.00427747
0.00429867
0.00430393
0.00430488
0.00431007
0.00431404
0.00431404
0.00431405
0.00431243
0.00431324
0.00431333
0.00431374
0.00431401
0.00431402
0.00431338
0.00431342
0.00431271
0.00431405
0.00431405
0.00431404
0.0043098
0.00431298
0.00431301
0.00431285
0.00431286
0.00430929
0.00431405
0.00431404
0.00431404
0.00429597
0.00427033
0.00426923
0.00428227
0.00428116
0.00430084
0.00429724
0.00427474
0.00427561
0.00426845
0.00426795
0.00429496
0.00431403
0.00431403
0.00431405
0.00431251