# Force coefficients
# liftDir    : (2.079100e-01 9.781500e-01 0.000000e+00)
# dragDir    : (9.781500e-01 2.079100e-01 0.000000e+00)
# pitchAxis  : (0.000000e+00 1.000000e+00 0.000000e+00)
# magUInf    : 1.500000e+01
# lRef       : 5.000000e-01
# Aref       : 4.000000e-01
# CofR       : (0.000000e+00 0.000000e+00 0.000000e+00)
# Time       	Cm           	Cd           	Cl           	Cl(f)        	Cl(r)        
100          	-2.435240e-03	2.357715e-02	1.211138e-01	5.812166e-02	6.299214e-02
200          	-6.340556e-03	2.185270e-02	1.293435e-01	5.833121e-02	7.101232e-02
300          	-7.616206e-03	2.073212e-02	1.294098e-01	5.708869e-02	7.232110e-02
400          	-7.984339e-03	2.009996e-02	1.279762e-01	5.600378e-02	7.197246e-02
500          	-8.097540e-03	1.966884e-02	1.264217e-01	5.511329e-02	7.130837e-02
600          	-8.161922e-03	1.937987e-02	1.253316e-01	5.450386e-02	7.082771e-02
700          	-8.241839e-03	1.928565e-02	1.252228e-01	5.436954e-02	7.085321e-02
800          	-8.352783e-03	1.936063e-02	1.260397e-01	5.466709e-02	7.137266e-02
900          	-8.486951e-03	1.947439e-02	1.271364e-01	5.508126e-02	7.205516e-02
1000         	-8.615920e-03	1.955874e-02	1.280730e-01	5.542057e-02	7.265241e-02
1100         	-8.719304e-03	1.961037e-02	1.287485e-01	5.565494e-02	7.309355e-02
1200         	-8.793861e-03	1.963948e-02	1.291974e-01	5.580486e-02	7.339258e-02
1300         	-8.844680e-03	1.965390e-02	1.294780e-01	5.589431e-02	7.358367e-02
1400         	-8.878073e-03	1.965951e-02	1.296441e-01	5.594397e-02	7.370012e-02
1500         	-8.899538e-03	1.966091e-02	1.297405e-01	5.597072e-02	7.376980e-02
1600         	-8.913154e-03	1.966130e-02	1.297993e-01	5.598650e-02	7.381281e-02
1700         	-8.922232e-03	1.966153e-02	1.298384e-01	5.599696e-02	7.384143e-02
1800         	-8.928396e-03	1.966200e-02	1.298664e-01	5.600481e-02	7.386160e-02
1900         	-8.932431e-03	1.966270e-02	1.298866e-01	5.601086e-02	7.387572e-02
2000         	-8.935200e-03	1.966294e-02	1.298993e-01	5.601445e-02	7.388485e-02
2100         	-8.937249e-03	1.966326e-02	1.299094e-01	5.601744e-02	7.389194e-02
2200         	-8.938752e-03	1.966352e-02	1.299169e-01	5.601969e-02	7.389719e-02
2300         	-8.939890e-03	1.966372e-02	1.299226e-01	5.602141e-02	7.390119e-02
2400         	-8.940732e-03	1.966391e-02	1.299270e-01	5.602278e-02	7.390424e-02
2500         	-8.941409e-03	1.966394e-02	1.299300e-01	5.602357e-02	7.390639e-02
2600         	-8.941836e-03	1.966405e-02	1.299323e-01	5.602430e-02	7.390797e-02
2700         	-8.942251e-03	1.966399e-02	1.299338e-01	5.602463e-02	7.390913e-02
2800         	-8.942538e-03	1.966398e-02	1.299349e-01	5.602491e-02	7.390999e-02
2900         	-8.942716e-03	1.966401e-02	1.299358e-01	5.602516e-02	7.391060e-02
3000         	-8.942877e-03	1.966402e-02	1.299365e-01	5.602536e-02	7.391111e-02
3100         	-8.943008e-03	1.966403e-02	1.299371e-01	5.602553e-02	7.391155e-02
3200         	-8.943100e-03	1.966403e-02	1.299375e-01	5.602564e-02	7.391184e-02
3300         	-8.943186e-03	1.966402e-02	1.299378e-01	5.602572e-02	7.391209e-02
3400         	-8.943239e-03	1.966403e-02	1.299381e-01	5.602579e-02	7.391227e-02
3500         	-8.943288e-03	1.966403e-02	1.299383e-01	5.602584e-02	7.391242e-02
3600         	-8.943329e-03	1.966405e-02	1.299385e-01	5.602593e-02	7.391258e-02
3700         	-8.943348e-03	1.966404e-02	1.299385e-01	5.602592e-02	7.391262e-02
3800         	-8.943368e-03	1.966403e-02	1.299386e-01	5.602594e-02	7.391267e-02
3900         	-8.943384e-03	1.966404e-02	1.299387e-01	5.602597e-02	7.391274e-02
4000         	-8.943400e-03	1.966403e-02	1.299387e-01	5.602597e-02	7.391277e-02
4100         	-8.943407e-03	1.966405e-02	1.299389e-01	5.602603e-02	7.391284e-02
4200         	-8.943418e-03	1.966404e-02	1.299389e-01	5.602602e-02	7.391285e-02
4300         	-8.943424e-03	1.966405e-02	1.299389e-01	5.602603e-02	7.391288e-02
4400         	-8.943425e-03	1.966404e-02	1.299389e-01	5.602601e-02	7.391286e-02
4500         	-8.943429e-03	1.966404e-02	1.299389e-01	5.602602e-02	7.391288e-02
4600         	-8.943426e-03	1.966404e-02	1.299389e-01	5.602603e-02	7.391288e-02
4700         	-8.943436e-03	1.966404e-02	1.299389e-01	5.602603e-02	7.391291e-02
4800         	-8.943438e-03	1.966404e-02	1.299389e-01	5.602603e-02	7.391290e-02
4900         	-8.943438e-03	1.966404e-02	1.299389e-01	5.602603e-02	7.391291e-02
5000         	-8.943440e-03	1.966404e-02	1.299389e-01	5.602603e-02	7.391291e-02
5100         	-8.943440e-03	1.966404e-02	1.299389e-01	5.602603e-02	7.391291e-02
5200         	-8.943442e-03	1.966404e-02	1.299390e-01	5.602604e-02	7.391293e-02
5300         	-8.943443e-03	1.966404e-02	1.299390e-01	5.602604e-02	7.391292e-02
5400         	-8.943447e-03	1.966403e-02	1.299389e-01	5.602602e-02	7.391292e-02
5500         	-8.943443e-03	1.966403e-02	1.299389e-01	5.602602e-02	7.391291e-02
5600         	-8.943446e-03	1.966403e-02	1.299390e-01	5.602603e-02	7.391292e-02
5700         	-8.943447e-03	1.966401e-02	1.299388e-01	5.602596e-02	7.391285e-02
5800         	-8.943430e-03	1.966404e-02	1.299389e-01	5.602603e-02	7.391289e-02
5900         	-8.943445e-03	1.966402e-02	1.299389e-01	5.602599e-02	7.391288e-02
6000         	-8.943454e-03	1.966403e-02	1.299390e-01	5.602603e-02	7.391294e-02
6100         	-8.943446e-03	1.966404e-02	1.299390e-01	5.602604e-02	7.391293e-02
6200         	-8.943440e-03	1.966404e-02	1.299390e-01	5.602604e-02	7.391292e-02
6300         	-8.943443e-03	1.966404e-02	1.299390e-01	5.602604e-02	7.391292e-02
6400         	-8.943444e-03	1.966404e-02	1.299390e-01	5.602604e-02	7.391292e-02
6500         	-8.943440e-03	1.966404e-02	1.299390e-01	5.602604e-02	7.391292e-02
6600         	-8.943442e-03	1.966404e-02	1.299390e-01	5.602604e-02	7.391292e-02
6700         	-8.943445e-03	1.966404e-02	1.299390e-01	5.602603e-02	7.391292e-02
6800         	-8.943443e-03	1.966404e-02	1.299390e-01	5.602604e-02	7.391292e-02
6900         	-8.943445e-03	1.966404e-02	1.299390e-01	5.602604e-02	7.391293e-02
7000         	-8.943442e-03	1.966404e-02	1.299390e-01	5.602603e-02	7.391292e-02
7100         	-8.943442e-03	1.966404e-02	1.299390e-01	5.602603e-02	7.391292e-02
7200         	-8.943446e-03	1.966403e-02	1.299389e-01	5.602602e-02	7.391292e-02
