# Forces     
# CofR       : (0.000000e+00 0.000000e+00 0.000000e+00)
# Time       forces(pressure viscous porous)	moments(pressure viscous porous)
100          	((2.049260e-01 1.843403e+00 1.199132e-19) (7.981433e-02 1.302058e-03 -1.566015e-22) (0.000000e+00 0.000000e+00 0.000000e+00)) ((-9.677864e-01 1.075861e-01 7.907205e-01) (-6.835806e-04 4.190252e-02 -1.045469e-03) (0.000000e+00 0.000000e+00 0.000000e+00))
200          	((1.809722e-01 1.966783e+00 1.087494e-19) (7.692512e-02 1.955138e-03 -1.528417e-22) (0.000000e+00 0.000000e+00 0.000000e+00)) ((-1.032561e+00 9.501038e-02 7.846856e-01) (-1.026447e-03 4.038569e-02 -8.597894e-04) (0.000000e+00 0.000000e+00 0.000000e+00))
300          	((1.671497e-01 1.982968e+00 1.076293e-19) (7.727954e-02 2.211298e-03 -1.516956e-22) (0.000000e+00 0.000000e+00 0.000000e+00)) ((-1.041058e+00 8.775362e-02 7.726646e-01) (-1.160931e-03 4.057176e-02 -8.372524e-04) (0.000000e+00 0.000000e+00 0.000000e+00))
400          	((1.595117e-01 1.996420e+00 1.075538e-19) (7.837289e-02 2.263963e-03 -1.514375e-22) (0.000000e+00 0.000000e+00 0.000000e+00)) ((-1.048121e+00 8.374362e-02 7.684090e-01) (-1.188581e-03 4.114577e-02 -8.989265e-04) (0.000000e+00 0.000000e+00 0.000000e+00))
500          	((1.554803e-01 2.030694e+00 1.066692e-19) (7.931357e-02 2.230438e-03 -1.515353e-22) (0.000000e+00 0.000000e+00 0.000000e+00)) ((-1.066114e+00 8.162718e-02 7.773784e-01) (-1.170980e-03 4.163963e-02 -9.960826e-04) (0.000000e+00 0.000000e+00 0.000000e+00))
600          	((1.532052e-01 2.081784e+00 1.050768e-19) (7.992656e-02 2.181531e-03 -1.514963e-22) (0.000000e+00 0.000000e+00 0.000000e+00)) ((-1.092937e+00 8.043272e-02 7.962223e-01) (-1.145304e-03 4.196144e-02 -1.090406e-03) (0.000000e+00 0.000000e+00 0.000000e+00))
700          	((1.517012e-01 2.141715e+00 1.030188e-19) (8.026855e-02 2.156280e-03 -1.513478e-22) (0.000000e+00 0.000000e+00 0.000000e+00)) ((-1.124400e+00 7.964313e-02 8.209042e-01) (-1.132047e-03 4.214099e-02 -1.157601e-03) (0.000000e+00 0.000000e+00 0.000000e+00))
800          	((1.503706e-01 2.196137e+00 1.009355e-19) (8.045265e-02 2.158683e-03 -1.511495e-22) (0.000000e+00 0.000000e+00 0.000000e+00)) ((-1.152972e+00 7.894454e-02 8.432388e-01) (-1.133308e-03 4.223764e-02 -1.196142e-03) (0.000000e+00 0.000000e+00 0.000000e+00))
900          	((1.491881e-01 2.235051e+00 9.919942e-20) (8.055699e-02 2.173553e-03 -1.509630e-22) (0.000000e+00 0.000000e+00 0.000000e+00)) ((-1.173402e+00 7.832378e-02 8.582198e-01) (-1.141115e-03 4.229242e-02 -1.217733e-03) (0.000000e+00 0.000000e+00 0.000000e+00))
1000         	((1.482888e-01 2.259851e+00 9.796519e-20) (8.061764e-02 2.188083e-03 -1.508227e-22) (0.000000e+00 0.000000e+00 0.000000e+00)) ((-1.186422e+00 7.785164e-02 8.671170e-01) (-1.148743e-03 4.232426e-02 -1.231769e-03) (0.000000e+00 0.000000e+00 0.000000e+00))
1100         	((1.476704e-01 2.275703e+00 9.714977e-20) (8.065393e-02 2.197612e-03 -1.507269e-22) (0.000000e+00 0.000000e+00 0.000000e+00)) ((-1.194744e+00 7.752697e-02 8.725131e-01) (-1.153746e-03 4.234332e-02 -1.242885e-03) (0.000000e+00 0.000000e+00 0.000000e+00))
1200         	((1.472503e-01 2.286564e+00 9.660419e-20) (8.067608e-02 2.202436e-03 -1.506598e-22) (0.000000e+00 0.000000e+00 0.000000e+00)) ((-1.200446e+00 7.730640e-02 8.761218e-01) (-1.156279e-03 4.235494e-02 -1.252526e-03) (0.000000e+00 0.000000e+00 0.000000e+00))
1300         	((1.469541e-01 2.294692e+00 9.621596e-20) (8.068922e-02 2.204498e-03 -1.506074e-22) (0.000000e+00 0.000000e+00 0.000000e+00)) ((-1.204713e+00 7.715090e-02 8.788517e-01) (-1.157361e-03 4.236184e-02 -1.260639e-03) (0.000000e+00 0.000000e+00 0.000000e+00))
1400         	((1.467402e-01 2.301173e+00 9.592249e-20) (8.069757e-02 2.205455e-03 -1.505664e-22) (0.000000e+00 0.000000e+00 0.000000e+00)) ((-1.208116e+00 7.703861e-02 8.811001e-01) (-1.157864e-03 4.236622e-02 -1.267125e-03) (0.000000e+00 0.000000e+00 0.000000e+00))
1500         	((1.465773e-01 2.306405e+00 9.569068e-20) (8.070276e-02 2.206266e-03 -1.505328e-22) (0.000000e+00 0.000000e+00 0.000000e+00)) ((-1.210862e+00 7.695307e-02 8.829644e-01) (-1.158289e-03 4.236895e-02 -1.271942e-03) (0.000000e+00 0.000000e+00 0.000000e+00))
1600         	((1.464503e-01 2.310520e+00 9.550666e-20) (8.070609e-02 2.207169e-03 -1.505061e-22) (0.000000e+00 0.000000e+00 0.000000e+00)) ((-1.213023e+00 7.688640e-02 8.844444e-01) (-1.158764e-03 4.237070e-02 -1.275390e-03) (0.000000e+00 0.000000e+00 0.000000e+00))
1700         	((1.463505e-01 2.313639e+00 9.536322e-20) (8.070824e-02 2.208071e-03 -1.504846e-22) (0.000000e+00 0.000000e+00 0.000000e+00)) ((-1.214661e+00 7.683401e-02 8.855607e-01) (-1.159237e-03 4.237183e-02 -1.277816e-03) (0.000000e+00 0.000000e+00 0.000000e+00))
1800         	((1.462768e-01 2.315948e+00 9.525649e-20) (8.070975e-02 2.208829e-03 -1.504695e-22) (0.000000e+00 0.000000e+00 0.000000e+00)) ((-1.215873e+00 7.679533e-02 8.863781e-01) (-1.159635e-03 4.237262e-02 -1.279654e-03) (0.000000e+00 0.000000e+00 0.000000e+00))
1900         	((1.462192e-01 2.317638e+00 9.517601e-20) (8.071067e-02 2.209423e-03 -1.504569e-22) (0.000000e+00 0.000000e+00 0.000000e+00)) ((-1.216760e+00 7.676508e-02 8.869700e-01) (-1.159947e-03 4.237310e-02 -1.280959e-03) (0.000000e+00 0.000000e+00 0.000000e+00))
2000         	((1.461775e-01 2.318886e+00 9.511724e-20) (8.071136e-02 2.209842e-03 -1.504484e-22) (0.000000e+00 0.000000e+00 0.000000e+00)) ((-1.217415e+00 7.674319e-02 8.874041e-01) (-1.160167e-03 4.237346e-02 -1.281962e-03) (0.000000e+00 0.000000e+00 0.000000e+00))
2100         	((1.461497e-01 2.319815e+00 9.507563e-20) (8.071193e-02 2.210090e-03 -1.504425e-22) (0.000000e+00 0.000000e+00 0.000000e+00)) ((-1.217903e+00 7.672857e-02 8.877381e-01) (-1.160297e-03 4.237376e-02 -1.282791e-03) (0.000000e+00 0.000000e+00 0.000000e+00))
2200         	((1.461290e-01 2.320464e+00 9.504712e-20) (8.071225e-02 2.210208e-03 -1.504380e-22) (0.000000e+00 0.000000e+00 0.000000e+00)) ((-1.218244e+00 7.671772e-02 8.879688e-01) (-1.160359e-03 4.237393e-02 -1.283393e-03) (0.000000e+00 0.000000e+00 0.000000e+00))
2300         	((1.461118e-01 2.320987e+00 9.502341e-20) (8.071245e-02 2.210317e-03 -1.504342e-22) (0.000000e+00 0.000000e+00 0.000000e+00)) ((-1.218518e+00 7.670871e-02 8.881504e-01) (-1.160417e-03 4.237404e-02 -1.283834e-03) (0.000000e+00 0.000000e+00 0.000000e+00))
2400         	((1.460976e-01 2.321363e+00 9.500471e-20) (8.071266e-02 2.210431e-03 -1.504317e-22) (0.000000e+00 0.000000e+00 0.000000e+00)) ((-1.218715e+00 7.670126e-02 8.882715e-01) (-1.160477e-03 4.237415e-02 -1.284161e-03) (0.000000e+00 0.000000e+00 0.000000e+00))
2500         	((1.460887e-01 2.321628e+00 9.499117e-20) (8.071277e-02 2.210552e-03 -1.504298e-22) (0.000000e+00 0.000000e+00 0.000000e+00)) ((-1.218854e+00 7.669656e-02 8.883633e-01) (-1.160540e-03 4.237420e-02 -1.284331e-03) (0.000000e+00 0.000000e+00 0.000000e+00))
2600         	((1.460820e-01 2.321832e+00 9.498149e-20) (8.071288e-02 2.210644e-03 -1.504285e-22) (0.000000e+00 0.000000e+00 0.000000e+00)) ((-1.218962e+00 7.669303e-02 8.884353e-01) (-1.160588e-03 4.237426e-02 -1.284471e-03) (0.000000e+00 0.000000e+00 0.000000e+00))
2700         	((1.460773e-01 2.321994e+00 9.497423e-20) (8.071304e-02 2.210713e-03 -1.504279e-22) (0.000000e+00 0.000000e+00 0.000000e+00)) ((-1.219047e+00 7.669060e-02 8.884930e-01) (-1.160624e-03 4.237434e-02 -1.284609e-03) (0.000000e+00 0.000000e+00 0.000000e+00))
2800         	((1.460736e-01 2.322117e+00 9.496814e-20) (8.071320e-02 2.210765e-03 -1.504275e-22) (0.000000e+00 0.000000e+00 0.000000e+00)) ((-1.219111e+00 7.668865e-02 8.885359e-01) (-1.160652e-03 4.237443e-02 -1.284734e-03) (0.000000e+00 0.000000e+00 0.000000e+00))
2900         	((1.460699e-01 2.322219e+00 9.496332e-20) (8.071321e-02 2.210807e-03 -1.504265e-22) (0.000000e+00 0.000000e+00 0.000000e+00)) ((-1.219165e+00 7.668670e-02 8.885707e-01) (-1.160674e-03 4.237443e-02 -1.284783e-03) (0.000000e+00 0.000000e+00 0.000000e+00))
3000         	((1.460671e-01 2.322303e+00 9.495910e-20) (8.071332e-02 2.210835e-03 -1.504261e-22) (0.000000e+00 0.000000e+00 0.000000e+00)) ((-1.219209e+00 7.668520e-02 8.885991e-01) (-1.160688e-03 4.237449e-02 -1.284884e-03) (0.000000e+00 0.000000e+00 0.000000e+00))
3100         	((1.460647e-01 2.322369e+00 9.495596e-20) (8.071332e-02 2.210861e-03 -1.504254e-22) (0.000000e+00 0.000000e+00 0.000000e+00)) ((-1.219244e+00 7.668394e-02 8.886222e-01) (-1.160702e-03 4.237449e-02 -1.284917e-03) (0.000000e+00 0.000000e+00 0.000000e+00))
3200         	((1.460627e-01 2.322422e+00 9.495336e-20) (8.071332e-02 2.210880e-03 -1.504249e-22) (0.000000e+00 0.000000e+00 0.000000e+00)) ((-1.219271e+00 7.668291e-02 8.886401e-01) (-1.160712e-03 4.237449e-02 -1.284946e-03) (0.000000e+00 0.000000e+00 0.000000e+00))
3300         	((1.460612e-01 2.322468e+00 9.495129e-20) (8.071331e-02 2.210896e-03 -1.504244e-22) (0.000000e+00 0.000000e+00 0.000000e+00)) ((-1.219296e+00 7.668211e-02 8.886560e-01) (-1.160720e-03 4.237449e-02 -1.284970e-03) (0.000000e+00 0.000000e+00 0.000000e+00))
3400         	((1.460599e-01 2.322510e+00 9.494921e-20) (8.071341e-02 2.210897e-03 -1.504244e-22) (0.000000e+00 0.000000e+00 0.000000e+00)) ((-1.219318e+00 7.668142e-02 8.886715e-01) (-1.160721e-03 4.237454e-02 -1.285060e-03) (0.000000e+00 0.000000e+00 0.000000e+00))
3500         	((1.460587e-01 2.322544e+00 9.494765e-20) (8.071342e-02 2.210909e-03 -1.504241e-22) (0.000000e+00 0.000000e+00 0.000000e+00)) ((-1.219335e+00 7.668082e-02 8.886832e-01) (-1.160727e-03 4.237454e-02 -1.285074e-03) (0.000000e+00 0.000000e+00 0.000000e+00))
3600         	((1.460578e-01 2.322571e+00 9.494645e-20) (8.071342e-02 2.210919e-03 -1.504238e-22) (0.000000e+00 0.000000e+00 0.000000e+00)) ((-1.219350e+00 7.668035e-02 8.886924e-01) (-1.160732e-03 4.237454e-02 -1.285086e-03) (0.000000e+00 0.000000e+00 0.000000e+00))
