# Forces     
# CofR       : (0.000000e+00 0.000000e+00 0.000000e+00)
# Time       forces(pressure viscous porous)	moments(pressure viscous porous)
100          	((2.298579e-01 7.593140e-01 1.715046e-19) (7.982595e-02 2.668922e-04 -1.800457e-22) (0.000000e+00 0.000000e+00 0.000000e+00)) ((-3.986398e-01 1.206754e-01 4.765889e-01) (-1.401184e-04 4.190862e-02 -1.219284e-03) (0.000000e+00 0.000000e+00 0.000000e+00))
200          	((2.161388e-01 7.999308e-01 1.746474e-19) (7.682261e-02 4.913878e-04 -1.780625e-22) (0.000000e+00 0.000000e+00 0.000000e+00)) ((-4.199637e-01 1.134729e-01 4.655572e-01) (-2.579786e-04 4.033187e-02 -1.138529e-03) (0.000000e+00 0.000000e+00 0.000000e+00))
300          	((2.057555e-01 8.207044e-01 1.764272e-19) (7.710339e-02 5.501759e-04 -1.769092e-22) (0.000000e+00 0.000000e+00 0.000000e+00)) ((-4.308698e-01 1.080216e-01 4.640301e-01) (-2.888423e-04 4.047928e-02 -1.172721e-03) (0.000000e+00 0.000000e+00 0.000000e+00))
400          	((1.999477e-01 8.486636e-01 1.768844e-19) (7.817883e-02 5.323252e-04 -1.764611e-22) (0.000000e+00 0.000000e+00 0.000000e+00)) ((-4.455484e-01 1.049726e-01 4.730878e-01) (-2.794708e-04 4.104388e-02 -1.243380e-03) (0.000000e+00 0.000000e+00 0.000000e+00))
500          	((1.974295e-01 8.929155e-01 1.759400e-19) (7.912014e-02 5.074549e-04 -1.763067e-22) (0.000000e+00 0.000000e+00 0.000000e+00)) ((-4.687806e-01 1.036505e-01 4.926916e-01) (-2.664138e-04 4.153807e-02 -1.306670e-03) (0.000000e+00 0.000000e+00 0.000000e+00))
600          	((1.963843e-01 9.363290e-01 1.744405e-19) (7.973148e-02 4.969830e-04 -1.761230e-22) (0.000000e+00 0.000000e+00 0.000000e+00)) ((-4.915727e-01 1.031017e-01 5.112604e-01) (-2.609161e-04 4.185903e-02 -1.350822e-03) (0.000000e+00 0.000000e+00 0.000000e+00))
700          	((1.958852e-01 9.678205e-01 1.730475e-19) (8.006085e-02 4.976830e-04 -1.758765e-22) (0.000000e+00 0.000000e+00 0.000000e+00)) ((-5.081058e-01 1.028398e-01 5.236447e-01) (-2.612836e-04 4.203195e-02 -1.379622e-03) (0.000000e+00 0.000000e+00 0.000000e+00))
800          	((1.955855e-01 9.904029e-01 1.720461e-19) (8.022894e-02 5.032558e-04 -1.756385e-22) (0.000000e+00 0.000000e+00 0.000000e+00)) ((-5.199615e-01 1.026824e-01 5.324090e-01) (-2.642093e-04 4.212020e-02 -1.397577e-03) (0.000000e+00 0.000000e+00 0.000000e+00))
900          	((1.953699e-01 1.006352e+00 1.713487e-19) (8.032005e-02 5.093440e-04 -1.754354e-22) (0.000000e+00 0.000000e+00 0.000000e+00)) ((-5.283348e-01 1.025692e-01 5.383812e-01) (-2.674056e-04 4.216803e-02 -1.409484e-03) (0.000000e+00 0.000000e+00 0.000000e+00))
1000         	((1.952185e-01 1.017119e+00 1.708628e-19) (8.037174e-02 5.137245e-04 -1.752752e-22) (0.000000e+00 0.000000e+00 0.000000e+00)) ((-5.339876e-01 1.024897e-01 5.421852e-01) (-2.697054e-04 4.219517e-02 -1.418372e-03) (0.000000e+00 0.000000e+00 0.000000e+00))
1100         	((1.951202e-01 1.024680e+00 1.705251e-19) (8.040227e-02 5.160793e-04 -1.751564e-22) (0.000000e+00 0.000000e+00 0.000000e+00)) ((-5.379571e-01 1.024381e-01 5.447915e-01) (-2.709416e-04 4.221119e-02 -1.425556e-03) (0.000000e+00 0.000000e+00 0.000000e+00))
1200         	((1.950588e-01 1.030418e+00 1.702797e-19) (8.042051e-02 5.172644e-04 -1.750669e-22) (0.000000e+00 0.000000e+00 0.000000e+00)) ((-5.409692e-01 1.024059e-01 5.467958e-01) (-2.715638e-04 4.222077e-02 -1.431262e-03) (0.000000e+00 0.000000e+00 0.000000e+00))
1300         	((1.950199e-01 1.034953e+00 1.700921e-19) (8.043149e-02 5.180842e-04 -1.749975e-22) (0.000000e+00 0.000000e+00 0.000000e+00)) ((-5.433503e-01 1.023855e-01 5.484101e-01) (-2.719942e-04 4.222653e-02 -1.435547e-03) (0.000000e+00 0.000000e+00 0.000000e+00))
1400         	((1.949931e-01 1.038516e+00 1.699458e-19) (8.043822e-02 5.187694e-04 -1.749422e-22) (0.000000e+00 0.000000e+00 0.000000e+00)) ((-5.452211e-01 1.023714e-01 5.496885e-01) (-2.723539e-04 4.223006e-02 -1.438757e-03) (0.000000e+00 0.000000e+00 0.000000e+00))
1500         	((1.949741e-01 1.041259e+00 1.698324e-19) (8.044240e-02 5.194261e-04 -1.748986e-22) (0.000000e+00 0.000000e+00 0.000000e+00)) ((-5.466612e-01 1.023614e-01 5.506730e-01) (-2.726987e-04 4.223226e-02 -1.441092e-03) (0.000000e+00 0.000000e+00 0.000000e+00))
1600         	((1.949599e-01 1.043334e+00 1.697458e-19) (8.044510e-02 5.200109e-04 -1.748648e-22) (0.000000e+00 0.000000e+00 0.000000e+00)) ((-5.477505e-01 1.023539e-01 5.514152e-01) (-2.730057e-04 4.223367e-02 -1.442798e-03) (0.000000e+00 0.000000e+00 0.000000e+00))
1700         	((1.949493e-01 1.044883e+00 1.696807e-19) (8.044689e-02 5.204968e-04 -1.748392e-22) (0.000000e+00 0.000000e+00 0.000000e+00)) ((-5.485634e-01 1.023484e-01 5.519649e-01) (-2.732608e-04 4.223461e-02 -1.444048e-03) (0.000000e+00 0.000000e+00 0.000000e+00))
1800         	((1.949415e-01 1.046033e+00 1.696319e-19) (8.044814e-02 5.208526e-04 -1.748199e-22) (0.000000e+00 0.000000e+00 0.000000e+00)) ((-5.491672e-01 1.023443e-01 5.523701e-01) (-2.734476e-04 4.223527e-02 -1.445026e-03) (0.000000e+00 0.000000e+00 0.000000e+00))
1900         	((1.949363e-01 1.046884e+00 1.695965e-19) (8.044897e-02 5.211150e-04 -1.748058e-22) (0.000000e+00 0.000000e+00 0.000000e+00)) ((-5.496139e-01 1.023415e-01 5.526712e-01) (-2.735854e-04 4.223571e-02 -1.445707e-03) (0.000000e+00 0.000000e+00 0.000000e+00))
2000         	((1.949344e-01 1.047499e+00 1.695727e-19) (8.044962e-02 5.212151e-04 -1.747963e-22) (0.000000e+00 0.000000e+00 0.000000e+00)) ((-5.499368e-01 1.023405e-01 5.528982e-01) (-2.736379e-04 4.223605e-02 -1.446316e-03) (0.000000e+00 0.000000e+00 0.000000e+00))
2100         	((1.949310e-01 1.047967e+00 1.695535e-19) (8.045007e-02 5.212923e-04 -1.747887e-22) (0.000000e+00 0.000000e+00 0.000000e+00)) ((-5.501825e-01 1.023388e-01 5.530618e-01) (-2.736785e-04 4.223629e-02 -1.446774e-03) (0.000000e+00 0.000000e+00 0.000000e+00))
2200         	((1.949270e-01 1.048310e+00 1.695379e-19) (8.045033e-02 5.214072e-04 -1.747824e-22) (0.000000e+00 0.000000e+00 0.000000e+00)) ((-5.503629e-01 1.023367e-01 5.531730e-01) (-2.737388e-04 4.223642e-02 -1.447035e-03) (0.000000e+00 0.000000e+00 0.000000e+00))
2300         	((1.949251e-01 1.048554e+00 1.695264e-19) (8.045050e-02 5.215066e-04 -1.747778e-22) (0.000000e+00 0.000000e+00 0.000000e+00)) ((-5.504910e-01 1.023357e-01 5.532575e-01) (-2.737909e-04 4.223651e-02 -1.447219e-03) (0.000000e+00 0.000000e+00 0.000000e+00))
2400         	((1.949240e-01 1.048747e+00 1.695183e-19) (8.045064e-02 5.215811e-04 -1.747743e-22) (0.000000e+00 0.000000e+00 0.000000e+00)) ((-5.505920e-01 1.023351e-01 5.533262e-01) (-2.738301e-04 4.223659e-02 -1.447372e-03) (0.000000e+00 0.000000e+00 0.000000e+00))
2500         	((1.949229e-01 1.048890e+00 1.695120e-19) (8.045075e-02 5.216504e-04 -1.747719e-22) (0.000000e+00 0.000000e+00 0.000000e+00)) ((-5.506672e-01 1.023345e-01 5.533769e-01) (-2.738665e-04 4.223664e-02 -1.447459e-03) (0.000000e+00 0.000000e+00 0.000000e+00))
2600         	((1.949221e-01 1.049008e+00 1.695070e-19) (8.045084e-02 5.216867e-04 -1.747696e-22) (0.000000e+00 0.000000e+00 0.000000e+00)) ((-5.507291e-01 1.023341e-01 5.534178e-01) (-2.738855e-04 4.223669e-02 -1.447578e-03) (0.000000e+00 0.000000e+00 0.000000e+00))
2700         	((1.949214e-01 1.049104e+00 1.695028e-19) (8.045090e-02 5.217283e-04 -1.747681e-22) (0.000000e+00 0.000000e+00 0.000000e+00)) ((-5.507796e-01 1.023338e-01 5.534515e-01) (-2.739074e-04 4.223672e-02 -1.447626e-03) (0.000000e+00 0.000000e+00 0.000000e+00))
2800         	((1.949209e-01 1.049179e+00 1.694994e-19) (8.045100e-02 5.217378e-04 -1.747664e-22) (0.000000e+00 0.000000e+00 0.000000e+00)) ((-5.508190e-01 1.023335e-01 5.534771e-01) (-2.739123e-04 4.223677e-02 -1.447754e-03) (0.000000e+00 0.000000e+00 0.000000e+00))
2900         	((1.949204e-01 1.049243e+00 1.694968e-19) (8.045104e-02 5.217597e-04 -1.747654e-22) (0.000000e+00 0.000000e+00 0.000000e+00)) ((-5.508527e-01 1.023332e-01 5.534988e-01) (-2.739238e-04 4.223679e-02 -1.447790e-03) (0.000000e+00 0.000000e+00 0.000000e+00))
3000         	((1.949201e-01 1.049297e+00 1.694946e-19) (8.045107e-02 5.217775e-04 -1.747646e-22) (0.000000e+00 0.000000e+00 0.000000e+00)) ((-5.508808e-01 1.023330e-01 5.535183e-01) (-2.739332e-04 4.223681e-02 -1.447820e-03) (0.000000e+00 0.000000e+00 0.000000e+00))
3100         	((1.949198e-01 1.049342e+00 1.694927e-19) (8.045110e-02 5.217925e-04 -1.747639e-22) (0.000000e+00 0.000000e+00 0.000000e+00)) ((-5.509046e-01 1.023329e-01 5.535345e-01) (-2.739411e-04 4.223683e-02 -1.447844e-03) (0.000000e+00 0.000000e+00 0.000000e+00))
3200         	((1.949196e-01 1.049380e+00 1.694912e-19) (8.045115e-02 5.217971e-04 -1.747633e-22) (0.000000e+00 0.000000e+00 0.000000e+00)) ((-5.509245e-01 1.023328e-01 5.535483e-01) (-2.739435e-04 4.223685e-02 -1.447892e-03) (0.000000e+00 0.000000e+00 0.000000e+00))
3300         	((1.949194e-01 1.049411e+00 1.694898e-19) (8.045119e-02 5.217943e-04 -1.747626e-22) (0.000000e+00 0.000000e+00 0.000000e+00)) ((-5.509407e-01 1.023327e-01 5.535586e-01) (-2.739420e-04 4.223688e-02 -1.447961e-03) (0.000000e+00 0.000000e+00 0.000000e+00))
3400         	((1.949192e-01 1.049436e+00 1.694888e-19) (8.045121e-02 5.218071e-04 -1.747622e-22) (0.000000e+00 0.000000e+00 0.000000e+00)) ((-5.509541e-01 1.023326e-01 5.535675e-01) (-2.739487e-04 4.223688e-02 -1.447969e-03) (0.000000e+00 0.000000e+00 0.000000e+00))
3500         	((1.949191e-01 1.049458e+00 1.694879e-19) (8.045122e-02 5.218170e-04 -1.747619e-22) (0.000000e+00 0.000000e+00 0.000000e+00)) ((-5.509657e-01 1.023325e-01 5.535759e-01) (-2.739539e-04 4.223689e-02 -1.447977e-03) (0.000000e+00 0.000000e+00 0.000000e+00))
3600         	((1.949190e-01 1.049475e+00 1.694872e-19) (8.045123e-02 5.218245e-04 -1.747616e-22) (0.000000e+00 0.000000e+00 0.000000e+00)) ((-5.509743e-01 1.023325e-01 5.535815e-01) (-2.739579e-04 4.223689e-02 -1.447985e-03) (0.000000e+00 0.000000e+00 0.000000e+00))
