# Force coefficients
# liftDir    : (0.000000e+00 1.000000e+00 0.000000e+00)
# dragDir    : (1.000000e+00 0.000000e+00 0.000000e+00)
# pitchAxis  : (0.000000e+00 0.000000e+00 1.000000e+00)
# magUInf    : 4.500000e+01
# lRef       : 1.000000e+00
# Aref       : 4.500000e-02
# CofR       : (0.000000e+00 0.000000e+00 0.000000e+00)
# Time       	Cm           	Cd           	Cl           	Cl(f)        	Cl(r)        
100          	4.961376e-04	2.199183e-05	1.140910e-03	1.066593e-03	7.431746e-05
200          	4.928085e-04	1.926748e-05	1.140525e-03	1.063071e-03	7.745391e-05
300          	4.913406e-04	1.855722e-05	1.139668e-03	1.061175e-03	7.849363e-05
400          	4.945924e-04	1.847895e-05	1.146483e-03	1.067834e-03	7.864899e-05
500          	4.962257e-04	1.847300e-05	1.152105e-03	1.072278e-03	7.982685e-05
600          	4.997112e-04	1.841431e-05	1.159565e-03	1.079493e-03	8.007105e-05
