# Forces     
# CofR       : (0.000000e+00 0.000000e+00 0.000000e+00)
# Time       forces(pressure viscous porous)	moments(pressure viscous porous)
100          	((2.200982e-01 1.304774e+00 1.456236e-19) (7.980621e-02 7.846153e-04 -1.699882e-22) (0.000000e+00 0.000000e+00 0.000000e+00)) ((-6.850063e-01 1.155515e-01 6.348100e-01) (-4.119230e-04 4.189826e-02 -1.131851e-03) (0.000000e+00 0.000000e+00 0.000000e+00))
200          	((2.025322e-01 1.386372e+00 1.423060e-19) (7.685063e-02 1.225759e-03 -1.633879e-22) (0.000000e+00 0.000000e+00 0.000000e+00)) ((-7.278453e-01 1.063294e-01 6.260648e-01) (-6.435237e-04 4.034658e-02 -9.976585e-04) (0.000000e+00 0.000000e+00 0.000000e+00))
300          	((1.908222e-01 1.404571e+00 1.430539e-19) (7.718928e-02 1.386271e-03 -1.610378e-22) (0.000000e+00 0.000000e+00 0.000000e+00)) ((-7.373998e-01 1.001816e-01 6.191956e-01) (-7.277921e-04 4.052437e-02 -1.003316e-03) (0.000000e+00 0.000000e+00 0.000000e+00))
400          	((1.842163e-01 1.425330e+00 1.433823e-19) (7.829703e-02 1.404778e-03 -1.602208e-22) (0.000000e+00 0.000000e+00 0.000000e+00)) ((-7.482984e-01 9.671355e-02 6.216006e-01) (-7.375084e-04 4.110594e-02 -1.070206e-03) (0.000000e+00 0.000000e+00 0.000000e+00))
500          	((1.809997e-01 1.464900e+00 1.425417e-19) (7.925871e-02 1.375426e-03 -1.598336e-22) (0.000000e+00 0.000000e+00 0.000000e+00)) ((-7.690727e-01 9.502483e-02 6.360252e-01) (-7.220989e-04 4.161082e-02 -1.151708e-03) (0.000000e+00 0.000000e+00 0.000000e+00))
600          	((1.794037e-01 1.512696e+00 1.410511e-19) (7.988506e-02 1.345512e-03 -1.593207e-22) (0.000000e+00 0.000000e+00 0.000000e+00)) ((-7.941653e-01 9.418692e-02 6.549979e-01) (-7.063939e-04 4.193966e-02 -1.222191e-03) (0.000000e+00 0.000000e+00 0.000000e+00))
700          	((1.784979e-01 1.559048e+00 1.393875e-19) (8.022880e-02 1.333570e-03 -1.586796e-22) (0.000000e+00 0.000000e+00 0.000000e+00)) ((-8.185004e-01 9.371142e-02 6.738384e-01) (-7.001240e-04 4.212012e-02 -1.271010e-03) (0.000000e+00 0.000000e+00 0.000000e+00))
800          	((1.778068e-01 1.598076e+00 1.379231e-19) (8.040857e-02 1.338414e-03 -1.580167e-22) (0.000000e+00 0.000000e+00 0.000000e+00)) ((-8.389901e-01 9.334857e-02 6.896156e-01) (-7.026672e-04 4.221450e-02 -1.299623e-03) (0.000000e+00 0.000000e+00 0.000000e+00))
900          	((1.772264e-01 1.625807e+00 1.367869e-19) (8.050885e-02 1.349787e-03 -1.574334e-22) (0.000000e+00 0.000000e+00 0.000000e+00)) ((-8.535487e-01 9.304387e-02 7.002084e-01) (-7.086381e-04 4.226714e-02 -1.316628e-03) (0.000000e+00 0.000000e+00 0.000000e+00))
1000         	((1.767952e-01 1.643774e+00 1.359878e-19) (8.056714e-02 1.359753e-03 -1.571299e-22) (0.000000e+00 0.000000e+00 0.000000e+00)) ((-8.629811e-01 9.281746e-02 7.066229e-01) (-7.138705e-04 4.229775e-02 -1.328476e-03) (0.000000e+00 0.000000e+00 0.000000e+00))
1100         	((1.765005e-01 1.655598e+00 1.354254e-19) (8.060040e-02 1.365767e-03 -1.570385e-22) (0.000000e+00 0.000000e+00 0.000000e+00)) ((-8.691890e-01 9.266275e-02 7.106614e-01) (-7.170278e-04 4.231521e-02 -1.337981e-03) (0.000000e+00 0.000000e+00 0.000000e+00))
1200         	((1.762999e-01 1.664018e+00 1.350373e-19) (8.061996e-02 1.368732e-03 -1.569726e-22) (0.000000e+00 0.000000e+00 0.000000e+00)) ((-8.736092e-01 9.255745e-02 7.135090e-01) (-7.185843e-04 4.232548e-02 -1.345919e-03) (0.000000e+00 0.000000e+00 0.000000e+00))
1300         	((1.761610e-01 1.670481e+00 1.347535e-19) (8.063182e-02 1.370072e-03 -1.569228e-22) (0.000000e+00 0.000000e+00 0.000000e+00)) ((-8.770024e-01 9.248451e-02 7.157313e-01) (-7.192877e-04 4.233171e-02 -1.352415e-03) (0.000000e+00 0.000000e+00 0.000000e+00))
1400         	((1.760590e-01 1.675631e+00 1.345340e-19) (8.063875e-02 1.370924e-03 -1.568821e-22) (0.000000e+00 0.000000e+00 0.000000e+00)) ((-8.797063e-01 9.243100e-02 7.175444e-01) (-7.197350e-04 4.233534e-02 -1.357344e-03) (0.000000e+00 0.000000e+00 0.000000e+00))
1500         	((1.759838e-01 1.679734e+00 1.343618e-19) (8.064311e-02 1.371675e-03 -1.568506e-22) (0.000000e+00 0.000000e+00 0.000000e+00)) ((-8.818604e-01 9.239151e-02 7.190144e-01) (-7.201292e-04 4.233763e-02 -1.361038e-03) (0.000000e+00 0.000000e+00 0.000000e+00))
1600         	((1.759250e-01 1.682919e+00 1.342261e-19) (8.064582e-02 1.372460e-03 -1.568248e-22) (0.000000e+00 0.000000e+00 0.000000e+00)) ((-8.835326e-01 9.236061e-02 7.201599e-01) (-7.205416e-04 4.233905e-02 -1.363672e-03) (0.000000e+00 0.000000e+00 0.000000e+00))
1700         	((1.758806e-01 1.685320e+00 1.341223e-19) (8.064760e-02 1.373176e-03 -1.568057e-22) (0.000000e+00 0.000000e+00 0.000000e+00)) ((-8.847932e-01 9.233733e-02 7.210178e-01) (-7.209173e-04 4.233999e-02 -1.365577e-03) (0.000000e+00 0.000000e+00 0.000000e+00))
1800         	((1.758468e-01 1.687097e+00 1.340445e-19) (8.064881e-02 1.373761e-03 -1.567909e-22) (0.000000e+00 0.000000e+00 0.000000e+00)) ((-8.857262e-01 9.231958e-02 7.216463e-01) (-7.212243e-04 4.234063e-02 -1.367031e-03) (0.000000e+00 0.000000e+00 0.000000e+00))
1900         	((1.758212e-01 1.688408e+00 1.339864e-19) (8.064967e-02 1.374191e-03 -1.567801e-22) (0.000000e+00 0.000000e+00 0.000000e+00)) ((-8.864144e-01 9.230615e-02 7.221058e-01) (-7.214503e-04 4.234107e-02 -1.368104e-03) (0.000000e+00 0.000000e+00 0.000000e+00))
2000         	((1.758020e-01 1.689384e+00 1.339433e-19) (8.065020e-02 1.374507e-03 -1.567716e-22) (0.000000e+00 0.000000e+00 0.000000e+00)) ((-8.869264e-01 9.229604e-02 7.224464e-01) (-7.216161e-04 4.234136e-02 -1.368906e-03) (0.000000e+00 0.000000e+00 0.000000e+00))
2100         	((1.757915e-01 1.690095e+00 1.339147e-19) (8.065063e-02 1.374647e-03 -1.567663e-22) (0.000000e+00 0.000000e+00 0.000000e+00)) ((-8.872998e-01 9.229056e-02 7.227095e-01) (-7.216899e-04 4.234158e-02 -1.369554e-03) (0.000000e+00 0.000000e+00 0.000000e+00))
2200         	((1.757814e-01 1.690615e+00 1.338930e-19) (8.065089e-02 1.374746e-03 -1.567619e-22) (0.000000e+00 0.000000e+00 0.000000e+00)) ((-8.875728e-01 9.228525e-02 7.228907e-01) (-7.217416e-04 4.234172e-02 -1.370030e-03) (0.000000e+00 0.000000e+00 0.000000e+00))
2300         	((1.757718e-01 1.691013e+00 1.338750e-19) (8.065111e-02 1.374836e-03 -1.567585e-22) (0.000000e+00 0.000000e+00 0.000000e+00)) ((-8.877816e-01 9.228021e-02 7.230189e-01) (-7.217890e-04 4.234183e-02 -1.370426e-03) (0.000000e+00 0.000000e+00 0.000000e+00))
2400         	((1.757664e-01 1.691308e+00 1.338609e-19) (8.065121e-02 1.374957e-03 -1.567560e-22) (0.000000e+00 0.000000e+00 0.000000e+00)) ((-8.879367e-01 9.227737e-02 7.231233e-01) (-7.218524e-04 4.234189e-02 -1.370617e-03) (0.000000e+00 0.000000e+00 0.000000e+00))
2500         	((1.757627e-01 1.691515e+00 1.338516e-19) (8.065134e-02 1.375041e-03 -1.567546e-22) (0.000000e+00 0.000000e+00 0.000000e+00)) ((-8.880453e-01 9.227541e-02 7.231949e-01) (-7.218964e-04 4.234195e-02 -1.370790e-03) (0.000000e+00 0.000000e+00 0.000000e+00))
2600         	((1.757595e-01 1.691680e+00 1.338443e-19) (8.065139e-02 1.375115e-03 -1.567529e-22) (0.000000e+00 0.000000e+00 0.000000e+00)) ((-8.881321e-01 9.227375e-02 7.232550e-01) (-7.219352e-04 4.234198e-02 -1.370887e-03) (0.000000e+00 0.000000e+00 0.000000e+00))
2700         	((1.757572e-01 1.691807e+00 1.338385e-19) (8.065149e-02 1.375164e-03 -1.567522e-22) (0.000000e+00 0.000000e+00 0.000000e+00)) ((-8.881988e-01 9.227255e-02 7.232988e-01) (-7.219609e-04 4.234203e-02 -1.371002e-03) (0.000000e+00 0.000000e+00 0.000000e+00))
2800         	((1.757558e-01 1.691914e+00 1.338343e-19) (8.065158e-02 1.375201e-03 -1.567517e-22) (0.000000e+00 0.000000e+00 0.000000e+00)) ((-8.882547e-01 9.227180e-02 7.233363e-01) (-7.219806e-04 4.234208e-02 -1.371119e-03) (0.000000e+00 0.000000e+00 0.000000e+00))
2900         	((1.757536e-01 1.691998e+00 1.338300e-19) (8.065162e-02 1.375235e-03 -1.567508e-22) (0.000000e+00 0.000000e+00 0.000000e+00)) ((-8.882991e-01 9.227066e-02 7.233650e-01) (-7.219982e-04 4.234210e-02 -1.371173e-03) (0.000000e+00 0.000000e+00 0.000000e+00))
3000         	((1.757522e-01 1.692070e+00 1.338269e-19) (8.065164e-02 1.375260e-03 -1.567502e-22) (0.000000e+00 0.000000e+00 0.000000e+00)) ((-8.883368e-01 9.226992e-02 7.233898e-01) (-7.220116e-04 4.234211e-02 -1.371211e-03) (0.000000e+00 0.000000e+00 0.000000e+00))
3100         	((1.757510e-01 1.692128e+00 1.338246e-19) (8.065164e-02 1.375280e-03 -1.567496e-22) (0.000000e+00 0.000000e+00 0.000000e+00)) ((-8.883670e-01 9.226925e-02 7.234093e-01) (-7.220218e-04 4.234211e-02 -1.371243e-03) (0.000000e+00 0.000000e+00 0.000000e+00))
3200         	((1.757501e-01 1.692173e+00 1.338222e-19) (8.065173e-02 1.375281e-03 -1.567493e-22) (0.000000e+00 0.000000e+00 0.000000e+00)) ((-8.883906e-01 9.226880e-02 7.234249e-01) (-7.220226e-04 4.234216e-02 -1.371343e-03) (0.000000e+00 0.000000e+00 0.000000e+00))
3300         	((1.757494e-01 1.692215e+00 1.338205e-19) (8.065173e-02 1.375298e-03 -1.567489e-22) (0.000000e+00 0.000000e+00 0.000000e+00)) ((-8.884129e-01 9.226842e-02 7.234409e-01) (-7.220314e-04 4.234216e-02 -1.371359e-03) (0.000000e+00 0.000000e+00 0.000000e+00))
3400         	((1.757487e-01 1.692252e+00 1.338191e-19) (8.065173e-02 1.375312e-03 -1.567486e-22) (0.000000e+00 0.000000e+00 0.000000e+00)) ((-8.884325e-01 9.226805e-02 7.234530e-01) (-7.220386e-04 4.234216e-02 -1.371375e-03) (0.000000e+00 0.000000e+00 0.000000e+00))
3500         	((1.757483e-01 1.692275e+00 1.338178e-19) (8.065174e-02 1.375323e-03 -1.567483e-22) (0.000000e+00 0.000000e+00 0.000000e+00)) ((-8.884444e-01 9.226787e-02 7.234618e-01) (-7.220444e-04 4.234216e-02 -1.371388e-03) (0.000000e+00 0.000000e+00 0.000000e+00))
3600         	((1.757478e-01 1.692297e+00 1.338169e-19) (8.065174e-02 1.375332e-03 -1.567481e-22) (0.000000e+00 0.000000e+00 0.000000e+00)) ((-8.884560e-01 9.226762e-02 7.234696e-01) (-7.220492e-04 4.234216e-02 -1.371399e-03) (0.000000e+00 0.000000e+00 0.000000e+00))
