/*--------------------------------*- C++ -*----------------------------------*\
| =========                 |                                                 |
| \\      /  F ield         | OpenFOAM: The Open Source CFD Toolbox           |
|  \\    /   O peration     | Version:  5.x                                   |
|   \\  /    A nd           | Web:      www.OpenFOAM.org                      |
|    \\/     M anipulation  |                                                 |
\*---------------------------------------------------------------------------*/
FoamFile
{
    version     2.0;
    format      ascii;
    class       volScalarField;
    location    "300";
    object      p;
}
// * * * * * * * * * * * * * * * * * * * * * * * * * * * * * * * * * * * * * //

dimensions      [0 2 -2 0 0 0 0];

internalField   nonuniform List<scalar> 
6584
(
31.1744
30.093
29.1611
28.6735
28.5631
28.9521
29.8175
31.1929
32.7413
34.243
34.6976
33.0289
28.4232
21.0228
11.9067
2.41387
-6.39804
-14.2117
-20.8479
-26.4288
-31.0717
-35.01
-38.2171
-41.1523
30.9143
29.9043
28.9191
28.4169
28.2641
28.6483
29.5412
31.0755
32.8779
34.8285
35.7485
34.415
29.7398
21.8682
12.1874
2.10108
-6.99552
-14.9186
-21.5205
-27.0222
-31.5577
-35.4355
-38.5382
-41.5519
30.3531
29.3566
28.2695
27.69
27.4268
27.7706
28.7322
30.7069
33.0729
35.7179
39.0685
39.7873
35.9918
27.3048
15.8327
0.948679
-8.82705
-16.9724
-23.4336
-28.6619
-32.8981
-36.552
-39.4337
-42.4061
29.6177
28.5562
27.3169
26.5751
26.1045
26.2804
27.254
29.6517
33.5693
37.9106
44.4052
48.5449
45.4454
33.4867
17.7577
3.16587
-12.0145
-20.3779
-26.4597
-31.1516
-34.8901
-38.1475
-40.7115
-43.5008
28.7681
27.5667
26.1184
25.0964
24.2712
24.0167
24.6812
27.0743
31.023
39.2777
50.6251
61.9821
60.9197
41.7331
17.7024
-1.13934
-13.8752
-25.6984
-30.8505
-34.472
-37.4474
-40.1017
-42.2505
-44.7238
27.857
26.4439
24.7304
23.2883
21.9123
20.7367
20.5484
21.7037
26.6513
35.7094
52.9511
84.0026
96.5335
59.5598
12.5797
-11.2016
-23.3874
-32.7527
-36.3806
-38.4764
-40.4326
-42.2854
-43.9331
-45.9673
26.9592
25.2792
23.2682
21.3014
19.2368
16.8351
15.2302
15.0478
15.8872
21.8946
43.7696
102.033
187.708
65.366
-1.77499
-31.0964
-37.4064
-41.8875
-42.8356
-42.91
-43.6024
-44.4959
-45.5906
-47.0925
26.1574
24.1885
21.8915
19.3742
16.5659
12.819
9.15592
6.75423
0.920814
-4.92157
-2.31287
27.222
-15.5197
-57.8077
-62.5093
-55.9404
-52.0284
-49.4792
-47.2667
-46.581
-46.4654
-47.019
-47.9494
25.5254
23.2914
20.7746
17.7962
14.3567
9.50124
3.85958
-1.31292
-14.1032
-35.4617
-67.4501
-149.302
-239.01
-136.969
-96.8242
-74.4287
-60.9844
-54.9874
-50.7832
-48.8841
-47.8912
-48.0064
-48.4015
25.1134
22.6847
20.0664
16.8365
13.0822
7.7778
1.10444
-5.9091
-21.864
-50.1348
-97.4177
-206.209
-344.943
-185.335
-116.942
-85.7839
-66.0985
-57.9258
-52.6693
-50.0471
-48.5035
-48.3722
-48.3493
24.9345
22.4132
19.834
16.6206
12.9644
8.02641
1.68666
-5.38951
-19.104
-41.8691
-78.8972
-151.217
-303.021
-177.397
-113.929
-85.6831
-65.7676
-57.5083
-52.4827
-49.8057
-48.1527
-48.0167
-47.7529
24.9608
22.4539
20.0345
17.0726
13.8606
9.89735
4.97751
-0.582916
-8.5614
-18.9101
-32.7487
-46.7778
-180.628
-128.182
-92.2299
-75.2598
-60.3963
-53.9886
-50.3041
-48.2047
-46.8609
-46.9513
-46.6435
25.132
22.7258
20.5345
17.957
15.3572
12.566
9.44385
6.07918
3.91153
4.92201
10.8028
37.7592
-54.2908
-69.0943
-63.7215
-59.5501
-51.9773
-48.4711
-46.6617
-45.5578
-44.8246
-45.292
-45.1152
25.3743
23.1198
21.1649
18.9908
16.9817
15.2157
13.5933
13.8272
13.3435
20.8389
33.1601
70.8356
149.156
19.5628
-25.1338
-39.07
-43.9024
-42.8543
-42.2786
-42.2917
-42.3154
-42.3034
-43.2189
-43.2971
25.6189
23.5314
21.775
19.9385
18.371
17.2641
16.543
17.3372
18.7075
25.7496
36.6216
56.0015
61.1522
26.9807
-6.76002
-22.9936
-30.9457
-34.5433
-36.4092
-37.8472
-38.8975
-39.567
-40.9233
-41.321
25.8134
23.882
22.2646
20.6681
19.3644
18.59
18.2029
19.2834
20.6249
25.2369
32.2146
37.7166
30.8118
16.5401
-0.0960177
-14.187
-23.9544
-28.2827
-31.4528
-33.7762
-35.6154
-36.8579
-38.5846
-39.3202
25.9259
24.1257
22.5865
21.1381
19.9427
19.2835
18.8377
19.8224
20.7634
22.5504
24.8322
23.9123
24.2392
13.7365
0.947782
-9.65545
-18.4934
-23.5793
-27.3899
-30.255
-32.6335
-34.3034
-36.3185
-37.3704
25.9428
24.2444
22.7313
21.3582
20.1526
19.4581
18.7438
19.1762
19.3447
20.6465
19.5776
20.937
11.5011
8.89099
-1.37162
-8.76274
-14.7309
-20.2074
-24.1536
-27.3274
-30.0218
-31.9942
-34.2035
-35.5328
25.8637
24.2395
22.714
21.3675
20.0777
19.2808
18.2196
18.2291
17.033
18.4582
11.4583
18.917
13.6115
-0.610116
-0.346073
-8.33479
-12.9195
-17.9959
-21.7007
-24.9767
-27.7989
-29.9699
-32.2899
-33.8503
25.6972
24.125
22.563
21.2178
19.8091
18.9137
17.501
17.3339
15.1874
16.7291
11.048
14.6047
10.8011
0.551044
-0.33623
-8.07019
-11.5745
-16.4192
-19.815
-23.1007
-25.9293
-28.2257
-30.5927
-32.3396
25.4565
23.9204
22.3085
20.9553
19.4141
18.4443
16.7125
16.4392
13.7554
14.8201
9.87161
10.5703
7.38296
0.394238
-0.948508
-7.80594
-10.5903
-15.2562
-18.3352
-21.5972
-24.3617
-26.7377
-29.1064
-31.0012
25.1565
23.6459
21.9783
20.616
18.9418
17.9168
15.9176
15.5257
12.5424
13.0588
8.56233
8.24646
5.33152
-0.251499
-1.64143
-7.6419
-9.95719
-14.4023
-17.1755
-20.3918
-23.0504
-25.4764
-27.8158
-29.8267
24.8123
23.3207
21.5968
20.2285
18.4308
17.3647
15.1605
14.6517
11.5354
11.6321
7.54956
6.67471
3.97645
-0.733221
-2.19938
-7.52919
-9.54452
-13.7574
-16.2632
-19.4212
-21.9534
-24.4098
-26.7005
-28.8021
24.4381
22.9623
21.1851
19.8149
17.9093
16.8128
14.4621
13.8456
10.6976
10.4607
6.71907
5.46751
2.93558
-1.13264
-2.66003
-7.44185
-9.26292
-13.2524
-15.5371
-18.6311
-21.0328
-23.5071
-25.7381
-27.9101
24.047
22.5852
20.7599
19.3918
17.3963
16.2764
13.8276
13.1115
9.98935
9.48257
6.02709
4.54281
2.12627
-1.47844
-3.04605
-7.37249
-9.06658
-12.8463
-14.9516
-17.9796
-20.2555
-22.7389
-24.9058
-27.1322
23.6503
22.2019
20.3345
18.9713
16.9039
15.7648
13.2564
12.4497
9.38687
8.66359
5.44011
3.81813
1.49446
-1.7583
-3.36087
-7.31313
-8.92561
-12.5118
-14.4737
-17.4343
-19.5938
-22.0796
-24.182
-26.4499
23.2578
21.8221
19.919
18.5622
16.4395
15.2837
12.7452
11.8572
8.87229
7.98209
4.94564
3.24955
1.01888
-1.98216
-3.61462
-7.25981
-8.82038
-12.2292
-14.0771
-16.9709
-19.0254
-21.5082
-23.5484
-25.8459
22.8781
21.4538
19.5211
18.1707
16.0074
14.8358
12.2894
11.3295
8.42831
7.41115
4.53491
2.80164
0.638098
-2.18412
-3.81802
-7.20629
-8.73239
-11.9801
-13.7383
-16.5664
-18.5286
-21.0036
-22.9857
-25.3029
22.5182
21.1034
19.1463
17.8009
15.6097
14.4218
11.8839
10.8615
8.04282
6.92596
4.18675
2.43264
0.326778
-2.34556
-3.9769
-7.15166
-8.65368
-11.7555
-13.442
-16.2053
-18.0867
-20.5488
-22.4772
-24.8053
22.1844
20.7756
18.799
17.4553
15.2465
14.0407
11.5221
10.4446
7.70842
6.51183
3.89021
2.12627
0.0709106
-2.47308
-4.10018
-7.09396
-8.57869
-11.5477
-13.1765
-15.8747
-17.6856
-20.1291
-22.0081
-24.3384
21.8819
20.4738
18.4818
17.1347
14.9172
13.6913
11.1982
10.0695
7.41487
6.15398
3.63519
1.8692
-0.141219
-2.57374
-4.19501
-7.03132
-8.50374
-11.3495
-12.9322
-15.564
-17.3138
-19.7319
-21.5658
-23.8886
21.6158
20.2003
18.1972
16.8383
14.6209
13.3698
10.9105
9.73146
7.15662
5.84055
3.41337
1.64974
-0.321204
-2.6536
-4.26812
-6.96287
-8.42741
-11.156
-12.703
-15.2647
-16.9628
-19.3466
-21.14
-23.4439
21.3906
19.9549
17.9461
16.5633
14.3548
13.0672
10.6546
9.42061
6.92845
5.56018
3.21875
1.45871
-0.476519
-2.71449
-4.32469
-6.88572
-8.35021
-10.9608
-12.4847
-14.9674
-16.6248
-18.9613
-20.7196
-22.9892
21.2124
19.7397
17.7329
16.3096
14.1233
12.784
10.4335
9.13366
6.73177
5.30613
3.04476
1.28202
-0.621074
-2.7609
-4.37145
-6.79902
-8.27597
-10.762
-12.2799
-14.6708
-16.3026
-18.5756
-20.3074
-22.5243
21.0809
19.5308
17.547
16.0398
13.9154
12.4757
10.2349
8.82421
6.55654
5.0456
2.89385
1.12626
-0.745844
-2.78265
-4.42082
-6.68425
-8.21306
-10.5302
-12.0836
-14.3363
-15.9758
-18.1423
-19.8661
-21.9885
21.02
19.3936
17.4439
15.8527
13.8007
12.2596
10.1311
8.61109
6.46626
4.86023
2.74854
0.897126
-0.953396
-2.80108
-4.45815
-6.57495
-8.16823
-10.3364
-11.9449
-14.0719
-15.7412
-17.8084
-19.5428
-21.5756
-133.927
-233.773
-5.46542
-205.361
-369.887
-260.109
-162.827
-339.933
-375.887
-59.6051
-206.131
-325.754
29.5478
-64.3783
-187.967
71.0922
166.87
161.918
27.3934
-48.7645
49.2694
187.629
24.109
87.2546
-52.9918
-117.414
20.8463
-172.464
99.8834
-215.732
-132.243
-56.8194
-94.7161
-185.405
-131.491
-184.032
-266.204
-223.108
-462.183
-372.941
-339.616
-204.086
-155.165
-87.4222
-150.266
-186.177
-197.766
-275.502
-291.413
-508.6
-518.417
-314.831
-208.055
-211.71
-45.098
-57.8759
-139.861
-113.064
-134.983
-201.329
-332.11
-429.431
-197.27
-154.982
-198.637
-135.93
-223.984
-68.4941
-83.3774
-137.25
43.875
-28.9725
62.2937
61.1299
151.953
57.2403
41.7974
30.7096
-214.693
-121.976
-74.2196
-134.711
-231.11
90.2747
-115.843
-365.381
-196.968
-142.901
-187.919
-355.721
-290.34
-270.415
-191.791
-280.352
-300.939
-239.405
-279.599
-512.834
-466.735
-337.288
-451.64
-507.573
-362.113
-447.522
-321.801
-210.524
-269.048
-191.068
-279.126
-215.873
-300.203
-283.62
-434.106
-504.195
-371.448
-501.766
-423.236
-510.922
-505.565
-377.051
-128.739
-60.5109
-210.14
-138.909
-230.31
-325.604
-259.583
-322.297
-229.713
-417.934
-328.755
-277.115
15.0528
58.0379
-51.3075
7.88707
-40.5184
-123.969
-217.701
-135.188
-132.936
101.253
113.69
62.6
98.814
89.7299
50.459
-50.2233
-102.162
79.6094
-56.967
244.51
1.43233
24.1163
-46.1867
-10.4417
4.86573
-51.8152
29.8818
-20.5339
16.8741
-26.807
-66.7581
183.984
-74.6126
81.7711
-160.332
-108.384
-60.4448
-125.342
-99.6492
-98.6236
-58.201
52.6753
74.1319
-52.5833
-15.3468
-27.7359
-76.7442
-115.264
-123.403
-43.8369
76.7549
101.936
-33.0888
34.8198
-7.06958
310.82
197.842
119.855
131.83
203.745
313.709
-94.5087
-62.0735
-104.334
220.522
-66.1691
-22.1892
-428.128
-419.373
-524.392
-523.325
-376.048
-383.442
-171.429
-139.18
-177.014
82.236
36.5969
-21.8606
26.5258
5.0131
-208.187
-186.109
-253.297
-213.318
-256.606
-199.15
-201.747
-84.4655
-37.0168
-102.794
-197.142
-297.803
-288.469
-293.386
-293.304
-259.313
-260.939
-492.283
-491.682
-486.832
-414.107
-391.581
-434.153
-419.938
-488.925
-410.165
-342.876
-303.719
-383.322
-354.028
-416.328
-253.375
-248.028
-300.691
-298.172
-473.016
-475.902
-473.465
-410.395
-428.499
-379.592
-403.135
-469.533
-518.453
-441.926
-437.266
-433.291
-441.262
-518.804
-103.649
-99.4976
-103.808
-144.742
-58.6561
-98.4173
-89.6525
-179.981
-149.48
-169.631
-275.143
-281.962
-376.862
-342.546
-371.06
-301.934
-332.5
-370.718
26.6598
50.4389
-24.2479
-15.9622
-53.0817
20.4135
-11.2047
-15.8332
-10.2343
22.6414
-75.8103
-77.7235
-28.663
-133.45
-83.4562
-88.3547
-81.0186
132.759
147.61
189.053
105.152
127.492
195.77
120.257
86.5022
452.445
30.3289
58.3253
31.6337
57.567
86.7161
60.7023
99.4996
78.0999
88.7565
275.343
54.7941
11.7699
0.507921
69.372
77.9031
224.039
144.828
143.34
82.5898
92.5394
126.486
125.241
193.962
470.249
323.03
215.038
282.588
356.424
482.35
-251.502
-209.49
-227.049
-451.861
-399.611
-394.867
-288.395
-242.319
-234.474
-246.312
-246.265
-290.566
-517.925
-520.086
-351.217
-410.667
103.488
91.7148
15.6202
32.548
71.4062
109.634
90.1099
102.505
-6.17951
-61.1357
171.378
-337.941
-367.901
-395.238
-266.544
-218.853
-153.371
-288.913
-236.652
-288.369
-284.164
-241.418
-247.934
-229.139
-241.138
-281.362
-287.251
-310.207
-301.711
-327.338
-326.353
-297.565
-299.08
-293.061
-271.562
-506.775
-477.509
-467.37
-437.124
-428.714
-471.55
-463.106
-501.104
-228.227
-213.61
-245.751
-269.482
-289.362
-307.945
-302.468
-331.968
-328.616
-312.148
-323.755
-290.78
-451.945
-493.652
-491.007
-455.208
-463.619
-411.87
-416.502
-441.674
-514.971
-477.964
-471.678
-468.295
-473.586
-513.731
-249.223
-258.488
-237.821
-334.4
-320.545
-307.872
-279.66
-259.526
-291.392
-216.758
-248.536
-266.922
34.8865
45.6404
24.2171
70.1839
52.2642
40.8013
144.209
151.257
79.8847
95.5894
76.1798
133.766
142.43
120.804
108.382
55.3294
342.208
104.583
38.2519
7.34389
11.3183
40.7465
2.89191
-0.023796
56.9102
47.039
260.421
-5.23555
18.2115
-81.9303
-73.2021
62.1895
67.0851
61.8814
67.0777
60.5353
77.9027
69.4652
64.3846
-35.4433
-29.564
-48.0513
-55.0356
86.8936
90.9675
80.7919
96.8078
111.385
-165.173
-140.604
-62.6693
-220.473
-162.726
-188.404
-448.134
-401.062
-520.145
-524.119
-356.929
-404.51
-164.465
-160.58
-180.267
-135.905
-154.596
-156.048
-213.293
-233.871
-186.648
-205.462
63.6422
80.5608
96.5389
46.2944
73.166
57.9364
78.7476
49.1564
-232.348
-203.459
-225.225
-165.946
-195.054
-224.177
-250.854
-261.926
-231.2
-246.846
-154.386
-117.753
-155.993
-169.997
-184.693
-339.927
-360.079
-330.377
-340.88
-291.711
-238.576
-332.668
-305.895
-251.008
-287.654
-329.547
-319.627
-313.701
-287.696
-317.294
-323.555
-312.359
-313.289
-332.535
-330.682
-322.829
-329.374
-297.866
-324.55
-320.057
-283.918
-294.408
-265.628
-279.397
-304.005
-309.646
-296.776
-303.425
-270.48
-291.674
-285.05
-506.306
-477.688
-451.056
-438.902
-472.431
-499.084
-462.401
-452.246
-269.501
-284.107
-264.46
-293.81
-278.865
-314.529
-299.026
-254.699
-234.095
-273.326
-259.538
-332.435
-331.597
-300.979
-336.196
-339.555
-332.777
-337.623
-329.506
-316.314
-336.45
-332.404
-294.398
-326.214
-330.908
-457.509
-486.103
-439.652
-449.803
-485.489
-450.158
-422.426
-434.086
-480.228
-477.145
-517.29
-515.826
-477.125
-478.152
-120.95
-119.044
-116.352
-100.592
-138.787
-121.935
-127.796
-74.9539
-72.9564
-60.8151
-95.2846
-78.3319
-80.9268
-205.314
-188.287
-227.453
-211.033
-165.107
-160.53
-144.231
-182.849
-165.947
-173.194
-285.195
-266.302
-256.17
-267.603
-284.848
-239.674
-259.375
-291.156
-301.287
-313.21
-289.789
38.0662
43.2976
33.8966
58.4017
47.1349
41.6351
59.8986
5.06961
29.0411
10.0525
-112.836
-111.042
-129.533
-82.9664
-104.799
-105.423
-104.93
-112.186
154.696
169.822
116.952
129.944
152.621
126.553
9.30654
-33.921
9.44579
3.9884
43.7849
68.9381
632.75
467.776
389.304
488.143
537.516
652.873
75.6972
165.547
110.138
-181.073
-205.326
-245.601
-458.045
-460.541
-465.461
-514.71
-518.351
-178.065
-155.824
-173.704
-431.092
-425.151
-423.8
-231.386
-210.734
-205.105
-183.333
-141.769
-174.272
-255.881
-242.187
-221.47
-226.944
-273.732
-239.471
-245.912
-271.417
-259.713
-508.932
-471.71
-476.286
-471.086
-491.7
-489.126
-504.696
-420.621
-412.081
-436.015
-237.233
-205.87
-186.613
-228.254
-245.408
-229.979
-439.465
-437.452
-433.69
-501.28
-498.495
-481.079
-484.435
-512.408
-495.979
-494.153
-488.084
-491.461
-509.63
-199.011
-207.722
-222.773
-400.539
-387.872
-400.215
-181.741
-173.808
-205.893
150.493
151.133
119.468
102.281
84.1
150.675
150.893
81.2137
106.126
72.6563
-45.1982
-24.3132
-93.4819
-57.561
-63.0122
-63.9639
-46.9534
-46.3541
-51.9564
-13.7922
-18.5715
-20.3025
-75.7368
-69.5954
-70.3062
109.044
95.1262
89.9509
192.321
306.907
255.015
-117.186
-134.914
-114.69
-83.3711
-236.134
-216.939
-37.218
40.2251
58.2197
-440.113
-442.487
-435.299
-412.222
-426.745
-433.228
-528.067
-523.993
-383.012
-376.051
-369.062
-391.283
-397.103
-390.127
-176.873
-182.26
-138.161
-144.392
-144.763
-187.337
-192.503
-198.602
-203.567
-185.326
-216.797
-245.134
-245.896
-251.947
-189.821
-199.945
-222.253
-273.949
-279.364
-256.554
-259.487
-256.64
-60.7346
-106.615
-138.898
-125.829
-118.069
-129.903
-181.434
-268.921
-258.056
-282.818
-274.74
-248.045
-283.326
-284.065
-495.57
-491.116
-380.29
-367.622
-390.882
-432.431
-402.759
-392.084
-235.548
-250.317
-264.386
-467.346
-477.946
-501.548
-501.472
-518.559
-519.922
-501.6
-501.462
-108.698
-109.386
-108.353
-102.632
-143.717
-138.459
-140.281
-186.055
-202.321
-190.32
-199.262
-194.081
-230.651
-226.126
-154.418
-154.329
-148.952
-189.324
-184.612
-364.842
-376.204
-394.579
-353.37
-342.666
-353.696
-30.5552
-29.678
-20.3383
-51.1217
-40.1134
-36.1044
-55.8292
-60.3611
-76.4169
-34.7499
-47.7439
-48.7447
-126.179
-125.515
-131.649
-90.1592
-83.6245
-130.161
171.893
174.4
183.188
126.764
119.891
126.097
113.998
139.046
129.657
122.023
183.395
156.653
101.965
116.544
106.735
195.009
379.895
103.689
71.8907
74.7492
173.383
177.652
198.995
85.0663
84.589
79.898
92.8161
88.5988
88.5357
194.86
165.398
158.054
336.78
483.231
432.531
-456.407
-457.519
-454.818
-402.104
-403.994
-397.686
-416.247
-405.225
-518.073
-517.958
-357.174
-361.288
-341.439
-349.457
-417.081
-417.408
-410.904
97.6046
101.787
107.696
91.6072
96.8553
92.7901
-376.48
-374.817
-365.886
-391.132
-383.189
-386.176
-506.441
-474.391
-477.381
-477.783
-502.471
-486.994
-484.964
-446.905
-441.151
-446.224
-500.442
-473.522
-477.647
-495.742
-498.706
-497.157
-513.286
-512.374
-494.235
-496.138
-328.54
-329.174
-333.837
-317.915
-323.379
-324.217
152.548
154.683
143.811
147.12
137.218
143.115
139.576
126.253
119.272
116.63
122.385
125.875
111.981
115.749
112.688
40.0304
17.6484
6.57852
73.8563
286.804
244.69
316.863
127.685
160.439
210.261
20.2017
18.6953
10.2025
35.3968
27.4286
29.2206
-12.8198
-9.81854
-19.0025
2.05313
-5.21518
-4.77902
76.9883
94.1877
35.5021
-64.011
-95.7429
-21.2434
-28.0608
-88.4573
-69.3963
-68.4774
-75.6575
63.3692
65.0134
57.0269
59.598
62.6733
-35.0483
-40.7898
-41.2912
-17.6024
-12.6093
-23.9365
-24.4066
-21.5585
-29.2101
-44.67
-40.2225
-42.0204
-38.9568
-47.4903
-25.8826
-32.4198
-62.8896
-62.3374
-54.4658
101.342
102.192
97.3757
113.025
107.371
106.192
-173.006
-143.927
-139.752
-208.553
-216.855
-196.584
-444.041
-442.356
-448.493
-454.108
-424.663
-422.374
-435.599
-428.704
-524.744
-525.963
-375.065
-381.043
-365.399
-369.927
-362.711
-369.963
-364.52
-405.817
-401.111
-398.188
-390.394
-161.298
-170.57
-150.219
-150.578
-156.62
-221.054
-222.191
-213.848
-234.47
-229.788
-228.004
-192.908
-193.443
-187.687
-206.276
-197.519
-198.534
-199.723
54.8589
50.6615
42.3652
68.6223
58.6654
-222.795
-232.402
-239.822
-238.402
-228.016
-211.698
-221.529
-267.817
-269.921
-276.602
-272.669
-257.988
-256.581
-264.852
-156.834
-140.823
-152.063
-114.455
-192.488
-181.649
-172.958
-349.997
-332.905
-321.959
-355.687
-345.597
-359.429
-363.322
-351.118
-273.381
-275.66
-294.187
-259.175
-274.375
-257.025
-320.884
-306.834
-313.256
-317.472
-321.138
-324.262
-313.858
-317.337
-317.417
-315.853
-314.875
-331.359
-330.017
-323.931
-326.314
-289.398
-294.981
-289.067
-296.807
-296.149
-292.421
-269.351
-282.464
-279.994
-289.199
-285.626
-273.741
-286.012
-288.1
-305.29
-307.433
-306.429
-313.221
-310.005
-307.281
-299.339
-302.715
-299.424
-307.488
-307.689
-302.234
-499.949
-485.027
-289.451
-291.515
-294.105
-279.946
-286.715
-284.566
-309.799
-297.174
-301.405
-304.246
-248.506
-251.233
-258.116
-237.316
-243.768
-241.361
-268.388
-269.411
-273.987
-262.363
-265.523
-263.835
-336.693
-338.376
-335.623
-338.854
-323.952
-319.529
-333.494
-332.087
-461.757
-481.214
-518.771
-501.372
-500.187
-498.343
-500.298
-518.42
-113.889
-119.222
-114.059
-114.845
-134.853
-132.553
-125.668
-212.172
-205.18
-199.494
-204.718
-210.917
-221.987
-226.933
-231.363
-216.821
-221.798
-216.41
-222.66
-218.891
-165.907
-160.019
-159.555
-179.637
-171.374
-279.416
-275.517
-282.014
-261.945
-268.898
-273.395
-275.406
-280.413
-243.974
-245.877
-239.309
-252.093
-304.788
-303.299
-311.116
-288.115
-295.319
-297.47
39.9427
38.8932
42.3832
31.6949
35.4974
37.1083
57.0182
52.5981
54.6147
46.0247
49.6976
51.3017
54.9147
2.62217
7.70376
-7.63232
-2.32754
24.191
22.9023
27.1096
13.0715
20.3393
17.9259
-112.2
-119.327
-120.141
-97.5196
-119.957
158.251
163.307
121.894
128.042
119.472
135.597
131.083
125.735
134.788
140.434
143.075
132.412
53.365
70.6912
56.7199
77.7155
87.3665
63.8836
85.7588
66.3086
53.1907
55.8111
30.4949
29.6578
30.1045
40.6396
43.965
48.979
85.6094
75.1453
105.275
169.557
98.1269
169.375
92.393
72.0612
67.377
17.2136
26.377
5.71091
-10.3788
-1.08559
10.0538
9.41116
35.7205
13.0624
39.3835
84.7738
99.3271
163.537
143.558
271.181
194.501
155.301
65.2681
31.7122
42.7596
-39.7953
-41.0615
-23.0897
-21.0508
-43.785
-3.00078
-19.3206
-23.2972
-1.31239
2.56608
5.62793
35.5628
-102.762
-95.2354
-42.4847
-118.418
-88.3187
-63.6255
-45.6342
-78.5621
-55.414
-79.5777
-98.947
-84.347
-162.863
-183.247
-168.83
-295.257
-230.777
-185.13
-178.747
-129.398
-111.429
-48.6471
-73.8755
-80.9067
-97.0813
-117.828
-119.152
-205.426
-228.288
-229.139
-345.82
-276.039
-268.745
-184.764
-141.407
-139.733
-31.3372
-39.8837
-67.0568
-68.7016
-79.9052
-93.0055
-139.033
-150.391
-164.55
-261.465
-222.1
-248.663
-142.815
-121.516
-134.795
-6.35819
-0.89122
-29.6813
-34.1854
-33.6343
-47.6545
-130.455
-122.794
-161.304
-83.2803
-84.3957
-103.899
13.9569
24.6905
7.14965
-15.914
-37.1774
-58.1208
-33.6833
-47.9951
-65.1983
24.2521
30.1788
26.8178
37.7415
54.5376
60.8196
68.5465
84.4385
99.7349
112.105
116.872
118.325
28.635
-0.779858
-17.6536
-13.2934
-23.0733
-33.9609
25.9674
30.744
31.1963
34.6912
39.2993
50.1673
41.4096
40.3895
66.1792
37.7354
28.463
37.9741
21.7056
7.73976
1.30758
-1.8342
-11.0923
-15.9693
28.3288
31.3066
34.3365
25.5675
33.7464
33.8156
29.0153
16.925
25.837
15.7453
7.83968
9.03357
-151.997
-132.325
-116.155
-203.852
-227.743
-274.996
10.6931
-26.7355
-38.3773
-228.007
-224.959
-202.468
-361.36
-401.315
-416.041
-288.688
-326.56
-283.313
-178.124
-190.746
-173.379
-352.519
-390.818
-368.008
-418.932
-424.664
-379.221
-61.6612
-75.8057
-72.781
-223.552
-242.332
-213.689
-359.142
-332.525
-310.372
-80.8494
-77.9255
-60.3215
-195.525
-174.702
-169.3
100.641
93.03
61.2854
185.855
171.467
157.313
154.51
152.879
183.231
-43.2679
-26.4643
-33.7174
104.738
164.481
92.6446
743.05
635.79
643.288
158.892
192.011
268.883
750.639
780.089
46.5682
70.1003
45.026
137.985
162.235
83.872
-66.3436
-45.5711
-36.5509
-63.4472
-53.6361
-80.1566
3.73356
-24.7484
-42.9372
-139.315
-151.297
-208.981
123.492
78.5788
62.2103
-170.319
-113.412
-132.621
-107.211
-113.347
-145.061
-50.9178
-81.1443
-81.8064
-116.471
-109.69
-88.631
-171.829
-133.58
-141.488
-102.735
-120.645
-164.667
-205.541
-195.386
-174.242
-261.698
-247.946
-252.718
-208.53
-216.695
-229.923
-382.522
-391.731
-380.48
-267.109
-239.282
-309.57
-191.696
-219.35
-234.128
-174.108
-199.206
-175.402
-104.17
-112.646
-93.5539
-174.269
-135.441
-124.402
-144.378
-142.299
-180.055
-219.645
-225.115
-202.448
-280.885
-263.333
-258.72
-274.512
-274.66
-291.972
-258.705
-271.026
-341.011
-213.549
-243.673
-235.84
-243.105
-246.292
-215.029
-50.5404
-65.5259
-57.2212
-93.9189
-75.3063
-56.7215
-110.05
-93.3699
-106.043
-120.804
-135.73
-126.187
-163.945
-147.015
-123.266
-193.821
-185.182
-192.949
-338.923
-346.528
-338.292
-174.721
-209.391
-246.034
-171.483
-189.077
-168.686
-223.488
-207.634
-186.348
-147.951
-153.917
-135.304
-226.915
-220.576
-217.943
-81.967
-104.06
-114.529
-100.883
-104.432
-83.6522
-147.199
-125.268
-119.015
35.0609
43.4998
52.8344
-25.7035
-13.4618
-17.4562
65.4162
79.1886
66.3017
91.0642
83.7739
75.381
135.838
120.656
114.563
68.5999
73.537
88.6394
42.1861
63.6862
50.992
73.0366
66.2595
40.0716
-205.317
-190
-199.784
-88.9883
-131.445
-170.497
-96.3699
-109.711
-83.9446
-154.58
-184.515
-157.398
58.6976
64.1713
103.591
-131.988
-107.73
-93.0765
-356.918
-366.234
-374.45
-206.157
-223.354
-213.965
-152.9
-189.902
-175.272
-216.856
-202.755
-176.164
-321.866
-306.872
-325.96
-288.74
-272.808
-274.012
-256.818
-260.685
-274.436
-198.112
-220.236
-213.737
-283.614
-289.973
-287.492
-310.434
-309.507
-299.055
-285.449
-283.015
-276.117
-373.983
-395.829
-350.479
-456.591
-449.963
-443.666
-384.263
-353.987
-338.94
-441.253
-434.956
-443.114
-303.829
-337.099
-366.202
-219.6
-210.8
-202.508
-253.218
-247.302
-261.751
-182.991
-202.146
-211.862
-276.906
-285.757
-289.729
-219.428
-224.524
-220.24
-302.016
-311.972
-311.018
-293.733
-296.939
-285.372
-413.914
-397.979
-363.157
-417.751
-420.316
-428.057
-379.642
-424.111
-418.315
-118.663
-120.387
-136.653
-61.4524
-70.6602
-69.7813
-205.314
-208.798
-214.094
-142.114
-158.413
-149.101
-236.258
-239.246
-233.132
-330.738
-324.654
-319.851
-283.604
-253.035
-241.718
-305.252
-296.733
-308.21
-225.575
-237.341
-242.05
-412.616
-407.931
-411.801
-319.85
-331.418
-347.433
-294.076
-322.794
-293.889
21.9956
25.3939
18.1852
62.358
56.5273
52.3171
-42.0366
-41.3953
-51.4838
10.7397
2.92643
0.316485
-52.2458
-50.6415
-38.0895
-129.107
-113.083
-112.146
-205.565
-202.216
-213.916
-131.666
-163.025
-170.869
-150.974
-154.513
-134.87
110.737
137.204
124.377
133.409
137.581
110.822
69.0396
73.7501
67.8686
75.9539
111.492
114.711
-55.3184
-24.7352
-24.1505
-30.2194
-24.991
-74.6787
48.7317
12.064
-2.89845
278.744
222.599
199.966
-2.90357
-4.42498
10.2336
-38.3453
-20.7482
-12.927
-7.69214
-20.3
-22.0549
-18.0488
-17.6904
-3.98206
-48.1015
-32.4189
-26.0706
22.5899
25.0622
32.9163
-19.3347
-12.6627
-13.4848
-5.94899
-19.7354
-5.76601
139.888
152.717
205.073
-111.846
-81.4715
-46.9674
-23.5348
-34.1173
28.9204
-130.991
-58.6503
-60.6774
-73.1338
-68.5969
-111.266
-87.424
-82.0791
-62.1307
-114.619
-90.3615
-96.7024
-86.2164
-90.7072
-105.73
56.1229
58.1738
55.2082
75.6655
72.4392
70.4967
-35.0529
-33.6153
-26.5149
-115.514
-96.4986
-97.8658
-88.5532
-90.262
-121.478
-54.0829
-80.4958
-77.1919
80.3331
81.6711
78.593
104.02
99.8249
97.4389
-0.787072
-17.862
-36.784
14.8307
-0.511747
9.00911
-19.794
-10.9074
3.19096
268.765
316.683
424.674
188.007
277.57
246.208
203
276.847
179.121
157.516
192.357
161.783
255.248
300.701
199.853
432.055
341.449
278.225
-59.4014
-130.477
-101.577
101.229
102.937
155.286
-50.8025
-16.819
-28.1034
19.3645
28.948
-16.7982
-179.157
-159.931
-160.19
-185.699
-188.935
-184.511
75.5397
80.6197
86.3573
39.9949
47.1857
43.2054
-1.73435
-9.01902
-21.7423
16.5174
3.75585
5.2023
-6.13701
-1.2588
10.8211
-213.393
-192.193
-171.474
-210.889
-237.25
-219.485
-184.895
-168.149
-179.678
-67.2955
-89.5396
-104.3
-66.4187
-77.9693
-48.3376
-311.088
-322.065
-310.142
-275.335
-288.033
-300.158
-301.665
-300.009
-290.839
-295.672
-304.246
-302.777
-266.835
-263.855
-254.83
-265.173
-272.063
-269.27
-471.436
-468.606
-484.111
-407.165
-426.098
-433.633
-410.821
-417.569
-399.628
-429.994
-451.602
-456.356
-440.154
-446.222
-425.459
-491.823
-476.583
-473.773
-399.447
-391.335
-403.515
-330.626
-349.322
-361.575
-322.094
-336.295
-317.788
-374.188
-393.409
-402.459
-372.996
-383.662
-364.65
-422.357
-411.919
-403.966
-258.506
-262.923
-256.508
-244.63
-249.161
-253.636
-311.652
-312.043
-300.113
-298.082
-309.1
-310.332
-456.68
-460.365
-476.918
-416.926
-439.655
-431.979
-452.909
-446.761
-423.197
-387.551
-404.446
-393.835
-423.567
-414.346
-395.668
-464.103
-448.363
-452.702
-441.249
-465.691
-466.812
-460.342
-463.52
-439.858
-436.893
-462.3
-458.216
-466.644
-465.209
-439.759
-100.52
-115.081
-108.733
-64.5311
-64.0105
-58.3741
-97.073
-91.4711
-92.9548
-79.5786
-80.7231
-91.2764
-159.355
-163.931
-180.533
-278.522
-272.531
-269.251
-288.214
-291.212
-284.655
-372.047
-377.513
-382.858
-352.257
-364.465
-354.116
-384.396
-374.617
-361.982
-312.217
-321.765
-310.666
-343.506
-332.754
-322.519
-364.993
-359.624
-364.954
30.6142
32.2648
28.3293
52.632
50.1372
48.0042
-22.7862
-31.807
-32.9931
-20.6879
-21.781
-16.8234
-53.2595
-47.5358
-47.443
8.19686
6.48023
14.3937
-11.3404
-2.24106
3.58697
-7.57967
-5.39034
-14.0466
-5.0935
-3.47889
-8.64906
24.0204
19.8112
18.6689
-75.132
-63.3486
-63.9411
-71.0172
-70.9674
-77.1096
-29.6295
-36.9331
-35.6838
-83.3042
-90.2116
-90.2589
-100.783
-99.4458
-87.5991
137.618
148.829
141.227
163.004
151.69
142.147
109.852
111.52
107.831
110.868
121.781
142.492
91.3349
96.3922
93.2178
53.1848
41.9762
47.2207
22.9571
33.4342
50.0935
78.7382
68.751
75.7996
52.1436
60.6853
69.4669
95.5538
102.879
108.811
80.6829
94.2334
87.3092
109.209
95.5417
83.1762
37.2886
32.024
42.4319
8.86427
20.8576
31.4267
10.8833
15.3653
4.19383
201.19
215.548
263.588
148.29
166.727
162.625
151.057
160.951
148.788
130.901
139.912
133.667
145.562
149.842
132.714
247.529
189.861
189.54
428.885
467.512
585.907
321.399
384.95
373.921
329.549
414.339
301.196
313.483
357.226
323.755
407.197
473.142
362.474
601.584
518.462
456.445
-237.225
-242.943
-256.881
-217.216
-229.274
-223.285
-239.04
-234.048
-220.297
-387.458
-399.994
-409.923
-270.312
-267.346
-285.205
-241.664
-255.325
-257.728
-247.539
-251.483
-236.511
-248.281
-261.757
-261.288
-260.031
-260.909
-245.563
-291.674
-273.916
-272.634
-359.279
-353.834
-345.453
22.5957
33.4723
25.7636
49.1857
40.1041
28.6295
61.8161
51.3792
60.5879
104.122
112.585
127.241
95.4725
103.653
97.0547
114.106
106.475
97.9887
-13.7675
24.4104
26.2204
27.5321
26.3395
-20.79
121.594
75.3432
61.7865
-349.792
-358.235
-349.201
-249.249
-226.758
-242.84
-196.56
-210.861
-232.775
-164.02
-188.429
-176.901
-273.141
-290.111
-306.454
-253.118
-272.574
-256.225
-308.607
-289.288
-270.013
-269.202
-271.329
-286.668
-245.484
-258.011
-255.526
-260.925
-259.363
-244.86
-234.986
-247.002
-242.88
-253.329
-250.019
-236.179
-278.061
-263.892
-266.883
-294.276
-292.015
-284.215
-307.864
-300.105
-301.841
-296.194
-298.206
-304.43
-326.667
-315.375
-316.099
-314.228
-314.993
-326.697
-299.648
-308.977
-307.883
-296.755
-291.962
-294.15
-287.88
-289.949
-294.731
-275.2
-281.084
-278.751
-457.157
-453.242
-461.321
-430.7
-442.426
-447.142
-467.605
-481.735
-484.416
-476.97
-479.65
-467.199
-224.971
-236.964
-242.252
-224.216
-230.527
-217.887
-253.903
-240.743
-233.927
-276.708
-280.993
-272.026
-295.005
-287.39
-283.262
-295.93
-291.918
-301.995
-312.825
-312.367
-301.031
-331.867
-318.976
-319.264
-316.994
-318.107
-330.237
-316.01
-302.695
-299.432
-309.182
-306.087
-319.952
-289.493
-300.332
-302.931
-457.189
-472.726
-469.236
-479.31
-476.38
-462.173
-427.303
-422.631
-412.746
-434.78
-427.663
-432.803
-474.843
-489.798
-491.565
-486.38
-488.567
-475.239
-469.276
-485.329
-482.734
-489.678
-488.033
-473.389
-252.56
-245.795
-242.869
-250.657
-247.521
-254.662
-234.911
-240.854
-243.632
-313.918
-318.257
-312.093
-273.544
-285.839
-291.5
-270.278
-277.108
-265.795
-299.467
-288.208
-280.911
-226.445
-231.957
-221.083
-254.43
-243.094
-237.417
-254.593
-249.343
-261.323
38.9329
32.2636
28.5462
38.964
35.8744
42.1068
21.8486
29.0725
35.5888
64.0083