/*--------------------------------*- C++ -*----------------------------------*\
| =========                 |                                                 |
| \\      /  F ield         | OpenFOAM: The Open Source CFD Toolbox           |
|  \\    /   O peration     | Version:  5.x                                   |
|   \\  /    A nd           | Web:      www.OpenFOAM.org                      |
|    \\/     M anipulation  |                                                 |
\*---------------------------------------------------------------------------*/
FoamFile
{
    version     2.0;
    format      ascii;
    class       volScalarField;
    location    "300";
    object      p_rgh;
}
// * * * * * * * * * * * * * * * * * * * * * * * * * * * * * * * * * * * * * //

dimensions      [0 2 -2 0 0 0 0];

internalField   nonuniform List<scalar> 
6584
(
10.1808
10.9242
11.8178
13.1556
14.8706
17.0853
19.7767
22.9777
26.3516
29.6787
31.9587
32.1156
29.3354
23.7604
16.4699
8.80261
1.8163
-4.17165
-8.9819
-12.7367
-15.5533
-17.6655
-19.0471
-20.1578
9.919
10.7312
11.57
12.8929
14.5653
16.7762
19.4974
22.8589
26.4871
30.2631
33.0085
33.5004
30.6508
24.6048
16.7495
8.4893
1.21952
-4.87643
-9.6505
-13.3247
-16.0336
-18.0852
-19.3636
-20.5562
9.35703
10.1798
10.9134
12.1574
13.719
15.8894
18.6815
22.4872
26.6806
30.6954
35.8713
38.4156
36.4455
29.5841
19.9377
7.33997
-0.604743
-6.921
-11.5543
-14.9558
-17.3663
-19.1959
-20.2568
-21.4099
8.62127
9.37837
9.95797
11.0368
12.3893
14.3905
17.1943
21.4247
27.1733
32.8871
41.207
47.172
45.898
35.7655
21.8688
9.10903
-3.77787
-10.3142
-14.5703
-17.4373
-19.3523
-20.7888
-21.5337
-22.5044
7.77155
8.38856
8.75873
9.55547
10.5508
12.1197
14.6111
18.8312
24.1604
34.2504
47.4248
60.608
61.3712
44.0197
21.8324
4.82535
-6.08305
-15.6245
-18.9532
-20.7518
-21.9067
-22.742
-23.0723
-23.7272
6.86041
7.26554
7.37023
7.74644
8.18909
8.83391
10.4675
12.9904
19.7651
30.653
49.5072
82.3978
96.756
61.6388
16.7306
-5.2233
-15.5862
-22.6717
-24.4776
-24.7532
-24.8906
-24.9251
-24.7546
-24.9707
5.96255
6.10055
5.90758
5.75894
5.51256
4.92938
5.1443
6.32877
8.98915
16.8168
40.2882
100.285
187.816
67.4692
2.16151
-25.1091
-29.5979
-31.8015
-30.9297
-29.1855
-28.0598
-27.1352
-26.4118
-26.0958
5.16065
5.00976
4.53068
3.83129
2.8411
0.912176
-0.932773
-1.96957
-5.98242
-10.0049
-5.80467
25.4348
-13.5064
-53.8631
-56.5181
-48.1283
-41.9412
-37.5725
-33.5416
-31.0379
-29.1044
-27.8401
-26.9526
4.52862
4.11254
3.41367
2.25315
0.631623
-2.40592
-6.2296
-10.0387
-21.0085
-40.546
-70.943
-151.093
-236.993
-133.024
-90.8345
-66.6188
-50.8996
-43.0818
-37.058
-33.3408
-30.5301
-28.8274
-27.4047
4.11661
3.50583
2.7054
1.2934
-0.642978
-4.12947
-8.98488
-14.6346
-28.7677
-55.2175
-100.909
-208
-342.925
-181.392
-110.956
-77.9776
-56.0181
-46.0238
-38.9459
-34.5041
-31.1423
-29.1932
-27.3525
3.93777
3.23442
2.47319
1.0778
-0.760516
-3.8805
-8.40213
-14.1139
-26.0055
-46.949
-82.3856
-153.005
-301.007
-173.46
-107.948
-77.8825
-55.693
-45.6119
-38.7637
-34.2644
-30.7916
-28.8378
-26.7561
3.96408
3.27528
2.67394
1.52998
0.136034
-2.00912
-5.11033
-9.30547
-15.4604
-23.9868
-36.2332
-48.5609
-178.622
-124.253
-86.2568
-67.4666
-50.3289
-42.0989
-36.5914
-32.6679
-29.5013
-27.7725
-25.6468
4.13531
3.54723
3.17398
2.41458
1.63293
0.659787
-0.643208
-2.64191
-2.98562
-0.152098
7.32198
35.9811
-52.2961
-65.1779
-57.7586
-51.7665
-41.9192
-36.5899
-32.9567
-30.0274
-27.468
-26.1135
-24.1185
4.37769
3.94133
3.80456
3.44856
3.25771
3.30995
3.50713
5.56388
6.44798
15.7695
29.689
69.0901
149.183
21.6433
-21.2335
-33.1221
-36.1308
-32.8077
-30.4075
-28.5957
-26.7914
-24.9512
-24.0424
-22.3006
4.62228
4.353
4.41485
4.39658
4.64742
5.35917
6.4593
9.08072
11.8199
20.7008
33.1776
54.3832
61.3635
29.0316
-2.65341
-17.0606
-22.7311
-24.5037
-24.5439
-24.1571
-23.3792
-22.2211
-21.7522
-20.3262
4.81679
4.70375
4.90478
5.12674
5.64161
6.68652
8.12319
11.0367
13.7551
20.1973
29.001
36.1012
31.0252
18.811
4.00548
-8.25781
-15.743
-18.2457
-19.5906
-20.0864
-20.0997
-19.5162
-19.4177
-18.3272
4.92943
4.94775
5.22704
5.59735
6.22093
7.38229
8.76303
11.5816
14.3549
17.5118
21.6196
22.5264
24.6807
16.0071
5.04773
-3.72884
-10.2855
-13.5465
-15.5311
-16.5688
-17.1206
-16.964
-17.152
-16.3778
4.9464
5.06668
5.37232
5.81824
6.43214
7.56028
8.67471
10.94
12.9375
16.0652
16.3655
19.5517
11.9433
11.1609
3.18209
-2.38264
-6.52499
-10.1765
-12.2966
-13.6437
-14.5118
-14.6575
-15.0397
-14.5414
4.86738
5.0621
5.35566
5.82829
6.35855
7.38647
8.15573
9.99585
10.6266
13.8778
8.70402
17.9893
14.5105
2.1157
4.20623
-1.95628
-4.7151
-7.96611
-9.84503
-11.2947
-12.2907
-12.6348
-13.1282
-12.86
4.70096
4.94796
5.20516
5.67946
6.09113
7.02199
7.44033
9.10197
8.78147
12.1492
8.29428
13.6772
11.7
3.27627
4.21511
-1.69285
-3.37126
-6.39044
-7.96043
-9.42005
-10.4222
-10.8919
-11.4326
-11.3501
4.46037
4.74366
4.95128
5.41787
5.69736
6.55444
6.65376
8.20814
7.34976
10.2405
7.118
9.64278
8.28155
3.11887
3.60207
-1.42949
-2.38794
-5.22833
-6.48158
-7.91751
-8.85562
-9.40508
-9.94753
-10.0124
4.16049
4.46948
4.62164
5.07946
5.22619
6.02813
5.85995
7.29519
6.13721
8.47922
5.80871
7.31876
6.22978
2.47266
2.90857
-1.26608
-1.75557
-4.37506
-5.32255
-6.71291
-7.54506
-8.14464
-8.65793
-8.83844
3.81638
4.14468
4.2408
4.69274
4.71617
5.47707
5.10364
6.42197
5.13065
7.05253
4.79586
5.74686
4.87445
1.99057
2.35018
-1.15387
-1.34345
-3.73063
-4.41078
-5.74285
-6.44872
-7.07891
-7.54348
-7.81423
3.44235
3.78657
3.82965
4.27996
4.19573
4.9262
4.40607
5.61652
4.29328
5.88138
3.9653
4.53949
3.83335
1.59086
1.88919
-1.06693
-1.06227
-3.22613
-3.68516
-4.95325
-5.52867
-6.17683
-6.58183
-6.92264
3.05132
3.40986
3.40501
3.85763
3.68368
4.39063
3.77227
4.88312
3.58556
4.90355
3.27325
3.61466
3.02383
1.24481
1.50288
-0.997876
-0.866276
-2.82035
-3.10011
-4.30208
-4.75185
-5.40918
-5.7501
-6.145
2.65471
3.02679
2.9801
3.43787
3.19215
3.87993
3.20169
4.22194
2.9837
4.08491
2.68673
2.89026
2.39222
0.965009
1.18805
-0.938555
-0.725369
-2.48592
-2.62215
-3.7568
-4.09041
-4.75024
-5.02687
-5.46298
2.26237
2.6473
2.56506
3.02948
2.72869
3.39964
2.69106
3.62995
2.46974
3.40447
2.1934
2.32272
1.91756
0.742031
0.935153
-0.884417
-0.619327
-2.20242
-2.22466
-3.2927
-3.52141
-4.17852
-4.3929
-4.85888
1.88271
2.27937
2.16763
2.63865
2.29739
2.95247
2.23586
3.1028
2.02677
2.83499
1.78413
1.87629
1.53826
0.541541
0.733205
-0.829461
-0.529932
-1.952
-1.88449
-2.88696
-3.0234
-3.67269
-3.82901
-4.31524
1.52293
1.92917
1.79337
2.26939
1.90034
2.53916
1.83094
2.63566
1.64272
2.35125
1.43745
1.50878
1.22842
0.381586
0.575779
-0.773391
-0.449822
-1.72605
-1.58683
-2.52446
-2.58018
-3.21663
-3.31928
-3.81707
1.18919
1.60162
1.44649
1.92437
1.53785
2.15878
1.47014
2.22025
1.30976
1.93857
1.14239
1.20388
0.974035
0.255535
0.453976
-0.714257
-0.373405
-1.51676
-1.31999
-2.19251
-2.17779
-2.79569
-2.84897
-3.3496
0.88679
1.30006
1.12969
1.60429
1.20941
1.81068
1.14786
1.84659
1.01767
1.5822
0.888842
0.94829
0.763386
0.156344
0.360601
-0.650161
-0.29702
-1.31722
-1.07432
-1.88052
-1.80474
-2.39716
-2.40545
-2.89918
0.6208
1.02684
0.845381
1.30845
0.914395
1.49142
0.86204
1.51007
0.760874
1.27023
0.668501
0.730317
0.584882
0.0779615
0.288964
-0.580274
-0.21925
-1.12225
-0.843769
-1.57988
-1.45235
-2.01059
-1.97836
-2.4538
0.395618
0.781617
0.594628
1.03428
0.650598
1.19152
0.607951
1.20071
0.534151
0.991351
0.475349
0.540768
0.431047
0.0185623
0.233845
-0.501657
-0.140624
-0.925667
-0.624088
-1.28123
-1.11303
-1.62396
-1.55673
-1.9985
0.217524
0.566649
0.381825
0.781996
0.421974
0.910889
0.388653
0.915263
0.338929
0.738762
0.302842
0.365556
0.287976
-0.0263788
0.188567
-0.413489
-0.0649368
-0.725421
-0.417884
-0.983199
-0.789498
-1.23696
-1.14318
-1.533
0.0860835
0.357916
0.196235
0.513588
0.216668
0.605155
0.191927
0.607286
0.165177
0.479689
0.153416
0.211282
0.164689
-0.0466506
0.140672
-0.29728
-0.000574623
-0.492237
-0.220178
-0.647325
-0.461286
-0.802265
-0.700611
-0.996538
0.0252709
0.220816
0.0933227
0.327368
0.103748
0.391312
0.0900054
0.395688
0.0763456
0.295802
0.00957683
-0.0163683
-0.0413824
-0.0636013
0.104811
-0.186496
0.0456947
-0.296995
-0.0799928
-0.381563
-0.225314
-0.467088
-0.375908
-0.582906
-135.718
-231.983
-3.67949
-207.151
-368.096
-258.319
-164.615
-338.144
-374.096
-61.3889
-204.349
-323.966
27.7691
-62.6067
-186.186
69.3323
166.781
161.944
29.144
-46.9947
47.4835
187.507
25.8931
89.0062
-56.4847
-119.431
18.832
-171.526
100.816
-213.715
-128.752
-53.3295
-98.2082
-187.422
-133.508
-185.823
-267.259
-224.163
-461.21
-371.973
-337.599
-200.596
-151.674
-90.9116
-152.28
-188.194
-199.556
-276.554
-292.467
-507.621
-517.438
-312.817
-204.57
-208.22
-48.5836
-59.8861
-141.875
-114.85
-136.034
-202.382
-331.149
-428.459
-195.262
-151.504
-195.153
-134.995
-223.018
-66.4976
-79.9111
-133.774
44.7985
-28.0432
60.6743
60.9962
151.865
57.3357
43.3883
32.4542
-215.747
-123.029
-76.0094
-135.651
-232.051
89.3404
-116.782
-364.413
-196.001
-141.112
-186.866
-354.696
-291.393
-271.47
-193.582
-281.323
-301.906
-240.346
-280.57
-511.856
-465.759
-335.497
-450.61
-506.542
-361.088
-446.494
-320.01
-211.576
-270.1
-192.857
-280.091
-216.84
-301.17
-284.585
-433.131
-503.218
-369.658
-500.736
-422.207
-509.89
-504.534
-375.26
-129.677
-61.4472
-211.108
-139.847
-229.344
-324.64
-257.798
-321.275
-228.663
-416.906
-327.734
-275.329
14.1191
57.1064
-52.2434
6.95307
-39.5883
-123.035
-216.65
-134.141
-131.158
100.324
112.804
61.6688
97.8852
90.628
51.3818
-52.0128
-103.214
78.5611
-56.4745
245.009
-2.04928
22.1111
-48.1963
-12.223
3.81901
-52.864
30.3866
-20.0272
18.8498
-23.3565
-63.2953
183.48
-75.1184
82.8172
-159.281
-106.596
-61.4939
-126.393
-101.435
-99.1348
-58.7155
52.1652
73.6247
-53.093
-15.8576
-27.2289
-76.2374
-113.488
-122.357
-42.795
76.247
101.429
-32.0476
35.8549
-5.30624
310.755
196.994
118.922
132.76
204.591
313.771
-94.007
-61.1371
-103.778
221.08
-65.6146
-21.2538
-427.166
-418.406
-523.406
-522.339
-375.08
-382.478
-170.493
-138.621
-176.049
82.7409
37.102
-21.2964
27.0882
5.94002
-208.702
-187.049
-253.873
-213.885
-257.187
-200.09
-202.313
-85.0298
-37.9545
-103.299
-197.65
-296.837
-287.503
-294.352
-294.27
-260.281
-261.907
-491.324
-490.726
-485.819
-412.712
-390.186
-432.758
-418.542
-487.909
-409.141
-341.481
-302.325
-381.927
-352.634
-415.307
-254.344
-248.997
-301.658
-299.139
-472.061
-474.944
-472.451
-409.001
-427.103
-378.198
-401.741
-468.521
-517.415
-440.53
-435.87
-431.896
-439.866
-517.767
-104.166
-100.435
-104.378
-145.306
-59.2258
-98.9831
-90.5895
-180.919
-150.049
-170.569
-274.176
-280.996
-375.841
-341.153
-369.667
-300.543
-331.107
-369.694
26.1494
49.9297
-25.183
-16.5292
-53.6486
19.8461
-11.7714
-16.768
-10.7438
22.1306
-74.8784
-77.1613
-28.0986
-132.895
-82.897
-87.4223
-80.5208
132.281
147.134
188.933
104.644
127.013
195.875
120.73
87.0069
452.703
26.8514
56.2175
29.629
55.7907
85.6181
59.6022
99.5899
78.8852
89.5919
275.078
53.75
10.7235
-1.27272
69.0974
77.6372
223.942
144.366
142.909
82.3168
92.2544
126.919
125.703
194.01
470.177
322.579
214.536
283.085
356.871
482.415
-252.556
-210.885
-228.444
-450.901
-398.8
-393.903
-289.448
-243.713
-235.867
-247.706
-247.659
-291.619
-516.941
-519.103
-350.254
-409.707
103.761
91.9848
16.5462
33.1104
71.9953
108.807
89.2862
102.367
-7.11665
-61.7001
170.816
-336.976
-367.117
-394.432
-265.492
-217.46
-151.979
-287.518
-235.258
-287.317
-285.217
-242.812
-249.328
-230.533
-242.533
-282.414
-288.218
-310.993
-302.516
-328.128
-327.141
-298.532
-299.886
-293.863
-272.532
-505.804
-476.549
-466.349
-435.928
-427.545
-470.351
-461.909
-500.079
-229.62
-215.002
-246.805
-270.451
-290.161
-308.726
-303.436
-332.759
-329.406
-312.928
-324.539
-291.746
-450.986
-492.682
-489.983
-454.012
-462.421
-410.702
-415.307
-440.654
-513.936
-476.765
-470.479
-467.097
-472.386
-512.696
-248.257
-257.698
-237.024
-333.593
-319.745
-306.906
-278.609
-258.136
-290.001
-215.37
-247.147
-265.871
33.9537
45.0742
23.6499
69.591
51.6696
39.8688
143.931
150.985
78.9547
94.997
75.5867
133.48
142.15
121.081
108.652
55.8293
342.52
105.084
38.5395
7.85034
11.6546
41.0726
3.23701
0.484044
56.4058
46.7086
260.092
-5.57035
17.708
-82.4299
-73.7076
61.8948
66.8052
61.3728
66.7432
60.1906
77.5748
69.1348
63.8769
-35.9417
-30.0638
-47.546
-54.5329
86.3847
90.6273
80.4585
96.5266
111.113
-164.612
-139.869
-61.9349
-219.735
-161.99
-187.833
-447.178
-400.096
-519.161
-523.134
-355.962
-403.553
-163.886
-159.844
-179.531
-135.17
-153.859
-155.469
-212.563
-233.128
-185.911
-204.732
64.1471
80.8919
96.8707
46.6286
73.4945
58.4412
79.0144
49.4427
-232.905
-204.196
-225.964
-166.685
-195.792
-224.731
-251.587
-262.668
-231.938
-247.579
-154.954
-118.493
-156.733
-170.508
-185.207
-339.135
-359.299
-329.413
-340.142
-290.975
-237.838
-331.937
-305.158
-250.041
-286.861
-328.759
-320.408
-314.482
-288.662
-318.015
-324.28
-313.113
-314.012
-333.267
-331.416
-323.556
-330.105
-298.833
-325.337
-320.84
-284.649
-295.139
-266.372
-280.134
-304.751
-310.4
-297.51
-304.169
-271.45
-292.474
-285.843
-505.338
-476.736
-449.862
-437.707
-471.417
-498.061
-461.205
-451.051
-270.303
-284.911
-265.429
-294.561
-279.611
-315.25
-299.773
-255.429
-234.825
-274.069
-260.271
-333.225
-332.387
-301.946
-336.932
-340.29
-333.513
-338.359
-330.233
-317.035
-337.183
-333.133
-295.364
-326.999
-331.697
-456.558
-485.136
-438.458
-448.608
-484.468
-449.145
-421.232
-432.893
-479.028
-475.945
-516.254
-514.789
-475.925
-476.952
-121.473
-119.604
-117.089
-101.331
-139.524
-122.671
-128.349
-75.5196
-73.6947
-61.5256
-96.0232
-79.0697
-81.488
-206.056
-189.021
-228.189
-211.777
-165.69
-161.268
-144.97
-183.58
-166.683
-173.774
-284.394
-265.509
-255.203
-266.865
-284.092
-238.931
-258.644
-290.402
-300.321
-312.416
-288.997
37.5599
42.9689
33.5511
58.0586
46.8101
41.1292
59.6014
4.56599
28.6903
9.54792
-112.27
-110.306
-128.798
-82.2317
-104.063
-104.862
-104.424
-111.672
154.424
169.548
116.678
129.658
152.891
126.831
11.3185
-30.4321
12.9268
5.74923
44.8744
70.0108
632.708
467.528
389.039
488.393
537.756
652.906
77.4735
166.627
111.182
-182.466
-206.72
-246.655
-457.076
-459.627
-464.541
-513.729
-517.37
-179.457
-157.215
-174.755
-430.173
-424.237
-422.832
-230.589
-209.944
-204.14
-184.387
-143.163
-175.666
-256.68
-242.981
-222.409
-226.149
-272.938
-238.504
-246.88
-272.212
-260.512
-507.957
-470.786
-475.359
-470.109
-490.614
-488.041
-503.667
-419.452
-410.914
-434.995
-238.287
-207.263
-188.005
-229.044
-246.198
-230.947
-438.489
-436.526
-432.767
-500.305
-497.467
-479.995
-483.349
-511.374
-494.891
-493.065
-486.997
-490.373
-508.597
-199.951
-208.522
-223.567
-399.52
-386.706
-399.048
-180.692
-172.422
-204.506
150.328
150.972
118.876
101.689
83.1704
150.502
150.724
81.8023
106.711
73.5754
-44.7073
-23.8669
-93.9875
-58.0231
-63.48
-64.4817
-47.4583
-46.8036
-52.4123
-14.2484
-19.0269
-20.8117
-75.2777
-69.1426
-69.8004
108.711
94.7883
89.4422
193.242
307.474
255.571
-116.678
-134.364
-114.076
-82.7562
-235.509
-216.322
-36.4837
40.9594
58.7782
-439.212
-441.592
-434.342
-411.254
-425.831
-432.316
-527.081
-523.008
-382.097
-375.135
-368.092
-390.325
-396.208
-389.225
-176.257
-181.637
-137.545
-143.772
-144.198
-186.707
-191.867
-197.637
-202.777
-184.532
-217.317
-245.704
-246.52
-252.574
-190.445
-200.569
-222.821
-274.576
-279.996
-257.181
-260.103
-257.218
-61.4443
-107.355
-139.466
-126.333
-118.512
-130.346
-181.938
-268.285
-257.423
-283.609
-275.531
-249.014
-283.963
-284.707
-494.608
-490.163
-379.123
-366.455
-389.858
-431.413
-401.593
-390.918
-236.515
-251.109
-265.185
-466.394
-476.985
-500.457
-500.381
-517.522
-518.884
-500.509
-500.37
-109.22
-109.958
-108.98
-103.258
-144.336
-139.075
-140.84
-186.848
-203.119
-191.259
-199.885
-194.699
-231.29
-226.77
-154.993
-154.957
-149.575
-189.937
-185.222
-363.677
-375.04
-393.562
-352.346
-341.499
-352.53
-31.1159
-30.3858
-21.047
-51.8308
-40.821
-36.6641
-55.2674
-59.6552
-75.682
-34.044
-47.0381
-48.1817
-125.62
-124.895
-131.033
-89.665
-83.165
-129.64
171.77
174.242
183.025
126.581
119.383
125.756
113.665
138.709
129.316
121.543
183.542
156.81
102.296
116.878
107.239
194.736
379.683
103.406
71.6209
74.4828
173.123
177.418
198.929
84.7806
84.3488
79.6612
92.5832
88.3612
88.2483
194.857
165.64
158.316
337.27
483.535
432.845
-455.503
-456.61
-453.854
-401.293
-403.146
-396.828
-415.401
-404.382
-517.091
-516.976
-356.33
-360.438
-340.601
-348.617
-416.117
-416.499
-410
97.882
102.012
107.914
91.8392
97.087
93.069
-375.689
-373.97
-365.043
-390.275
-382.337
-385.377
-505.468
-473.417
-476.452
-476.859
-501.445
-485.911
-483.882
-445.982
-440.223
-445.251
-499.469
-472.441
-476.564
-494.715
-497.616
-496.068
-512.252
-511.34
-493.146
-495.048
-327.73
-328.319
-332.993
-317.062
-322.523
-323.411
152.39
154.528
143.63
146.944
136.934
142.886
139.344
126.429
119.447
116.904
122.598
126.098
112.193
115.957
112.958
40.4689
18.0895
7.07679
74.2504
287.125
245.072
317.241
128.071
160.818
210.594
20.5301
19.0818
10.5935
35.7843
27.8139
29.544
-12.4663
-9.42742
-18.6142
2.44952
-4.8162
-4.42662
76.6606
93.7992
35.1153
-64.3995
-96.1412
-21.622
-28.4402
-88.9585
-69.9135
-68.9489
-76.1266
63.079
64.7283
56.6285
59.2003
62.3309
-35.4873
-41.2333
-41.7918
-18.0115
-13.0148
-24.3431
-24.9112
-22.002
-29.6475
-44.2253
-39.7692
-41.5127
-38.5508
-47.0835
-25.4899
-32.0201
-62.3866
-61.8914
-54.0242
101.065
101.97
97.148
112.811
107.153
105.918
-172.389
-143.313
-139.2
-207.977
-216.238
-195.963
-443.177
-441.4
-447.597
-453.209
-423.806
-421.523
-434.732
-427.841
-523.759
-524.978
-374.198
-380.174
-364.544
-369.066
-361.742
-369.05
-363.611
-404.917
-400.214
-397.233
-389.528
-160.681
-169.957
-149.646
-149.953
-155.994
-220.321
-221.513
-213.177
-233.778
-229.103
-227.266
-192.171
-192.761
-187.006
-205.608
-196.847
-197.801
-199.089
55.1912
51.051
42.7549
68.894
58.9446
-223.315
-233.018
-240.442
-238.965
-228.575
-212.318
-222.146
-268.432
-270.542
-277.287
-273.35
-258.727
-257.19
-265.463
-157.292
-141.273
-152.57
-114.857
-192.994
-182.117
-173.424
-349.204
-332.056
-321.109
-354.844
-344.751
-358.645
-362.577
-350.373
-272.645
-274.985
-293.507
-258.493
-273.7
-256.288
-320.158
-306.146
-312.567
-316.744
-321.859
-324.985
-314.606
-318.042
-318.122
-316.55
-315.608
-332.091
-330.75
-324.659
-327.043
-290.126
-295.65
-289.736
-297.482
-296.82
-293.15
-270.096
-283.156
-280.684
-289.875
-286.315
-274.484
-286.656
-288.74
-306.04
-308.13
-307.123
-313.924
-310.705
-308.032
-300.076
-303.398
-300.102
-308.178
-308.375
-302.975
-498.984
-484.075
-290.202
-292.215
-294.808
-280.639
-287.411
-285.315
-310.522
-297.876
-302.101
-304.978
-249.233
-251.902
-258.79
-237.983
-244.435
-242.087
-269.127
-270.097
-274.676
-263.041
-266.205
-264.572
-337.429
-339.111
-336.359
-339.59
-324.678
-320.252
-334.225
-332.817
-460.807
-480.25
-517.734
-500.281
-499.097
-497.252
-499.207
-517.383
-114.415
-119.842
-114.685
-115.417
-135.408
-133.167
-126.283
-212.805
-205.808
-200.234
-205.4
-211.603
-222.729
-227.623
-232.038
-217.51
-222.489
-217.154
-223.302
-219.529
-166.535
-160.649
-160.134
-180.246
-171.99
-278.614
-274.662
-281.159
-261.094
-268.044
-272.597
-274.661
-279.661
-243.24
-245.181
-238.612
-251.364
-304
-302.453
-310.267
-287.264
-294.472
-296.684
39.6086
38.5037
41.9975
31.2967
35.1035
36.7684
56.6878
52.207
54.2184
45.6407
49.3118
50.9779
54.6207
2.23411
7.32012
-8.03225
-2.7214
23.8368
22.5021
26.7085
12.6894
19.9509
17.5742
-111.578
-118.705
-119.573
-97.0211
-119.437
158.098
163.154
121.615
127.823
119.26
135.363
130.851
125.451
134.601
140.249
143.239
132.582
50.1601
68.6314
54.4332
76.1124
87.1325
63.4223
85.9813
67.9133
54.5564
57.8818
33.7161
32.8677
25.0328
36.706
39.8243
45.5043
83.5191
73.0824
103.649
169.436
97.8927
169.483
94.0254
73.676
69.4708
20.6918
29.8366
9.64491
-5.30688
3.97979
4.97277
5.4664
31.7826
9.57218
37.3703
82.6722
97.5539
162.462
142.505
271.301
195.341
156.128
67.2708
34.284
45.3244
-35.8513
-35.981
-18.0132
-26.1353
-47.7325
-6.94704
-22.8134
-26.3355
-4.34974
0.777809
4.06671
34.0026
-100.746
-92.5391
-39.7899
-114.473
-83.2375
-58.5441
-50.7179
-82.5086
-59.3614
-83.0704
-101.985
-87.3856
-164.654
-184.811
-170.394
-293.239
-228.079
-182.432
-174.803
-124.319
-106.349
-53.7284
-77.8194
-84.8527
-100.572
-120.865
-122.189
-207.216
-229.852
-230.703
-343.804
-273.344
-266.049
-180.825
-136.332
-134.656
-36.4155
-43.8238
-70.9997
-72.1891
-82.9385
-96.0398
-140.82
-151.952
-166.112
-259.453
-219.411
-245.971
-138.884
-116.449
-129.723
-11.4335
-4.82777
-33.6205
-35.9679
-35.1906
-49.2114
-128.452
-120.114
-158.62
-79.3605
-79.3376
-98.8355
8.88388
20.7571
3.21382
-13.9257
-34.624
-55.5634
-29.7783
-42.9495
-60.1459
19.1912
26.0383
22.6641
34.2962
52.4619
58.7279
66.8111
83.3868
98.6801
112.134
117.248
118.742
30.6873
2.64694
-14.2083
-9.17913
-18.0471
-28.9237
20.9256
26.6163
27.065
31.4768
37.2266
48.0924
39.7937
40.1451
65.9323
37.9487
30.0497
39.5643
23.7496
10.9272
4.73002
2.26883
-6.07399
-10.9492
25.1158
29.0069
32.0362
24.1814
33.2742
33.5716
29.4571
18.2808
27.4227
18.0157
11.0256
12.2192
-153.561
-133.888
-117.946
-202.062
-226.237
-273.489
12.2515
-25.1756
-36.5902
-229.571
-226.523
-204.259
-359.569
-399.806
-414.533
-287.18
-325.052
-281.522
-179.686
-192.308
-175.168
-350.73
-389.311
-366.501
-417.423
-423.156
-377.43
-63.2188
-77.3639
-74.5654
-221.769
-240.83
-212.132
-357.635
-331.02
-308.584
-79.0763
-76.377
-58.7746
-193.969
-173.147
-167.52
99.5794
91.9325
59.5097
185.791
171.263
157.11
154.663
153.052
183.226
-41.7227
-24.9212
-31.9496
103.691
163.398
90.8679
743.004
635.668
643.149
158.074
191.172
268.757
750.748
780.124
48.3501
71.6538
46.5822
139.047
163.307
85.6444
-69.3822
-48.6096
-40.0439
-65.4639
-56.2204
-82.7411
1.1508
-27.3323
-44.9536
-138.378
-150.503
-208.186
124.31
79.3982
63.1437
-167.622
-110.715
-130.605
-103.72
-110.31
-142.023
-47.8823
-78.1079
-78.316
-119.509
-112.728
-92.1235
-173.846
-136.164
-144.072
-105.32
-123.23
-166.685
-207.105
-196.95
-176.032
-262.753
-249.114
-253.886
-209.698
-217.862
-230.977
-381.61
-390.822
-379.514
-264.413
-236.585
-307.552
-188.206
-216.313
-231.092
-171.07
-196.169
-171.911
-107.205
-115.682
-97.0441
-176.284
-138.023
-126.984
-146.962
-144.882
-182.071
-221.208
-226.679
-204.238
-281.937
-264.5
-259.886
-275.68
-275.828
-293.026
-256.013
-268.332
-338.995
-210.062
-240.639
-232.808
-240.069
-243.258
-211.541
-53.5717
-68.5581
-60.7078
-95.9309
-77.8846
-59.2987
-112.63
-95.9493
-108.056
-122.364
-137.29
-127.973
-164.996
-148.406
-124.656
-194.987
-186.348
-194.002
-337.963
-345.63
-337.392
-172.036
-206.702
-244.023
-168.003
-186.05
-165.661
-220.457
-204.605
-182.866
-147.016
-153.123
-134.511
-226.005
-219.667
-216.978
-79.4058
-101.495
-112.527
-97.4134
-101.415
-80.6388
-144.176
-122.248
-115.542
35.9853
44.3127
53.6466
-24.8861
-12.645
-16.5276
64.2533
78.1378
64.6811
90.9269
82.9513
74.5611
135.409
120.229
114.478
69.3839
74.3189
88.7313
43.782
64.7003
52.1209
74.1004
67.2827
41.7962
-206.371
-191.167
-200.951
-90.3812
-132.838
-171.55
-98.16
-111.274
-85.5076
-155.52
-185.311
-158.195
57.7621
63.3496
102.77
-132.813
-108.555
-94.0152
-355.95
-365.324
-373.537
-205.247
-222.444
-212.998
-151.337
-188.339
-173.482
-215.803
-201.589
-174.999
-320.699
-305.705
-324.907
-289.793
-273.976
-275.18
-257.986
-261.852
-275.49
-199.902
-221.8
-215.301
-284.583
-290.885
-288.406
-311.342
-310.416
-300.022
-286.364
-283.93
-277.088
-372.474
-394.32
-348.687
-455.561
-448.878
-442.581
-383.24
-352.819
-337.773
-440.168
-433.873
-442.089
-302.037
-335.591
-364.693
-220.653
-211.966
-203.674
-254.384
-248.469
-262.805
-184.78
-203.709
-213.425
-277.872
-286.664
-290.635
-220.337
-225.433
-221.207
-302.984
-312.881
-311.926
-294.638
-297.844
-286.336
-412.406
-396.471
-361.367
-416.667
-419.232
-427.028
-377.851
-422.602
-416.807
-119.6
-121.182
-137.448
-62.2757
-71.4837
-70.7177
-206.282
-209.709
-215.005
-142.91
-159.209
-150.039
-235.293
-238.337
-232.223
-329.833
-323.744
-318.885
-282.1
-251.533
-239.933
-304.228
-295.568
-307.045
-224.412
-236.178
-240.999
-411.591
-406.849
-410.718
-318.684
-330.252
-346.41
-292.289
-321.289
-292.385
21.0622
24.5731
17.3642
61.5392
55.7082
51.3853
-42.9721
-42.2175
-52.3066
9.9184
2.10504
-0.617759
-51.3151
-49.823
-37.2715
-128.314
-112.291
-111.212
-204.515
-201.054
-212.754
-130.282
-161.64
-169.82
-149.195
-152.96
-133.317
109.81
136.615
123.786
132.864
136.999
109.901
68.1089
72.9319
67.0501
76.8705
112.071
115.267
-56.8809
-26.2971
-25.9394
-31.2706
-26.3827
-76.0713
47.3987
10.7299
-3.94915
279.182
223.04
200.466
-4.91067
-6.9988
7.66093
-40.9214
-23.3231
-14.9348
-9.24715
-21.8557
-23.8368
-19.0964
-19.0201
-5.31107
-49.4324
-33.7492
-27.1186
23.0945
25.5076
33.3625
-18.8861
-12.212
-12.9772
-3.40619
-17.1866
-3.78032
139.382
152.271
204.627
-112.295
-81.9169
-47.4721
-22.4857
-32.7274
30.308
-129.599
-57.2599
-59.6275
-71.3459
-67.036
-109.704
-88.474
-83.4678
-63.4622
-116.009
-91.7505
-97.7527
-88.0014
-92.2659
-107.289
55.6128
57.7202
54.7543
75.2169
71.9914
69.9899
-34.545
-33.1633
-26.0657
-113.963
-94.9486
-96.0911
-87.5085
-88.8808
-120.095
-52.7604
-79.1153
-76.1478
79.8246
81.2195
78.1429
103.569
99.3742
96.9311
0.251591
-16.5431
-35.4632
16.1456
0.805167
10.0469
-18.0284
-9.36639
4.72983
268.333
316.24
424.605
187.087
277.006
245.66
202.412
276.276
178.197
158.444
193.17
162.598
255.801
301.262
200.769
432.118
341.89
278.661
-58.6085
-129.683
-100.64
101.788
103.642
155.989
-50.1874
-16.2034
-27.5483
20.299
29.7684
-15.9772
-178.364
-159.138
-159.255
-184.734
-188.028
-183.603
76.0449
81.0681
86.8054
40.4422
47.6332
43.7106
-1.16994
-8.31409
-21.0368
17.2209
4.46002
5.76598
-5.20926
-0.442797
11.6363
-214.19
-192.989
-172.414
-211.828
-238.043
-220.282
-185.459
-168.772
-180.302
-67.9184
-90.1628
-104.864
-67.3569
-78.7941
-49.1616
-310.18
-321.158
-309.176
-274.369
-287.125
-299.25
-302.57
-300.914
-291.804
-296.638
-305.152
-303.682
-267.745
-264.765
-255.798
-266.142
-272.975
-270.181
-470.362
-467.533
-483.1
-405.77
-424.817
-432.352
-409.539
-416.287
-398.232
-428.598
-450.319
-455.074
-438.873
-444.94
-424.064
-490.805
-475.505
-472.698
-398.366
-390.253
-402.49
-329.231
-348.041
-360.293
-320.813
-335.013
-316.394
-372.793
-392.128
-401.177
-371.715
-382.381
-363.255
-421.339
-410.841
-402.886
-259.419
-263.837
-257.477
-245.598
-250.073
-254.548
-312.561
-312.951
-301.08
-299.049
-310.008
-311.24
-455.605
-459.289
-475.901
-415.531
-438.374
-430.698
-451.627
-445.48
-421.802
-386.157
-403.165
-392.554
-422.287
-413.066
-394.274
-463.093
-447.291
-451.629
-439.852
-464.407
-465.528
-459.059
-462.236
-438.462
-435.498
-461.016
-456.933
-465.36
-463.925
-438.363
-101.344
-115.877
-109.67
-65.1025
-64.6369
-58.9999
-97.6964
-92.0923
-93.5167
-80.5153
-81.5464
-92.1002
-160.293
-164.725
-181.325
-277.612
-271.62
-268.284
-287.249
-290.305
-283.747
-370.967
-376.435
-381.84
-350.865
-363.186
-352.837
-383.116
-373.337
-360.589
-310.826
-320.486
-309.388
-342.227
-331.475
-321.127
-363.968
-358.542
-363.874
30.1051
31.8134
27.8754
52.1797
49.6879
47.4964
-23.6083
-32.629
-33.9284
-21.2538
-22.4042
-17.4473
-53.8836
-48.158
-48.0066
7.63271
5.77201
13.6852
-12.0492
-2.94933
3.02327
-8.51419
-6.21195
-14.8686
-5.60057
-3.92761
-9.10212
23.5653
19.3576
18.1593
-74.3125
-62.5296
-63.0098
-70.4546
-70.3471
-76.4898
-29.0082
-36.3117
-35.1191
-82.686
-89.5947
-89.7024
-99.8503
-98.6254
-86.7793
137.141
148.496
140.891
162.672
151.357
141.67
109.345
111.069
107.381
111.344
122.116
142.822
91.7827
96.8398
93.7223
51.0693
39.4067
44.655
20.3855
30.8635
48.0905
77.6395
67.4266
74.4758
50.8179
59.3602
68.3676
95.8735
103.197
108.9
81.4802
94.788
87.86
109.756
96.1119
83.9936
36.2435
30.6968
41.1054
7.53588
19.5299
30.3813
9.1033
13.8115
2.63945
201.041
215.416
263.515
147.844
166.405
162.308
150.741
160.632
148.354
131.344
140.227
133.962
145.884
150.176
133.167
247.536
189.971
189.671
428.683
467.271
585.869
320.94
384.615
373.594
329.224
414.027
300.73
313.978
357.661
324.192
407.522
473.443
362.928
601.618
518.699
456.644
-238.392
-244.11
-257.936
-218.611
-230.555
-224.566
-240.321
-235.329
-221.692
-386.494
-399.09
-409.018
-271.479
-268.513
-286.258
-243.057
-256.606
-259.009
-248.82
-252.763
-237.904
-249.675
-263.038
-262.568
-261.312
-262.19
-246.957
-292.727
-275.084
-273.801
-358.374
-352.933
-344.492
23.4101
34.2859
26.6888
49.7755
40.8061
29.3322
62.5168
52.0804
61.1773
103.296
111.987
126.698
94.8769
103.056
96.2299
113.965
106.106
97.6214
-14.5908
23.5878
25.2841
26.9689
25.6313
-21.4989
120.888
74.6358
61.2231
-348.888
-357.328
-348.235
-248.083
-225.592
-241.787
-195.167
-209.581
-231.495
-162.741
-187.15
-175.508
-271.747
-288.83
-305.173
-251.838
-271.294
-254.831
-307.555
-288.122
-268.846
-270.369
-272.497
-287.722
-246.878
-259.292
-256.807
-262.206
-260.644
-246.254
-236.381
-248.283
-244.161
-254.61
-251.3
-237.573
-279.114
-265.059
-268.05
-295.184
-292.925
-285.183
-308.658
-300.957
-302.688
-297.053
-299.062
-305.231
-327.456
-316.223
-316.949
-315.076
-315.842
-327.485
-300.615
-309.885
-308.791
-297.56
-292.822
-295.01
-288.738
-290.808
-295.535
-276.17
-281.999
-279.665
-456.078
-452.16
-460.293
-429.503
-441.287
-446.004
-466.407
-480.594
-483.274
-475.83
-478.51
-466.001
-226.365
-238.244
-243.532
-225.496
-231.807
-219.28
-254.957
-241.91
-235.094
-277.62
-281.902
-272.993
-295.798
-288.241
-284.117
-296.773
-292.764
-302.78
-313.734
-313.276
-301.998
-332.658
-319.826
-320.114
-317.843
-318.957
-331.027
-316.79
-303.538
-300.274
-310.026
-306.931
-320.734
-290.458
-301.237
-303.837
-455.992
-471.586
-468.097
-478.168
-475.239
-460.975
-426.166
-421.492
-411.551
-433.754
-426.581
-431.725
-473.643
-488.654
-490.421
-485.237
-487.423
-474.04
-468.077
-484.186
-481.591
-488.534
-486.889
-472.189
-251.652
-244.887
-241.904
-249.867
-246.672
-253.813
-234.059
-240.003
-242.839
-312.951
-317.347
-311.183
-272.379
-284.674
-290.449
-268.888
-275.831
-264.518
-298.189
-286.93
-279.52
-225.056
-230.681
-219.808
-253.153
-241.818
-236.028