/*--------------------------------*- C++ -*----------------------------------*\
| =========                 |                                                 |
| \\      /  F ield         | OpenFOAM: The Open Source CFD Toolbox           |
|  \\    /   O peration     | Version:  5.x                                   |
|   \\  /    A nd           | Web:      www.OpenFOAM.org                      |
|    \\/     M anipulation  |                                                 |
\*---------------------------------------------------------------------------*/
FoamFile
{
    version     2.0;
    format      ascii;
    class       surfaceScalarField;
    location    "300";
    object      phi;
}
// * * * * * * * * * * * * * * * * * * * * * * * * * * * * * * * * * * * * * //

dimensions      [0 3 -1 0 0 0 0];

internalField   nonuniform List<scalar> 
13181
(
0.000403257
0.412043
0.000393743
0.412525
0.000348315
0.412538
0.00029779
0.412543
0.00021349
0.412599
-0.00012028
0.412826
-0.000329481
0.412708
-0.000365586
0.412538
-0.000319092
0.412453
-0.000117357
0.412298
0.000264211
0.41212
0.000756262
0.412007
0.00121812
0.412037
0.00150599
0.412214
0.00156752
0.412438
0.00144012
0.412627
0.00119196
0.41275
0.000882566
0.412809
0.00038007
0.412995
-5.30981e-05
0.412948
-0.000613797
0.413053
-0.000841282
0.41272
-0.000885246
0.412559
0.411538
0.000581661
0.411343
0.00161938
0.411487
0.00164539
0.412512
0.00163185
0.412557
0.00137057
0.412861
0.000514096
0.413683
-0.000613392
0.413836
-0.000980298
0.412905
-0.000952117
0.412425
-0.000560735
0.205948
0.205958
0.000209995
0.205672
0.205677
0.00124553
0.205477
0.205495
0.0022207
0.20551
0.205552
0.00282202
0.205781
0.205832
0.00293868
0.206135
0.206186
0.00232868
0.413237
0.00137231
0.413706
0.000414207
0.413767
-0.000600709
0.41401
-0.000950568
0.413298
-0.000970078
0.413073
-0.00101146
0.412761
-1.85768e-05
0.411566
0.411344
-0.000135232
0.411286
2.07313e-05
0.411331
0.000933908
0.411599
0.000866144
0.412624
0.00093445
0.412792
0.00101101
0.413606
-0.000456356
0.415303
-0.00143671
0.413885
-0.000788333
0.412761
-0.00098502
0.205819
-0.000659446
0.205452
-0.000270557
0.000490317
-2.67306e-05
0.20513
0.000373833
-0.000759214
0.20514
0.001129
-0.00145195
0.205533
0.001699
-0.00183469
0.206123
0.001847
0.00177838
0.207415
-0.00139843
-0.00191965
0.207361
0.000111273
0.415373
-0.000425156
0.414303
-0.000340192
0.413925
-0.000388097
0.413346
-0.000446589
0.413131
0.00034231
0.411972
0.00038303
0.411525
0.411447
-0.000388028
0.411411
-0.000496325
0.411439
-0.000489341
0.411592
0.000158295
0.411977
-1.32446e-05
0.412964
3.40836e-05
0.413559
-0.000133369
0.415471
-0.00103314
0.414785
-0.00144285
0.207752
-0.00155673
0.206976
0.205625
-0.00130274
-0.205765
0.204872
-0.000798973
-0.205185
0.00111211
0.000316125
0.204019
0.000321036
-0.204656
-0.00105513
0.203906
0.00177233
-0.204623
-0.00231658
0.205306
0.00227542
-0.205265
-0.00152944
0.207454
0.000599645
-0.206524
5.73856e-06
0.20753
-0.000120553
0.00134715
0.207492
-0.000524927
-2.00107e-05
0.207079
0.00109739
0.414553
0.000755513
0.414267
0.000291781
0.41381
0.000817998
0.412605
0.000788517
0.412002
0.000549324
0.411765
0.411622
-0.000460337
0.411548
-0.000639888
0.411619
-0.000849929
0.411802
-0.000896046
0.412023
-0.000556052
0.412624
-0.000652889
0.413656
0.00090846
0.413909
0.00110474
0.206543
0.000591385
0.207454
0.208995
-0.000138501
0.206015
-0.00135986
-0.205687
0.00103196
0.204874
-0.00180388
-0.204622
0.00155149
0.00115526
-3.13683e-05
-0.203173
0.101012
0.101037
-0.00138919
0.0028142
-0.202921
0.100749
0.100747
-0.00329456
0.00170795
-0.206086
0.103561
0.104111
-0.00222349
0.207393
0.00232288
-0.207492
-0.00198485
0.207818
0.00202462
-0.207857
-0.00196264
0.207521
0.00193429
0.00226827
0.415751
-0.00186359
-0.00160238
0.00140797
0.415127
0.00151236
0.413705
0.00127805
0.412839
0.000910872
0.412369
0.000644071
0.412031
0.411824
-0.000500511
0.411682
-0.000687681
0.411806
-0.000933634
0.412048
-0.00128278
0.412372
-0.00145128
0.412792
-0.00149679
0.413701
-0.000952814
0.414677
-0.00131173
0.206937
-0.00134688
0.207265
0.000364555
-0.208726
0.00109668
0.206351
0.00121315
-0.20646
-0.00110446
-0.102894
-0.000133747
0.103153
-0.000125061
-0.100494
0.000649419
0.100618
-0.000773395
-0.0997323
-0.000812415
0.0991623
0.00138244
-0.103068
-0.0011169
0.101774
0.00241003
-0.00176864
0.00455476
-0.207652
-0.00194009
0.103211
0.103595
-0.00443231
0.208451
0.0038346
-0.207854
-0.00315371
-0.207962
0.208543
0.00257245
0.00293332
0.417331
-0.00236008
-0.0021536
0.00235875
0.415702
0.00186428
0.4142
0.00132718
0.413376
0.000957606
0.412739
0.000674989
0.412314
0.412023
-0.000524836
0.41182
-0.000719289
0.412
-0.000946978
0.412275
-0.00125898
0.412684
-0.00171622
0.41325
-0.002113
0.414098
-0.00139014
0.415322
-0.00136741
-0.207311
0.207712
-0.00179118
-0.207306
0.207933
-0.00292734
0.00229966
-0.206834
0.207906
0.0037555
-0.00227777
-0.00254967
-0.102658
0.00234449
0.102717
-0.00240291
-0.0502265
0.000867604
0.050069
-0.000710115
-0.000386029
-0.0476297
0.0473886
0.00062714
-0.00199673
-0.102523
0.0039524
-0.00137436
0.0503817
0.0515596
-0.00461937
-0.103819
0.104343
0.0040954
-0.00620815
-0.209479
0.210741
0.00494664
-0.00391857
-0.209217
0.210053
0.00308227
0.00341122
0.418703
-0.00238152
-0.00240206
0.00255363
0.416559
0.00174704
0.415006
0.00120888
0.413915
0.000844555
0.413103
0.000586244
0.412572
0.412147
-0.000487069
0.411925
-0.000665967
0.412179
-0.000864629
0.412474
-0.00117388
0.412993
-0.00158013
0.413656
-0.00216783
0.414686
-0.00128897
0.415944
-0.00150076
-0.208123
0.208548
-0.0017133
-0.208734
0.209489
-0.00303396
0.00227902
-0.209366
0.210922
0.00410057
-0.0027784
-0.00287789
-0.104306
0.00398582
0.105187
-0.00486676
-0.0510574
0.00445394
0.051677
-0.00507352
-0.00638897
-0.0519796
0.0525874
0.0057811
-0.00655094
-0.10634
0.107305
0.00558605
-0.0073239
-0.212413
0.214065
0.00567234
-0.00444097
-0.21106
0.211956
0.00354496
0.00326986
0.420775
-0.00253741
-0.00280377
0.00194487
0.417884
0.00131392
0.415637
0.000891233
0.414337
0.000636262
0.413358
0.000488505
0.41272
0.412236
-0.000437824
0.412009
-0.000537715
0.412279
-0.000679662
0.412616
-0.000846488
0.41316
-0.00107151
0.413881
-0.00137633
0.414991
-0.00106116
0.416445
-0.000816929
-0.208604
0.208916
-0.001373
-0.210373
0.2109
-0.00247781
0.00195122
-0.212378
0.213341
0.00315246
-0.00220325
-0.0019116
-0.107604
0.0031453
0.108188
-0.00372928
-0.0554277
0.00339278
0.0557645
-0.00372959
-0.00552157
-0.0571014
0.0575948
0.00502821
-0.00512803
-0.110032
0.110838
0.00432157
-0.00519316
-0.215626
0.216818
0.00400143
-0.00308773
-0.212761
0.213375
0.00247456
0.00242114
0.421698
-0.00142864
-0.00191631
0.00127522
0.41903
0.000642941
0.41627
0.000443733
0.414536
0.00032586
0.413476
0.000254897
0.412791
0.412203
-0.000344253
0.412049
-0.000424944
0.41236
-0.000475981
0.412667
-0.000547113
0.413231
-0.000554729
0.413888
-0.00053982
0.414976
-0.000354403
0.416354
-9.38251e-05
-0.209189
0.209458
-0.000623973
-0.211173
0.21119
-0.000683275
0.000666276
-0.213781
0.213664
0.000630484
-0.000430203
-8.34464e-05
-0.109072
0.000508178
0.109055
-0.000491097
-0.0568186
0.000285977
0.0567938
-0.000261131
-0.00123213
-0.059531
0.0595852
0.00117797
-0.00133343
-0.112293
0.112444
0.00118183
-0.0012491
-0.217524
0.217676
0.00109752
-0.000977397
-0.213779
0.21393
0.000826498
0.000873141
0.421642
-0.000175196
-0.000641264
0.000910505
0.418993
0.000127046
0.417053
-0.000119874
0.414783
-2.83814e-05
0.413384
1.84718e-05
0.412744
0.412087
-0.000267498
0.412072
-0.000288366
0.412381
-0.000279489
0.412658
-0.000201787
0.413153
-0.000110362
0.413797
0.000204019
0.414661
0.000263998
0.415923
0.000370795
-0.209513
0.209482
0.000294752
-0.210973
0.210553
0.000991527
-0.000571556
-0.213056
0.212113
-0.00164358
0.00116425
0.00142264
-0.108195
-0.00181817
0.107709
0.0023041
-0.0554708
-0.00227753
0.0551777
0.00257066
0.00284464
-0.0584595
0.0581478
-0.00253297
0.00248582
-0.11185
0.111393
-0.00202889
0.00260154
-0.217303
0.216521
-0.00181942
0.00118376
-0.213783
0.213413
-0.000813659
-0.000673635
0.420782
0.000933064
0.000600793
-7.97542e-05
0.418399
0.000244942
0.416728
-0.00067278
0.415701
-0.000445335
0.413157
-0.000238075
0.412537
0.411893
-0.000177812
0.412067
-0.000131335
0.412334
-6.46619e-05
0.412592
7.34545e-05
0.413015
0.000347412
0.413523
0.000837748
0.414171
0.000640062
0.415396
0.00072452
-0.209213
0.208929
0.000923802
-0.210023
0.20945
0.00191631
-0.00134393
-0.210976
0.209836
-0.00272684
0.00191884
0.00194777
-0.106018
-0.00278631
0.105452
0.00335289
-0.0529865
-0.00296852
0.0526881
0.00326693
0.00460138
-0.0555063
0.0551202
-0.00421528
0.00456793
-0.109471
0.108762
-0.00385906
0.00499529
-0.215347
0.213952
-0.00360021
0.00266927
-0.212848
0.212183
-0.00200425
-0.00170999
0.419327
0.00165844
0.00150599
-0.000826794
0.417516
-0.000244504
0.416146
1.61897e-05
0.41544
-0.0008094
0.413983
-0.000508676
0.412236
0.411617
-0.000108816
0.412047
-3.8068e-05
0.412263
5.48829e-05
0.412499
0.000246491
0.412824
0.000526355
0.413243
0.00102123
0.413676
0.000852059
0.414719
0.00084615
-0.208607
0.208298
0.00116047
-0.208886
0.208393
0.00200067
-0.00150745
-0.208788
0.207945
-0.00263875
0.00179868
0.00168254
-0.103988
-0.00244666
0.103623
0.00281186
-0.0510076
-0.00222502
0.0508612
0.00237139
0.00421102
-0.0524676
0.0521326
-0.00387603
0.00454196
-0.106704
0.106115
-0.00395237
0.00523579
-0.21243
0.211186
-0.00399102
0.00307752
-0.211501
0.210845
-0.00242216
-0.00210889
0.417833
0.00179384
0.00180958
-0.00115069
0.416558
-0.00049044
0.415486
-0.000403594
0.415354
-0.000950719
0.41453
-0.000748043
0.412034
0.411283
-4.27228e-05
0.412004
9.83294e-06
0.412211
0.00012319
0.412385
0.000279131
0.412668
0.000520403
0.413002
0.000868985
0.413327
0.00129177
0.414296
0.00119016
0.415532
0.00075597
-0.208051
-0.208135
-0.208013
0.207789
0.00141393
-0.207345
0.20786
0.000840195
-0.00135555
-0.103298
0.0002817
0.104543
-0.00152651
-0.0516344
0.0021749
0.050864
-0.00140449
-0.0179193
0.000567991
0.0179702
-0.000618895
0.00139835
-0.0508461
0.102305
-0.00298891
0.00118296
-0.0510514
-0.104881
0.00309891
0.104711
-0.00292871
0.00388008
-0.210245
0.20954
-0.00317498
0.00257879
-0.210366
0.210226
-0.00243868
-0.00195776
0.416717
0.00143759
0.00163601
-0.00113593
0.415736
-0.00054231
0.414892
-0.00109575
0.415907
9.54541e-05
0.413338
-0.000829553
0.412959
0.41103
-4.65664e-05
0.411993
-4.88284e-06
0.412169
6.41258e-05
0.412316
0.000158179
0.412574
0.00032768
0.412832
0.00045525
0.4132
1.83544e-05
0.414733
-0.000733908
0.417998
-0.00171378
-0.208325
0.209223
-0.00163208
-0.208494
0.207728
-0.000897039
0.00166313
-0.103235
-0.000275905
0.103117
0.000393312
-0.102126
0.00013781
0.102451
-0.000462244
-0.0408797
0.00154243
0.0845639
-0.0024019
-0.0428247
-0.103647
0.00270394
0.10339
-0.00244617
-0.208284
0.00299504
0.208803
-0.00546327
0.00194942
0.00509095
-0.209168
0.208667
-0.00458973
-0.00562678
0.416551
0.00280743
0.00421814
-0.210955
-0.206995
-0.0044472
0.415537
-0.00356425
0.414853
-0.0027605
0.414088
-0.000325208
0.413472
9.55421e-05
0.412918
0.000422141
0.412632
0.412164
-4.85738e-05
0.411997
-4.96509e-05
0.41217
-3.50335e-05
0.412302
9.72535e-06
0.412529
3.21009e-05
0.41281
-0.00014527
0.413377
-0.00136919
0.415957
-0.00169603
0.418288
3.68121e-05
-0.209145
0.207909
-0.000460387
-0.207252
0.207294
0.000115108
-0.000156566
-0.206772
0.207179
-0.000511618
0.000104726
-0.103159
0.000486898
0.103333
-0.000660866
-0.0864478
0.00105445
0.0872004
-0.00180709
-0.103315
0.00175903
0.207071
-0.00385072
-0.103368
0.00170353
-0.208413
0.00425363
0.20812
-0.00396089
-0.208357
0.00374647
0.208089
-0.00347794
-0.00417048
0.414919
0.00270974
0.0030932
-0.00289119
0.414258
-0.00244823
0.41441
-0.00220629
0.413846
-0.00194768
0.413213
-0.00164044
0.41261
-0.00120515
0.412197
0.411777
-8.8552e-05
0.412043
-9.12871e-05
0.412173
-0.000111058
0.412321
-0.000137615
0.412556
-0.000210101
0.412883
-0.000785391
0.413953
-0.00162246
0.416794
-0.000358631
0.417024
-0.000202872
0.415705
-0.207903
-0.207641
-0.000316637
-0.207451
0.207555
-0.000306451
-0.207519
0.207798
-0.000762574
0.000484534
-0.207283
0.00111238
0.207398
-0.00122698
-0.184346
0.00177714
0.185302
-0.00273304
-0.20746
0.00283489
0.207584
-0.00295904
-0.207872
0.00291592
0.207736
-0.00277979
-0.207905
0.00270748
0.207765
-0.002567
-0.00412226
0.414396
0.00227102
0.0023741
-0.00340942
0.413545
-0.00267025
0.413671
-0.00190516
0.413081
-0.00122467
0.412533
-0.000941009
0.412327
-0.000860325
0.412116
0.411815
-0.000116164
0.412107
-0.000165749
0.412223
-0.000240046
0.412396
-0.000308413
0.412624
-0.000550977
0.413125
-0.00160497
0.415006
-0.00164268
0.416832
-0.000728481
0.41611
-0.00104487
0.416021
-0.000714887
0.415949
-0.207683
-0.207779
-0.000816747
-0.208037
0.208262
-0.000939279
-0.207337
0.00126203
0.206827
-0.000752249
-0.186218
0.00153468
0.187404
-0.00272108
-0.20772
0.00206507
0.207852
-0.00219697
-0.00412918
0.415112
-0.207688
-0.207591
0.00207958
0.00221605
-0.00394287
0.415038
-0.20765
-0.207574
-0.00357602
0.414029
-0.00326311
0.413232
-0.00261008
0.413018
-0.00204665
0.412518
-0.00157718
0.412063
-0.00119447
0.411944
-0.000656275
0.411578
0.412107
-0.000149649
0.412189
-0.000243602
0.412317
-0.000322137
0.412474
-0.000422685
0.412724
-0.000614884
0.413317
-0.00141617
0.415808
-0.00110243
0.416518
-0.000774992
0.415782
-0.00116885
0.416415
-0.00163114
0.416411
-0.00191792
0.417352
-0.208595
-0.20847
-0.00275565
0.400022
-0.204744
-0.19444
-0.00366359
0.393348
-0.189994
-0.202446
-0.00358591
0.416168
-0.208058
-0.208188
-0.00350768
0.415034
-0.00340206
0.414932
-0.00313203
0.413759
-0.00288074
0.412981
-0.00240806
0.412545
-0.00200691
0.412117
-0.00171985
0.411776
-0.00125956
0.411484
-0.000875802
0.411194
0.412208
-0.000185883
0.412286
-0.000275423
0.412406
-0.000397515
0.412596
-0.00052139
0.412848
-0.000717494
0.413513
-0.00117995
0.41627
-0.0010171
0.416355
-0.000923465
0.415689
-0.00121082
0.416702
-0.00159923
0.416799
-0.00183751
0.41759
-0.00234128
0.400526
-0.00286855
0.393876
-0.00295115
0.416251
-0.00302285
0.415105
-0.00295529
0.414865
-0.00276924
0.413573
-0.00256178
0.412773
-0.00221947
0.412203
-0.00189495
0.411792
-0.00160265
0.411484
-0.00126109
0.411142
-0.000942066
0.410875
0.412254
-0.000222855
0.412394
-0.000349162
0.412532
-0.000486763
0.412734
-0.000626646
0.412988
-0.000771111
0.413658
-0.000951783
0.416451
-0.000968366
0.416372
-0.00100711
0.415727
-0.00124403
0.416939
-0.00157925
0.417134
-0.00173513
0.417746
-0.00208366
0.400874
-0.00244871
0.394241
-0.00251002
0.416312
-0.0026288
0.415224
-0.00258198
0.414818
-0.00245329
0.413444
-0.00230432
0.412624
-0.00205067
0.411949
-0.00178723
0.411529
-0.00152572
0.411222
-0.00122991
0.410846
-0.000950543
0.410596
0.412288
-0.000259393
0.412512
-0.000396058
0.412669
-0.000521604
0.412859
-0.000671668
0.413138
-0.000824425
0.413811
-0.000897084
0.416524
-0.00100005
0.416475
-0.00119588
0.415923
-0.00125196
0.416995
-0.00153315
0.417416
-0.00166203
0.417875
-0.00188191
0.401094
-0.0021224
0.394481
-0.00219706
0.416387
-0.00230385
0.415331
-0.002273
0.414787
-0.00218865
0.41336
-0.00208581
0.412522
-0.00186053
0.411724
-0.00169003
0.411358
-0.00142798
0.41096
-0.00119422
0.410613
-0.000972837
0.410374
0.412285
-0.000317519
0.412658
-0.000415922
0.412767
-0.000570434
0.413014
-0.000703519
0.413271
-0.000858883
0.413966
-0.000931791
0.416596
-0.00103505
0.416578
-0.00121636
0.416105
-0.00123892
0.417018
-0.00147419
0.417651
-0.0015819
0.417982
-0.00171726
0.401229
-0.00187021
0.394634
-0.00194392
0.416461
-0.00203847
0.415426
-0.00201625
0.414765
-0.00195834
0.413302
-0.00185856
0.412422
-0.00171689
0.411582
-0.00156157
0.411203
-0.00133557
0.410734
-0.00113529
0.410412
-0.000922687
0.410162
0.41231
-0.000329352
0.412786
-0.000476829
0.412915
-0.000611693
0.413149
-0.00074706
0.413407
-0.000901061
0.41412
-0.000948525
0.416644
-0.00105057
0.41668
-0.00121565
0.41627
-0.00132682
0.417129
-0.00141747
0.417742
-0.00150151
0.418066
-0.00158009
0.401308
-0.00167169
0.394726
-0.00173891
0.416528
-0.00181955
0.415506
-0.0018036
0.414749
-0.00176222
0.413261
-0.00168599
0.412346
-0.00155113
0.411447
-0.00142457
0.411076
-0.00127291
0.410583
-0.00110009
0.41024
-0.000936662
0.409998
0.41229
-0.00036272
0.412914
-0.000489084
0.413041
-0.000646798
0.413307
-0.000781921
0.413542
-0.000909409
0.414248
-0.000952012
0.416687
-0.00105502
0.416783
-0.00120351
0.416418
-0.00134492
0.417271
-0.00135717
0.417754
-0.00142542
0.418135
-0.00145408
0.401337
-0.00151283
0.394784
-0.00155735
0.416572
-0.00163467
0.415584
-0.00162327
0.414738
-0.00159807
0.413235
-0.00154116
0.412289
-0.00145062
0.411357
-0.00134626
0.410972
-0.00117358
0.41041
-0.00102324
0.410089
-0.000882043
0.409857
0.41229
-0.000395253
0.413042
-0.00052105
0.413167
-0.000654295
0.41344
-0.000787338
0.413675
-0.000932042
0.414392
-0.000968695
0.416723
-0.00104824
0.416863
-0.00118305
0.416553
-0.00130909
0.417397
-0.00156163
0.418006
-0.00154556
0.418118
-0.00151659
0.401308
-0.00150037
0.394768
-0.00153625
0.416608
-0.00158264
0.41563
-0.00157184
0.414727
-0.00156267
0.413226
-0.00153158
0.412258
-0.00150245
0.411328
-0.00130301
0.410773
-0.00114965
0.410257
-0.000994804
0.409934
-0.000849548
0.409712
0.412284
-0.000427186
0.413167
-0.000550776
0.413291
-0.000658046
0.413547
-0.000810342
0.413827
-0.000926054
0.414508
-0.000978798
0.416776
-0.00103824
0.416922
-0.00116018
0.416675
-0.0013851
0.417622
-0.00159958
0.418221
-0.00164091
0.41816
-0.00162788
0.401295
-0.00163212
0.394772
-0.00167954
0.416656
-0.00172428
0.415675
-0.00171337
0.414716
-0.00169672
0.41321
-0.00163244
0.412193
-0.00157071
0.411266
-0.00149482
0.410697
-0.00137813
0.41014
-0.00128151
0.409838
-0.0011508
0.409581
0.411933
-0.000458598
0.413289
-0.000578762
0.413411
-0.000704089
0.413672
-0.000806953
0.41393
-0.000915933
0.414617
-0.000961976
0.416822
-0.00102734
0.416988
-0.00124644
0.416894
-0.00143908
0.417814
-0.00155666
0.418338
-0.00158298
0.418186
-0.0015555
0.401267
-0.00153997
0.394757
-0.00157459
0.41669
-0.00161269
0.415713
-0.00160415
0.414707
-0.00158981
0.413195
-0.00155096
0.412154
-0.00147598
0.411191
-0.00140916
0.41063
-0.00132617
0.410057
-0.00121752
0.409729
-0.00112025
0.409484
0.41157
-0.000489574
0.413405
-0.000582713
0.413504
-0.000702639
0.413792
-0.000800849
0.414028
-0.000925528
0.414742
-0.000965147
0.416862
-0.00112114
0.417144
-0.00133247
0.417105
-0.00141586
0.417898
-0.00151458
0.418437
-0.00153718
0.418209
-0.00149437
0.401224
-0.00146132
0.394724
-0.00149158
0.41672
-0.00152266
0.415744
-0.00151377
0.414698
-0.00150041
0.413182
-0.00146296
0.412117
-0.00141678
0.411145
-0.00133399
0.410547
-0.00123728
0.40996
-0.00118058
0.409672
-0.00106927
0.409372
0.411212
-0.000497358
0.413492
-0.000630615
0.413637
-0.000721905
0.413884
-0.000837911
0.414144
-0.000910664
0.414814
-0.00108004
0.417031
-0.00124837
0.417312
-0.00131989
0.417177
-0.00139507
0.417973
-0.0014826
0.418525
-0.00149412
0.41822
-0.00144343
0.401174
-0.00139412
0.394675
-0.00141868
0.416745
-0.00144883
0.415774
-0.00143697
0.414687
-0.00142621
0.413171
-0.00138873
0.412079
-0.00134728
0.411103
-0.00126877
0.410469
-0.00120066
0.409892
-0.001104
0.409576
-0.00102069
0.409289
0.410859
-0.000549415
0.413595
-0.000631895
0.41372
-0.000716832
0.413969
-0.000828143
0.414256
-0.00105309
0.415039
-0.00133023
0.417308
-0.00124232
0.417224
-0.00130659
0.417241
-0.00137263
0.418039
-0.00145372
0.418606
-0.00146238
0.418229
-0.00140169
0.401113
-0.00134338
0.394616
-0.00136335
0.416765
-0.00138466
0.415795
-0.00137641
0.414678
-0.00136579
0.41316
-0.0013271
0.412041
-0.00126661
0.411043
-0.00123526
0.410437
-0.00114923
0.409806
-0.00107746
0.409504
-0.000997615
0.409209
0.410484
-0.000554687
0.413667
-0.000654207
0.413819
-0.000754965
0.414069
-0.000816841
0.414317
-0.00148868
0.415711
-0.00130841
0.417128
-0.00123903
0.417155
-0.00129785
0.4173
-0.00135784
0.418099
-0.00143005
0.418678
-0.00143473
0.418234
-0.0013683
0.401046
-0.00129918
0.394547
-0.00131738
0.416783
-0.00133798
0.415816
-0.00132596
0.414666
-0.00131554
0.41315
-0.00127687
0.412002
-0.00124136
0.411007
-0.0011661
0.410362
-0.00112798
0.409768
-0.00103432
0.40941
-0.000956198
0.409131
0.410108
-0.000602565
0.413752
-0.000651742
0.413868
-0.000745442
0.414163
-0.00121217
0.414784
-0.00151499
0.416014
-0.00133231
0.416945
-0.00123375
0.417056
-0.00128933
0.417356
-0.00134347
0.418153
-0.00141155
0.418746
-0.00141068
0.418233
-0.00134269
0.400978
-0.00126972
0.394474
-0.00128201
0.416795
-0.00130094
0.415835
-0.00128898
0.414654
-0.00127951
0.413141
-0.00123712
0.41196
-0.00120438
0.410974
-0.00115056
0.410308
-0.00107039
0.409688
-0.000997664
0.409338
-0.000897796
0.409031
0.409751
-0.000601285
0.413804
-0.000691791
0.413959
-0.000755382
0.414227
-0.00133452
0.415363
-0.00147156
0.416151
-0.00131159
0.416785
-0.00123082
0.416975
-0.00128365
0.417408
-0.00133132
0.418201
-0.00139724
0.418812
-0.00139572
0.418231
-0.00132443
0.400907
-0.00124862
0.394398
-0.00125654
0.416803
-0.00127546
0.415854
-0.00125967
0.414639
-0.0012527
0.413134
-0.0012069
0.411914
-0.00117792
0.410945
-0.00112118
0.410251
-0.00106646
0.409633
-0.000968046
0.409239
-0.000890629
0.408954
0.409365
-0.000615193
0.413845
-0.000683009
0.414027
-0.000736968
0.414281
-0.00118461
0.415811
-0.00140159
0.416368
-0.00133889
0.416723
-0.0012241
0.416861
-0.00128539
0.41747
-0.00132291
0.418238
-0.00138976
0.418879
-0.00138379
0.418225
-0.00131393
0.400837
-0.00123758
0.394322
-0.00124154
0.416807
-0.001265
0.415877
-0.00123846
0.414612
-0.00124164
0.413137
-0.00120753
0.41188
-0.00116426
0.410902
-0.00110022
0.410187
-0.00102945
0.409562
-0.000968977
0.409179
-0.000871565
0.408856
0.40897
-0.000646027
-0.000715317
-0.000737625
-0.000964763
-0.00108077
-0.00134418
-0.00122029
-0.00128649
-0.00130931
-0.0013771
-0.00136575
-0.001308
-0.00124408
-0.00123459
-0.00125884
-0.00122492
-0.00123619
-0.00117047
-0.00115833
-0.00108632
-0.00104464
-0.00093254
-0.000882572
0.00374521
-0.00412925
-0.0550436
0.0573715
0.00592002
-0.0567523
-0.00321956
-0.00331963
-0.0515162
-0.00706416
0.0521914
0.000692972
-0.000708471
-0.0568031
0.0600334
0.00182193
-0.0599107
-0.000912058
-0.00103255
0.057917
-0.00298894
-0.00307814
-0.00205192
0.00233223
-0.0557512
0.0587616
-0.00245039
-0.0591044
0.001439
0.00135422
0.0600943
-0.000586054
-0.000706987
-0.00297582
0.00327882
-0.0532895
0.0554738
-0.00453394
-0.0559043
0.00496445
0.0583951
0.00164286
0.00156821
-0.00236167
0.0025508
-0.0511967
0.0521638
-0.00436317
-0.0525459
0.00474528
0.00505653
0.0550186
0.00231801
-0.0030562
-0.0508962
-0.000654576
0.0201832
0.000421057
-0.0100759
-0.00987373
-0.000794767
-0.00853709
-0.00924205
0.0504918
-0.00220713
-0.0504188
0.00213413
0.00452013
0.0518547
0.00423001
-0.00471128
-0.0505761
-0.0473975
0.000152402
0.0468591
0.00589706
-0.0509465
-0.00646677
-0.0499933
-0.00224597
0.0502425
0.0036409
-0.00437805
-0.106866
0.0551789
-0.054836
0.00340234
-0.0515308
0.0039733
0.0520115
0.0138082
0.00552798
-0.0272616
0.0138638
-0.00293619
-0.00300221
0.00492402
-0.0240445
-0.00534364
0.0244642
0.00536891
-0.0565503
0.110654
0.00581663
-0.109562
-0.00690846
-0.106051
-0.00769668
0.107197
0.00121127
-0.00134608
-0.108937
0.0564903
-0.0564719
0.000674542
0.00308047
0.0554912
0.0564796
0.00228835
-0.00247891
-0.0562891
0.028928
-0.000780937
-0.0288717
0.0014545
-0.000729854
-0.0284596
-0.00249069
0.00239721
0.0285531
0.0147236
0.000483479
-0.015104
-0.000103014
-0.0147752
0.00231856
-0.00254413
0.0150007
0.00170924
-0.0594183
0.113316
0.00238878
-0.112968
-0.00273672
-0.00609847
0.111625
-0.00134051
0.00175139
-0.108606
0.0553416
-0.055591
-0.00180253
0.000294654
0.0564816
0.0564479
-0.000860641
0.00101377
-0.0566011
0.0294017
0.000608151
-0.0294892
-0.000871851
0.00035116
-0.0294897
-0.00012637
0.000156942
0.0294718
-1.27517e-05
0.0136966
3.54274e-05
-0.0136781
-5.38307e-05
-0.0137742
6.2105e-05
0.0137894
-7.7267e-05
-0.00216235
-0.0587475
0.112623
-0.00162286
-0.11308
0.00208014
-0.00146876
0.113452
-0.00269279
0.0032702
-0.106596
0.0530726
-0.053354
-0.00269437
-0.00201547
0.0550796
0.0542357
-0.00275617
0.0030778
-0.0545573
0.00216402
0.0272517
-0.0273646
-0.00205116
-0.0282125
0.000954607
-0.0017636
0.0280453
0.000976234
0.014925
-0.00184975
-0.0152934
0.00221813
-0.0142578
-0.000370435
4.43799e-05
0.0145838
-0.00411133
-0.0559289
0.109677
-0.00418212
-0.110529
0.00503414
0.00307249
0.112036
0.0258751
-0.00331415
-0.0259852
0.00172631
0.00169792
-0.0135447
-0.00165488
0.00169011
0.0135095
-0.0040146
-0.0528162
0.106384
-0.0047094
-0.107148
0.00547347
0.00541694
0.108828
0.0239701
-0.00233083
-0.0240549
0.00241564
-0.0248522
-0.00297271
0.00309588
0.024729
-8.00543e-05
-0.000297743
-0.101749
-0.000806798
0.0437365
-0.0433711
0.000441393
0.000427428
0.0203237
-0.0013914
-0.0402951
-0.00292246
0.103203
-0.103629
0.00334831
0.00118212
0.050708
-0.00255998
-0.0284159
0.00251628
-0.00370624
-0.0272078
0.00347267
0.0274414
-0.0535621
0.00452926
0.0540994
-0.00506654
-0.0272841
0.027555
-0.00200764
-0.00196943
0.0285263
-0.0286083
-0.00125303
-0.00122496
0.00376945
-0.0245238
0.0248599
-0.00410556
0.00382126
-0.00406289
-0.0270425
0.00206132
-0.0148694
-0.00196708
0.002757
-0.00283782
0.013889
-0.0546163
0.00676723
-0.00752021
0.0553693
-0.0275179
-0.00272432
0.0278612
0.00513805
0.0148379
0.00206301
-0.0148396
-7.22797e-05
-0.0295118
0.00029458
-0.000200132
-0.000793338
0.00139857
0.0291596
-0.000836801
0.00189081
0.0566327
-0.00204389
-0.0144015
0.0145209
-0.000912691
0.0150417
-9.39865e-05
-0.01502
0.0143412
0.0143504
-0.00127156
-0.00138432
-0.000798164
-0.0143843
-1.20931e-05
-0.0138533
9.1164e-05
0.000770169
-0.000304171
0.0142576
-0.0591697
0.00353158
0.0594779
-0.00186447
-0.00197524
-0.0148614
0.0145747
0.0010569
0.0151236
0.000113602
-0.0152493
0.0150072
0.00214924
0.000819983
-0.0151979
0.00407413
-0.0588148
-0.00215963
-0.00226947
0.000967102
-0.0283729
-0.0016872
0.000880458
0.000572515
-0.00108205
0.0291085
0.000802732
-0.00119546
0.0562402
0.00140315
-0.0152067
0.0150193
0.000759897
0.0142446
0.00104624
-0.0143238
0.0149897
-7.43352e-05
0.000584315
-0.0151829
-0.000656629
-0.0138645
0.000263341
3.74145e-06
0.0137036
-1.07506e-05
-0.059872
-0.00103895
0.0596672
0.000673837
0.000569874
-0.0150526
0.015125
-6.87419e-05
0.0144428
-0.000898747
-0.0142007
0.0150582
0.000127471
-4.67117e-05
-0.0149704
-0.000502944
-0.060013
0.000376566
0.000267404
-0.0272273
-0.00217102
0.0271598
0.00108545
0.00115309
0.0263171
-0.00219446
0.00228437
-0.026407
0.0141229
0.00107629
-0.0273103
0.00112891
0.0011181
-0.00171865
-0.0136258
0.00179971
-0.00202002
0.00256526
0.0143797
-0.0571879
-0.00402049
0.0567609
0.00223729
0.00221021
-0.0147766
0.0144582
-0.00170168
0.027286
0.00169701
-0.00319062
-0.0275111
0.0147296
-0.000657151
-0.00162445
-0.0150019
-0.00379078
-0.0576046
0.00212853
0.00207894
-0.0255513
-0.00192092
0.0254747
0.0019976
0.0250289
-0.00159387
0.00165226
-0.0250873
-0.00218666
0.0262604
0.00224342
-0.00196381
0.00205434
-0.0256419
-0.00300987
-0.0249927
0.00315037
-0.00330269
0.025733
0.00173752
0.00170724
0.00163758
0.0271727
-0.00317915
0.0262536
-0.00318026
-0.0263874
0.0537569
-0.00474229
-0.0541615
0.00514693
-0.0245993
-0.000960752
0.0245571
0.00100296
0.0246376
4.99265e-05
9.90471e-06
-0.0246974
-0.00152471
0.0249619
0.00159168
-0.00107042
0.00109935
-0.0246282
0.0239639
-0.000632367
-0.0243345
0.00100297
-0.00222343
0.00231442
0.0238791
0.00463033
-0.00523064
-0.0529618
-0.0269644
0.00357779
-0.0248647
0.00351742
0.0251167
0.0128315
0.00381335
-0.0168352
0.000190388
0.00344884
-0.0111283
-0.0036697
0.0113492
-0.00260288
0.00303596
-0.104421
0.0512285
-0.0514034
-0.00218677
-0.00269109
0.0527951
0.051873
-0.00281602
0.00306862
-0.0521256
0.0256631
-0.0257432
-0.00188371
-0.0263937
-0.00210165
0.0263087
0.0111516
-0.00168859
-0.0113083
0.00184521
-0.0115194
-0.00183767
0.00198929
0.0113678
-0.00220655
-0.0508467
-0.00355235
0.104249
-0.10462
0.0039233
0.00523569
0.10569
-0.0114017
0.00277132
0.0117251
-0.0030947
0.0133834
0.00303776
-0.00303431
-0.0133868
-0.0244951
0.0248335
0.00458565
0.00520834
-0.0271983
0.00681555
-0.0537926
-0.00763928
-0.0264964
-0.00209172
-0.00207101
0.0271517
-0.00285673
0.0539175
0.00317496
-0.0115493
-0.000182964
0.0117822
-4.99486e-05
0.0123365
-0.000626076
0.000197195
-0.0119076
-0.0117485
-0.00106388
0.0116664
0.00114598
0.0118612
-0.0010644
0.001135
-0.0119318
-0.000445713
0.0126936
8.86195e-05
-0.00132669
0.0120779
0.00114702
-0.0118982
-0.00169892
-0.011378
0.00155756
-0.00229816
-0.0107983
0.00202485
0.0110716
-0.00467785
0.00510026
0.0533344
0.0261174
-0.00316654
0.0252412
-0.00287832
-0.0253728
-0.00099153
0.0116894
0.00116334
0.0115515
-0.000817985
0.00083112
-0.0115646
0.0251177
-0.00284924
0.0244
-0.00227548
-0.0244553
0.0509653
-0.00348143
-0.0512426
0.00375871
5.0417e-05
-0.0238524
0.000392971
0.023409
0.00215507
-0.0488328
0.0243465
0.0237338
-0.000833938
-0.000568663
0.00347412
-0.00376412
-0.0242338
0.00452823
-0.0237079
-0.00486491
0.00340535
-0.0475576
-0.00150198
-0.0020992
0.0234453
0.0243082
-0.0245538
0.0241933
0.000410912
0.00349666
0.00929668
3.81744e-05
-0.0258985
0.00567322
0.0263786
-0.00306194
-0.00309136
-0.0133515
0.0129152
0.00393292
-0.0113055
0.0114691
0.00328523
0.00400251
-0.0135406
0.00560144
-0.0254412
-0.00605872
-0.0150568
0.00285449
-0.00386117
0.0160635
0.00248556
-0.0146927
-0.00284961
-0.0136587
-2.50212e-05
0.0135961
8.76478e-05
-1.17275e-05
-0.0136777
3.06872e-05
-0.0142313
-0.0021355
0.00256013
0.0138067
-0.00249906
-0.015235
0.00350276
-0.0132591
-0.00328095
0.0263608
-0.0132401
0.00175621
0.00166318
0.0128531
-0.00126459
-0.0115287
-5.98738e-05
-0.00166806
-0.0133153
0.00172426
0.0107335
-0.0013555
-0.0107189
0.00134097
-0.00164579
0.00176164
0.0110358
-0.0115563
0.0114695
-0.00175092
0.0112397
-0.00160394
-0.0113243
0.0243627
-0.00270786
-0.0244829
0.00282801
0.00125551
-0.0127915
0.0115462
-1.0165e-05
0.0281336
0.00327976
-0.0279527
-0.00173529
-0.0017254
0.0115323
-0.0123921
0.000920798
-6.09853e-05
-0.0140057
0.00203568
0.0132255
0.00254075
0.00899126