/*--------------------------------*- C++ -*----------------------------------*\
| =========                 |                                                 |
| \\      /  F ield         | OpenFOAM: The Open Source CFD Toolbox           |
|  \\    /   O peration     | Version:  5.x                                   |
|   \\  /    A nd           | Web:      www.OpenFOAM.org                      |
|    \\/     M anipulation  |                                                 |
\*---------------------------------------------------------------------------*/
FoamFile
{
    version     2.0;
    format      ascii;
    class       volVectorField;
    location    "300";
    object      U;
}
// * * * * * * * * * * * * * * * * * * * * * * * * * * * * * * * * * * * * * //

dimensions      [0 1 -1 0 0 0 0];

internalField   nonuniform List<vector> 
6584
(
(45.0029 -0.00774149 1.83377e-25)
(45.0021 -0.0170404 8.91165e-24)
(45.0027 -0.0232254 8.16783e-29)
(45.0029 -0.031764 -1.61111e-23)
(45.0033 -0.0408704 0)
(45.0034 -0.0510132 0)
(45.0031 -0.0612381 0)
(45.0013 -0.0682957 1.71587e-23)
(44.9985 -0.069576 1.76462e-23)
(44.9935 -0.0582176 0)
(44.9883 -0.0253561 7.90487e-24)
(44.9846 0.0270549 -6.89893e-24)
(44.9854 0.0863891 -4.62774e-25)
(44.9906 0.133143 1.18748e-24)
(44.9969 0.154956 3.93743e-25)
(45.0035 0.151972 3.80349e-23)
(45.0066 0.134686 3.40881e-23)
(45.0078 0.112167 2.75243e-24)
(45.0073 0.0890264 2.39622e-23)
(45.0064 0.0683129 1.73272e-23)
(45.0053 0.0512562 0)
(45.0046 0.0363556 0)
(45.0035 0.0259369 2.63068e-23)
(45.0044 0.0115604 1.61661e-23)
(45.012 -0.016252 -8.69086e-24)
(45.0104 -0.0342901 -3.38435e-23)
(45.0127 -0.0458012 -4.55768e-23)
(45.0138 -0.0630207 0)
(45.0159 -0.0813624 -6.35674e-24)
(45.0165 -0.102354 -5.19074e-23)
(45.0151 -0.124543 -3.19749e-23)
(45.0066 -0.140996 5.44754e-23)
(44.9947 -0.146537 -1.92583e-24)
(44.9619 -0.125992 -1.31621e-23)
(44.922 -0.0591685 -4.5583e-27)
(44.8956 0.0512506 0)
(44.9008 0.178125 2.06841e-23)
(44.9372 0.276673 1.34769e-23)
(44.986 0.321664 -8.41857e-23)
(45.0193 0.313067 -2.23435e-23)
(45.0331 0.273564 -5.25161e-23)
(45.0379 0.225152 -6.84818e-23)
(45.0356 0.176825 -1.77645e-22)
(45.0308 0.134666 -1.46648e-22)
(45.0252 0.100795 -1.00703e-23)
(45.0215 0.071063 -4.27126e-24)
(45.0168 0.0517496 0)
(45.0183 0.0240569 1.40934e-23)
(45.0265 -0.0249056 -2.19247e-23)
(45.0254 -0.0506419 0)
(45.0305 -0.0665342 -9.04466e-24)
(45.0344 -0.0923748 -5.92236e-23)
(45.0399 -0.120356 -9.08368e-23)
(45.0427 -0.154039 0)
(45.0404 -0.193158 0)
(45.0222 -0.2243 -1.56963e-23)
(44.9866 -0.25877 -4.0026e-24)
(44.9293 -0.182772 4.14538e-24)
(44.8629 -0.101623 -7.50243e-24)
(44.8102 0.0426573 -1.08425e-23)
(44.8142 0.221103 0)
(44.8796 0.364003 0)
(44.9652 0.432015 1.58221e-24)
(45.0494 0.505305 -9.54492e-23)
(45.0874 0.421846 0)
(45.0974 0.338858 -3.01769e-23)
(45.0896 0.260368 0)
(45.0761 0.195202 -2.29677e-23)
(45.0618 0.145014 -6.32681e-23)
(45.0514 0.101257 -3.80739e-23)
(45.0409 0.0749771 0)
(45.04 0.0361896 1.09731e-23)
(45.0441 -0.032903 -1.33968e-23)
(45.0453 -0.0647332 0)
(45.0545 -0.0840115 -1.21148e-23)
(45.0632 -0.117868 0)
(45.075 -0.15544 0)
(45.0843 -0.204109 0)
(45.0852 -0.266219 -3.21352e-23)
(45.0619 -0.328176 1.68966e-22)
(44.9954 -0.407932 -9.56504e-24)
(44.8853 -0.332248 1.27152e-23)
(44.742 -0.240708 -7.74727e-24)
(44.5944 -0.010986 2.14264e-24)
(44.5764 0.329569 2.08384e-24)
(44.7311 0.601259 0)
(44.9302 0.688445 -1.40801e-22)
(45.074 0.634889 0)
(45.1926 0.580215 0)
(45.193 0.451544 2.26032e-22)
(45.1712 0.334862 1.49096e-22)
(45.1402 0.24527 -5.02115e-23)
(45.1121 0.180083 -3.52225e-23)
(45.0908 0.124233 0)
(45.0723 0.0930572 1.58351e-23)
(45.0657 0.0464527 1.3045e-23)
(45.0638 -0.0394553 -5.16281e-24)
(45.0689 -0.0751933 -3.26908e-25)
(45.0833 -0.0964165 -1.54283e-24)
(45.0998 -0.136842 -2.36726e-24)
(45.1216 -0.182405 3.33973e-24)
(45.1459 -0.246662 1.27468e-22)
(45.1593 -0.336309 -2.3286e-22)
(45.156 -0.43687 2.0301e-22)
(45.0207 -0.482913 1.2166e-23)
(44.8806 -0.547248 6.08264e-23)
(44.6024 -0.500769 -7.62839e-24)
(44.2074 -0.166052 1.20667e-23)
(44.1125 0.491919 -3.47821e-25)
(44.5061 0.993941 1.96639e-22)
(44.9412 1.06563 0)
(45.1915 0.906127 1.39904e-22)
(45.2749 0.687322 -3.20786e-23)
(45.3289 0.528106 -1.87502e-22)
(45.2807 0.38905 -1.06569e-22)
(45.2212 0.276496 4.0893e-23)
(45.1736 0.201249 -2.61568e-24)
(45.1368 0.136724 -1.53384e-24)
(45.1081 0.103538 1.81029e-23)
(45.0932 0.0534445 -6.93825e-24)
(45.084 -0.043807 2.54606e-24)
(45.0944 -0.080679 -6.77313e-24)
(45.1151 -0.101684 -3.16714e-25)
(45.1421 -0.14573 0)
(45.1777 -0.194213 -2.823e-23)
(45.2256 -0.270948 -1.65296e-23)
(45.2639 -0.365474 -9.1314e-23)
(45.2269 -0.475382 -1.92299e-23)
(45.1539 -0.640407 7.46241e-23)
(45.0069 -0.864132 3.38962e-22)
(44.4853 -0.899268 7.42367e-23)
(43.7332 -0.585639 1.19511e-26)
(43.3488 0.610297 -2.76391e-24)
(44.2036 1.55846 3.25706e-23)
(45.1124 1.63901 -3.17336e-22)
(45.4533 1.22215 0)
(45.5015 0.866156 1.80753e-26)
(45.5069 0.570234 3.917e-23)
(45.4133 0.411901 1.04561e-23)
(45.3149 0.281697 4.50077e-23)
(45.242 0.203575 -1.72107e-23)
(45.1857 0.135677 0)
(45.1453 0.104233 -9.38727e-24)
(45.1197 0.0558701 -1.33562e-23)
(45.103 -0.0453764 2.27724e-26)
(45.1196 -0.0802749 -3.21799e-24)
(45.1469 -0.0983744 3.98773e-24)
(45.1858 -0.141944 7.93808e-25)
(45.2374 -0.186116 1.10765e-24)
(45.3137 -0.267823 -4.21655e-23)
(45.3901 -0.357058 -5.84214e-23)
(45.3844 -0.50867 -1.21249e-24)
(45.416 -0.760067 -1.08581e-23)
(45.3718 -1.17384 5.46846e-23)
(44.7783 -1.6403 0)
(43.1461 -1.8333 4.85296e-23)
(41.0811 0.818395 1.92955e-24)
(44.0414 3.21896 1.41823e-22)
(45.5103 2.29656 -2.04743e-24)
(45.9446 1.47884 0)
(45.837 0.949899 9.57074e-23)
(45.719 0.540855 1.6505e-23)
(45.5585 0.386278 1.3891e-23)
(45.4128 0.252928 -3.78849e-24)
(45.3105 0.182765 -3.70784e-23)
(45.2323 0.118881 0)
(45.1798 0.0936198 -8.664e-24)
(45.1419 0.0527373 -8.35772e-24)
(45.1191 -0.0439275 -3.05047e-24)
(45.1419 -0.0738675 2.68972e-24)
(45.1748 -0.0863251 1.36026e-24)
(45.225 -0.124635 7.78544e-25)
(45.292 -0.156223 -1.92967e-24)
(45.3955 -0.229168 2.04475e-23)
(45.5163 -0.290781 6.43848e-27)
(45.5756 -0.456935 -1.08344e-23)
(45.76 -0.723423 8.53227e-27)
(46.0025 -1.21391 -1.30405e-22)
(45.8982 -2.17606 -7.71299e-24)
(45.058 -4.56594 2.96989e-24)
(45.8433 5.7551 2.56034e-23)
(46.785 2.81399 -2.42091e-23)
(46.6641 1.46917 5.15117e-23)
(46.2533 0.862556 -9.81113e-24)
(45.9298 0.415211 3.23748e-23)
(45.6936 0.300721 3.29007e-23)
(45.5005 0.186023 2.38376e-23)
(45.3693 0.13709 -1.183e-23)
(45.2703 0.0859247 0)
(45.2068 0.0714193 0)
(45.1566 0.0436358 -9.73761e-29)
(45.131 -0.0397047 -5.50608e-25)
(45.1589 -0.0623951 -7.93471e-26)
(45.1954 -0.0671551 -3.45077e-25)
(45.2535 -0.0959079 2.23821e-24)
(45.3311 -0.108141 3.07574e-24)
(45.4519 -0.158287 1.36213e-23)
(45.6058 -0.172672 3.72432e-23)
(45.7413 -0.308052 0)
(46.0638 -0.476013 0)
(46.6063 -0.773906 0)
(47.2966 -1.5486 -4.19313e-24)
(48.8521 -3.3383 6.6953e-25)
(50.4267 4.92069 0)
(48.4549 2.11972 0)
(47.3557 0.997223 0)
(46.6295 0.553894 1.05954e-23)
(46.0848 0.199273 0)
(45.7878 0.158732 -3.60858e-23)
(45.5607 0.0857658 -2.31418e-23)
(45.408 0.0696508 -2.1535e-24)
(45.2932 0.0392367 0)
(45.2221 0.0390785 4.75003e-25)
(45.1614 0.0289399 7.03327e-25)
(45.1378 -0.0334407 1.03869e-25)
(45.1689 -0.0478241 -1.54236e-25)
(45.2061 -0.0442779 1.65025e-25)
(45.267 -0.0612475 8.23176e-25)
(45.347 -0.0520235 -1.94468e-24)
(45.4688 -0.0719899 -1.28593e-25)
(45.6303 -0.0358809 -4.35747e-24)
(45.8159 -0.101782 -1.72546e-25)
(46.1792 -0.101555 0)
(46.8004 -0.0613987 -1.164e-23)
(47.8261 -0.150898 1.82434e-29)
(49.9562 -0.232669 -1.60015e-24)
(52.4609 1.07161 -4.11046e-24)
(49.3449 0.443118 -1.45735e-23)
(47.6684 0.181077 -1.10834e-22)
(46.817 0.0866334 0)
(46.137 -0.0610783 -7.27446e-23)
(45.816 -0.0163638 0)
(45.5801 -0.0329361 -5.85797e-25)
(45.4185 -0.0110001 0)
(45.2964 -0.0157498 -3.65031e-25)
(45.2226 -0.000166252 3.68306e-27)
(45.1546 0.00988691 -1.14102e-24)
(45.1398 -0.0262026 0)
(45.1718 -0.0326873 -8.0884e-25)
(45.2069 -0.0219514 -7.57632e-25)
(45.2648 -0.0277559 -5.0088e-25)
(45.3389 -0.000671114 1.09578e-24)
(45.446 0.00702912 5.94327e-24)
(45.5884 0.079556 1.8191e-23)
(45.7772 0.0904732 6.77664e-24)
(46.0708 0.236542 0)
(46.5246 0.544803 5.4688e-23)
(47.3257 1.06199 1.56338e-23)
(48.6816 2.35587 -9.32545e-25)
(51.432 -2.69239 -1.83562e-24)
(49.0288 -1.25477 2.45431e-23)
(47.4868 -0.640395 4.55842e-24)
(46.7523 -0.389753 6.3787e-23)
(46.0745 -0.303785 3.17596e-22)
(45.773 -0.18967 1.77084e-22)
(45.5544 -0.149565 -1.19253e-22)
(45.3985 -0.0933166 -8.40618e-23)
(45.2787 -0.0718526 4.60899e-24)
(45.2073 -0.0419362 1.99718e-24)
(45.1362 -0.0116712 -4.80129e-24)
(45.138 -0.0191121 1.14276e-25)
(45.1687 -0.0193698 4.40514e-25)
(45.1995 -0.00390559 6.96538e-25)
(45.2505 -0.00152135 -1.96977e-25)
(45.313 0.0359134 -2.03414e-32)
(45.3966 0.061183 9.23896e-24)
(45.5037 0.147497 2.80927e-23)
(45.6566 0.211823 6.12848e-24)
(45.8234 0.421198 0)
(46.0064 0.810723 -1.69958e-23)
(46.3204 1.52873 -4.07758e-24)
(46.4887 3.02443 -1.87893e-24)
(48.8678 -4.37468 -8.39064e-25)
(47.9162 -2.23606 0)
(46.9648 -1.18585 -9.96909e-23)
(46.4881 -0.740551 8.09335e-23)
(45.9238 -0.482047 4.56863e-22)
(45.6741 -0.330183 3.00501e-22)
(45.4908 -0.246388 0)
(45.3522 -0.166324 -7.48745e-23)
(45.2423 -0.122407 -4.25155e-23)
(45.1776 -0.081783 3.18884e-24)
(45.1074 -0.0336917 -4.06304e-24)
(45.1337 -0.0130687 0)
(45.1617 -0.00947632 1.5947e-25)
(45.1875 0.00776475 -1.87833e-25)
(45.2298 0.0143481 -5.10501e-25)
(45.2791 0.0539582 0)
(45.3386 0.0845482 -1.50246e-24)
(45.4096 0.164777 4.88089e-24)
(45.5098 0.246591 -3.58686e-25)
(45.5632 0.436256 1.25008e-24)
(45.5287 0.742019 7.84491e-24)
(45.4351 1.29694 1.48214e-24)
(44.7801 2.2632 0)
(46.2984 -4.15571 -1.27448e-24)
(46.6721 -2.36107 8.1917e-24)
(46.3597 -1.36898 4.69477e-23)
(46.1402 -0.909489 5.55324e-24)
(45.732 -0.579649 2.02975e-22)
(45.5459 -0.421642 2.13423e-22)
(45.4031 -0.313607 0)
(45.2877 -0.222703 -1.0327e-24)
(45.1923 -0.162681 1.67414e-23)
(45.1367 -0.116331 9.43618e-24)
(45.0709 -0.0543595 3.30983e-25)
(45.1287 -0.00860564 0)
(45.1532 -0.00362274 0)
(45.1742 0.0127796 0)
(45.2084 0.0198871 0)
(45.2464 0.0552257 -9.29591e-26)
(45.2874 0.0817556 1.6199e-25)
(45.3321 0.141121 -1.08653e-23)
(45.3604 0.219936 9.79262e-23)
(45.3786 0.341042 0)
(45.246 0.500387 0)
(45.0138 0.730413 1.59227e-23)
(44.1901 0.823748 8.36479e-23)
(30.9366 -0.989059 -1.51737e-24)
(44.8964 -2.48077 -1.66882e-22)
(45.799 -1.92998 -3.13479e-23)
(45.8721 -1.27887 -2.22197e-25)
(45.8124 -0.921508 -1.24364e-24)
(45.5419 -0.607651 -6.21426e-23)
(45.4141 -0.464231 8.1728e-24)
(45.3068 -0.350371 1.37485e-25)
(45.2145 -0.259884 -7.86428e-23)
(45.1348 -0.19088 0)
(45.0888 -0.143609 3.51753e-24)
(45.0294 -0.0723874 -8.36136e-24)
(45.1242 -0.00588151 0)
(45.1452 -0.00157285 -1.00393e-24)
(45.1625 0.0122175 -1.42507e-26)
(45.1903 0.0173279 0)
(45.2206 0.0450725 0)
(45.2508 0.0627991 -3.30661e-23)
(45.282 0.10231 9.80242e-24)
(45.3009 0.141505 1.39398e-22)
(45.2847 0.213473 1.39728e-22)
(45.1766 0.25486 1.09545e-22)
(44.9909 0.272021 0)
(44.6131 0.0104001 -6.05392e-24)
(36.5933 -0.868681 1.40223e-23)
(44.8603 -1.44034 -1.53642e-23)
(45.3805 -1.29208 1.55208e-23)
(45.5696 -1.06805 -1.64227e-23)
(45.4733 -0.755531 2.83272e-23)
(45.3815 -0.586943 -4.71054e-24)
(45.2949 -0.466511 -5.87417e-26)
(45.2131 -0.361597 -1.93042e-25)
(45.1414 -0.279474 0)
(45.0754 -0.207454 -3.48782e-23)
(45.0382 -0.163072 -4.06016e-23)
(44.9859 -0.0871725 -1.11989e-23)
(45.1212 -0.00478356 1.87771e-26)
(45.139 -0.00259385 -7.93254e-25)
(45.1539 0.0077111 1.98277e-24)
(45.1775 0.00953089 1.96041e-28)
(45.2038 0.0287325 -6.47928e-24)
(45.2291 0.0369163 -2.26508e-23)
(45.2575 0.0571112 -9.1303e-23)
(45.2745 0.0730303 -1.53223e-22)
(45.2617 0.0987979 -2.96041e-23)
(45.2061 0.0742278 -5.0592e-24)
(45.1375 -0.0242119 0)
(45.0017 -0.187467 -4.47479e-24)
(37.8203 -0.764141 -3.58368e-23)
(45.0759 -0.868427 -6.1243e-24)
(45.2888 -0.956413 -4.85495e-24)
(45.408 -0.861172 -8.60982e-24)
(45.3376 -0.661216 -1.37569e-22)
(45.2617 -0.545821 0)
(45.1961 -0.446501 -1.89518e-23)
(45.1298 -0.355753 -4.90675e-24)
(45.0726 -0.284824 -1.54122e-24)
(45.0176 -0.214185 5.57772e-24)
(44.9876 -0.175025 0)
(44.9427 -0.0983814 0)
(45.1202 -0.00505202 6.05564e-27)
(45.1354 -0.00579203 9.86656e-26)
(45.1492 0.000851307 6.57175e-25)
(45.1704 -0.000927755 0)
(45.1957 0.0100617 -2.21379e-24)
(45.2203 0.0103836 0)
(45.2524 0.0134827 -2.23184e-23)
(45.2766 0.0152652 -3.20752e-24)
(45.306 -0.0178734 2.21609e-25)
(45.2664 -0.0351703 -3.36162e-24)
(45.2888 -0.142124 1.55531e-23)
(45.2081 -0.387739 -9.30229e-24)
(40.2675 -0.703519 -3.71064e-23)
(45.1654 -0.703584 2.7572e-24)
(45.2764 -0.732742 1.37666e-23)
(45.3242 -0.694369 4.66182e-24)
(45.2369 -0.572619 -6.95934e-23)
(45.1734 -0.490192 7.24468e-23)
(45.1162 -0.414253 0)
(45.0592 -0.338693 2.78578e-23)
(45.0114 -0.280227 -2.00136e-24)
(44.9644 -0.213596 6.84207e-24)
(44.9397 -0.180848 0)
(44.9013 -0.106347 0)
(45.1213 -0.00638045 -4.75177e-26)
(45.1346 -0.0103202 1.41246e-25)
(45.1483 -0.00706443 -9.96312e-25)
(45.1684 -0.0120629 -7.57822e-25)
(45.1948 -0.00817092 0)
(45.2211 -0.0131163 0)
(45.2601 -0.0216442 5.78733e-23)
(45.2951 -0.0288938 -8.94758e-24)
(45.348 -0.070901 7.82133e-24)
(45.348 -0.111976 -2.60611e-23)
(45.3913 -0.189154 0)
(45.1388 -0.321431 -1.95429e-23)
(40.7332 -0.692435 -1.20893e-22)
(45.2715 -0.513638 1.71454e-23)
(45.2666 -0.535205 4.61352e-23)
(45.2606 -0.517543 9.83534e-23)
(45.1763 -0.490498 5.74686e-23)
(45.1124 -0.429309 6.19318e-23)
(45.054 -0.377428 -9.09989e-24)
(45.0015 -0.315115 -5.82195e-24)
(44.9585 -0.269161 -1.35828e-23)
(44.9171 -0.207841 -4.88061e-23)
(44.8956 -0.18177 6.82515e-25)
(44.8628 -0.111407 -2.27581e-24)
(45.1244 -0.0084817 -6.26494e-25)
(45.1364 -0.0154914 1.61911e-25)
(45.1506 -0.0151266 -1.01567e-24)
(45.1705 -0.0226001 -1.72151e-24)
(45.1992 -0.0244689 0)
(45.2278 -0.031965 0)
(45.2746 -0.0487301 7.00737e-23)
(45.3164 -0.0545993 2.66759e-24)
(45.3947 -0.110938 -1.08878e-23)
(45.3926 -0.0928148 -3.0244e-23)
(45.5161 -0.303431 0)
(43.5615 -0.0121067 -2.36299e-23)
(42.845 -0.6189 -1.68533e-24)
(45.3963 -0.312397 1.00891e-23)
(45.2568 -0.49206 5.33504e-24)
(45.2537 -0.424771 -2.52474e-23)
(45.1424 -0.427167 -1.79831e-23)
(45.0713 -0.37534 1.05951e-23)
(45.0068 -0.342106 -3.38565e-24)
(44.9554 -0.289191 -4.74362e-23)
(44.9139 -0.254703 -1.50335e-23)
(44.876 -0.198869 -6.36948e-23)
(44.8563 -0.179094 0)
(44.828 -0.114061 -9.00392e-24)
(45.1293 -0.0111245 -6.54827e-25)
(45.1403 -0.0208223 -6.15422e-25)
(45.1556 -0.0228218 0)
(45.1756 -0.0319182 -1.15569e-24)
(45.2072 -0.0385171 0)
(45.2378 -0.0461625 -3.79496e-23)
(45.292 -0.0703355 -5.47533e-24)
(45.3371 -0.0686739 6.49131e-24)
(45.4317 -0.142336 -9.13839e-24)
(45.4339 -0.0884323 -1.01388e-23)
(45.5272 -0.318523 -4.40387e-24)
(43.6441 -0.0505462 -9.6648e-23)
(42.9184 -0.503774 3.6729e-23)
(45.3863 -0.235874 -9.77747e-24)
(45.2649 -0.439765 -4.81351e-24)
(45.2486 -0.346028 -1.44487e-24)
(45.1176 -0.377622 -9.10569e-24)
(45.0417 -0.327166 -1.20908e-23)
(44.9703 -0.309964 -2.68644e-23)
(44.9188 -0.263166 -6.49769e-24)
(44.8765 -0.238916 -3.8829e-24)
(44.8409 -0.188108 -2.08901e-23)
(44.8216 -0.173987 -8.99005e-24)
(44.7971 -0.114779 -4.01911e-24)
(45.1357 -0.0141418 0)
(45.1461 -0.026009 -1.3463e-24)
(45.1625 -0.0299151 -8.93486e-25)
(45.1828 -0.0397805 -6.98273e-25)
(45.2173 -0.0504159 6.01444e-24)
(45.2496 -0.0562847 -4.24663e-23)
(45.3102 -0.0875317 0)
(45.3581 -0.0761056 -1.01134e-23)
(45.4618 -0.163233 0)
(45.4756 -0.0866762 0)
(45.5487 -0.311849 -9.8174e-26)
(43.7043 -0.0643762 1.96806e-25)
(42.98 -0.431491 1.60999e-23)
(45.3962 -0.188199 -6.1193e-24)
(45.2807 -0.3919 -2.30823e-24)
(45.2446 -0.283962 -2.34957e-24)
(45.1007 -0.337525 2.25713e-24)
(45.0202 -0.284269 -5.39834e-24)
(44.9419 -0.281428 -7.41073e-24)
(44.8895 -0.238119 1.2096e-23)
(44.8453 -0.223001 -3.93111e-24)
(44.8111 -0.176513 0)
(44.7915 -0.167343 1.76096e-28)
(44.7699 -0.113965 0)
(45.1432 -0.0174226 0)
(45.1532 -0.0308796 -1.68471e-24)
(45.1709 -0.0363316 -9.98582e-25)
(45.1914 -0.0461684 2.0374e-24)
(45.2288 -0.060353 0)
(45.2623 -0.0630704 1.69084e-24)
(45.3281 -0.100724 -3.14544e-23)
(45.3789 -0.0792748 -2.03256e-23)
(45.4873 -0.175374 -1.74611e-24)
(45.5119 -0.0839013 5.37618e-26)
(45.5687 -0.299478 1.27132e-23)
(43.7367 -0.069948 -1.11983e-23)
(43.0154 -0.37784 2.00513e-23)
(45.4096 -0.154461 -3.147e-24)
(45.2957 -0.352524 4.90261e-24)
(45.2422 -0.235715 -7.58827e-25)
(45.0901 -0.304674 -4.09465e-24)
(45.0044 -0.246944 3.65739e-24)
(44.9198 -0.25661 9.09405e-24)
(44.8662 -0.214706 -1.77716e-28)
(44.8194 -0.207704 -1.89479e-24)
(44.786 -0.164718 -1.3147e-23)
(44.7655 -0.159815 6.80263e-24)
(44.7461 -0.111952 6.21143e-24)
(45.1516 -0.0209003 -1.00999e-24)
(45.1612 -0.035361 -1.92014e-24)
(45.1801 -0.0420965 -3.25551e-32)
(45.2008 -0.0512105 4.49026e-24)
(45.2408 -0.0685711 1.15863e-23)
(45.2752 -0.067315 1.04331e-24)
(45.345 -0.110567 -3.01014e-23)
(45.3985 -0.0798701 -1.87425e-23)
(45.5086 -0.181807 1.02687e-23)
(45.5417 -0.0810299 0)
(45.5839 -0.28569 2.56056e-24)
(43.7566 -0.0716712 -4.04503e-24)
(43.0373 -0.336269 5.75391e-24)
(45.4202 -0.128862 -2.45986e-24)
(45.3082 -0.319393 -2.063e-29)
(45.2408 -0.197558 -7.00033e-24)
(45.0833 -0.277415 -3.39586e-24)
(44.9925 -0.214889 -8.06445e-25)
(44.9026 -0.235232 4.96723e-24)
(44.8475 -0.193266 -7.21674e-24)
(44.7978 -0.193435 -1.13873e-23)
(44.7649 -0.153134 -5.56366e-24)
(44.7432 -0.151884 -5.87825e-24)
(44.7256 -0.109008 5.41664e-24)
(45.1604 -0.0245369 -1.36427e-32)
(45.1698 -0.0394499 -1.03266e-24)
(45.1899 -0.0472833 1.17378e-24)
(45.2107 -0.0551145 2.34388e-24)
(45.2529 -0.0753396 1.11747e-27)
(45.288 -0.0697277 0)
(45.3605 -0.11776 -9.14541e-25)
(45.4165 -0.0790257 -1.70264e-23)
(45.5266 -0.184433 8.5989e-24)
(45.5666 -0.0781893 0)
(45.5959 -0.271593 -9.54236e-29)
(43.7693 -0.0710285 3.03816e-24)
(43.0515 -0.303634 -6.4622e-24)
(45.4294 -0.109179 0)
(45.3187 -0.291375 5.58953e-25)
(45.2398 -0.167108 2.37084e-24)
(45.079 -0.254548 0)
(44.9832 -0.187511 1.73301e-24)
(44.8889 -0.216869 1.60512e-24)
(44.8323 -0.173895 -1.86917e-23)
(44.7798 -0.180368 -4.79384e-24)
(44.7472 -0.142005 4.72406e-24)
(44.724 -0.143867 -6.06954e-24)
(44.7077 -0.105344 0)
(45.1696 -0.0283151 1.10715e-24)
(45.1786 -0.0431814 -1.06744e-24)
(45.1998 -0.0519862 0)
(45.2206 -0.058108 7.40398e-25)
(45.2646 -0.0809164 2.82226e-24)
(45.3003 -0.070879 2.55518e-25)
(45.3746 -0.122889 0)
(45.433 -0.0774177 -2.41337e-25)
(45.5421 -0.184525 7.31494e-24)
(45.5877 -0.0754842 0)
(45.6056 -0.258094 1.77606e-24)
(43.7767 -0.0690488 1.19287e-24)
(43.0599 -0.277394 -4.24036e-24)
(45.4372 -0.0937968 4.36234e-25)
(45.3276 -0.267716 -1.47007e-24)
(45.2392 -0.142696 1.78233e-25)
(45.0763 -0.235222 1.202e-24)
(44.9759 -0.164222 -5.20423e-25)
(44.878 -0.201099 1.42858e-25)
(44.8199 -0.156562 -6.751e-24)
(44.7646 -0.168548 2.5972e-24)
(44.7321 -0.131472 2.71208e-24)
(44.7075 -0.135984 -9.7694e-25)
(44.6922 -0.10113 -5.2253e-25)
(45.1787 -0.0322254 -1.23176e-25)
(45.1875 -0.0466109 -1.39421e-24)
(45.2096 -0.0562957 -2.71893e-25)
(45.2303 -0.0604051 0)
(45.2758 -0.0855323 2.14275e-23)
(45.3121 -0.0712101 0)
(45.3874 -0.126443 -1.20902e-23)
(45.448 -0.0754817 0)
(45.5555 -0.182995 6.02912e-24)
(45.6054 -0.0730463 3.7769e-24)
(45.6126 -0.245547 0)
(43.7798 -0.0666177 9.33796e-25)
(43.0641 -0.256032 0)
(45.4436 -0.0816933 3.50159e-25)
(45.3351 -0.247599 -3.9638e-25)
(45.2388 -0.123041 0)
(45.0745 -0.218783 0)
(44.9698 -0.144497 -4.34904e-25)
(44.8692 -0.187551 6.1754e-25)
(44.8095 -0.141189 0)
(44.7518 -0.157937 0)
(44.7192 -0.121605 2.366e-24)
(44.6932 -0.128369 4.73421e-25)
(44.6787 -0.0965002 -1.82182e-24)
(45.1876 -0.0362593 1.27385e-25)
(45.1963 -0.0497964 1.00171e-25)
(45.219 -0.0602921 0)
(45.2398 -0.0621959 -2.1787e-25)
(45.2864 -0.0893846 1.05235e-23)
(45.3231 -0.0710493 -7.97942e-26)
(45.3989 -0.128826 -1.04852e-23)
(45.4615 -0.0735077 -2.87583e-25)
(45.5672 -0.180511 0)
(45.6205 -0.0708199 3.90013e-24)
(45.6173 -0.234131 0)
(43.7795 -0.0644369 0)
(43.066 -0.238395 0)
(45.449 -0.0719501 2.56312e-24)
(45.3412 -0.230332 4.4128e-24)
(45.2384 -0.107191 0)
(45.0733 -0.204729 -1.3745e-25)
(44.9647 -0.127881 0)
(44.862 -0.175903 0)
(44.8006 -0.127657 0)
(44.7408 -0.148465 0)
(44.708 -0.112462 -2.31565e-24)
(44.6806 -0.121108 -1.8059e-24)
(44.6667 -0.0915873 3.33131e-29)
(45.1962 -0.0404027 0)
(45.2047 -0.0527877 5.04021e-25)
(45.2281 -0.0640365 -1.0163e-24)
(45.2488 -0.0636288 1.06534e-24)
(45.2962 -0.0926351 9.70047e-24)
(45.3335 -0.0706324 1.92432e-23)
(45.4093 -0.130364 0)
(45.4736 -0.0716883 0)
(45.5775 -0.177565 5.74469e-25)
(45.6334 -0.0689035 -2.63405e-25)
(45.6207 -0.224004 -1.05081e-31)
(43.777 -0.062541 1.32875e-24)
(43.0653 -0.223471 7.35236e-24)
(45.4538 -0.0639919 2.10065e-24)
(45.3463 -0.215735 1.2505e-25)
(45.2379 -0.0943489 0)
(45.0724 -0.192726 -3.07494e-24)
(44.9602 -0.113894 -4.24712e-24)
(44.8558 -0.165894 0)
(44.7929 -0.115795 -4.10568e-24)
(44.7312 -0.140059 -3.44353e-39)
(44.6981 -0.104028 5.6463e-24)
(44.6695 -0.114266 3.4125e-24)
(44.6559 -0.0864794 2.76596e-24)
(45.2043 -0.0446315 -1.10812e-24)
(45.2127 -0.0556175 3.86149e-25)
(45.2366 -0.0675674 -5.05706e-25)
(45.2573 -0.0648176 2.00181e-24)
(45.3052 -0.0954081 8.5117e-24)
(45.3431 -0.070126 3.54866e-23)
(45.4186 -0.131302 0)
(45.4846 -0.0701013 0)
(45.5866 -0.17445 4.97745e-25)
(45.6446 -0.0673492 0)
(45.6231 -0.215089 0)
(43.773 -0.0610121 0)
(43.0626 -0.210832 0)
(45.4577 -0.0575711 -1.7031e-24)
(45.3505 -0.20339 -3.02207e-24)
(45.2375 -0.0839587 -2.64997e-24)
(45.0716 -0.182504 -5.01764e-24)
(44.9562 -0.102184 -3.61602e-24)
(44.8505 -0.157322 0)
(44.7861 -0.105474 -9.8242e-25)
(44.7227 -0.132653 0)
(44.6892 -0.0963098 0)
(44.6594 -0.107886 1.59513e-24)
(44.6459 -0.0812683 1.32136e-24)
(45.2117 -0.0489077 -8.24915e-25)
(45.2201 -0.0583003 -5.68962e-25)
(45.2444 -0.0708991 -2.13144e-25)
(45.2653 -0.0658394 1.21864e-25)
(45.3135 -0.0977957 -2.28172e-32)
(45.352 -0.0696483 1.63572e-23)
(45.4271 -0.131831 0)
(45.4946 -0.0687835 -6.80427e-25)
(45.5947 -0.171354 7.31347e-25)
(45.6545 -0.0661654 2.99966e-25)
(45.6246 -0.207292 3.81922e-24)
(43.7677 -0.0598967 9.10186e-25)
(43.0581 -0.200158 2.61328e-24)
(45.4609 -0.0524877 0)
(45.354 -0.192972 0)
(45.2369 -0.0756143 4.33184e-26)
(45.0709 -0.173855 2.11376e-24)
(44.9525 -0.0924687 1.34542e-29)
(44.8457 -0.150043 -1.78995e-24)
(44.7797 -0.0965871 0)
(44.715 -0.126193 0)
(44.6809 -0.089321 5.81156e-25)
(44.6501 -0.102015 0)
(44.6365 -0.0760471 0)
(45.2184 -0.0531746 0)
(45.227 -0.0608203 -8.06277e-25)
(45.2516 -0.0740204 -6.22225e-25)
(45.2728 -0.0667312 -9.15814e-25)
(45.3211 -0.0998592 0)
(45.3603 -0.0692644 0)
(45.4347 -0.132082 0)
(45.5037 -0.0677705 -9.8825e-25)
(45.602 -0.168429 0)
(45.6632 -0.0653593 -1.15812e-25)
(45.6256 -0.200533 1.64774e-24)
(43.7615 -0.0592226 3.39041e-25)
(43.0522 -0.191195 2.18284e-24)
(45.4635 -0.048591 2.10244e-24)
(45.357 -0.184251 2.08192e-24)
(45.2363 -0.0690245 0)
(45.0703 -0.16662 -1.75758e-24)
(44.949 -0.0845258 -2.05382e-24)
(44.8414 -0.143952 0)
(44.7738 -0.0890492 0)
(44.7079 -0.120654 0)
(44.673 -0.0830901 5.56917e-25)
(44.6412 -0.096705 0)
(44.6273 -0.0709189 0)
(45.2243 -0.0573451 6.7049e-26)
(45.2332 -0.0631365 -5.41627e-25)
(45.258 -0.0768864 1.8586e-25)
(45.2798 -0.0675031 0)
(45.3281 -0.10162 9.653e-25)
(45.3681 -0.0689521 -2.51756e-25)
(45.4417 -0.132133 0)
(45.5121 -0.0670502 -4.49354e-25)
(45.6086 -0.165744 6.22726e-25)
(45.6711 -0.064911 2.38691e-25)
(45.626 -0.19474 -7.16375e-26)
(43.7545 -0.0589808 2.25779e-25)
(43.0453 -0.183755 3.59704e-24)
(45.4657 -0.0457779 2.39495e-26)
(45.3597 -0.177063 -2.2032e-26)
(45.2356 -0.0639787 1.33419e-24)
(45.0696 -0.16069 2.75354e-26)
(44.9456 -0.0781849 -1.38071e-25)
(44.8374 -0.138969 0)
(44.768 -0.0828005 -1.40343e-24)
(44.7011 -0.116027 -1.14588e-24)
(44.6652 -0.0776612 0)
(44.6327 -0.0920292 1.48092e-24)
(44.6181 -0.0660047 6.25766e-25)
(45.2292 -0.061285 0)
(45.2388 -0.0651715 -3.88384e-25)
(45.2637 -0.0794303 -2.50006e-25)
(45.2863 -0.0681637 -3.7492e-26)
(45.3343 -0.103088 0)
(45.3755 -0.0687274 6.48146e-24)
(45.4479 -0.132063 -1.34774e-24)
(45.52 -0.0666043 -4.29006e-25)
(45.6146 -0.163359 -5.43663e-25)
(45.6785 -0.064791 -1.51773e-25)
(45.6261 -0.189859 1.10796e-24)
(43.7471 -0.0591457 2.38514e-25)
(43.0376 -0.177729 1.43997e-24)
(45.4675 -0.0439696 1.81414e-26)
(45.362 -0.1713 -1.3441e-24)
(45.2347 -0.0603194 -9.83075e-25)
(45.069 -0.155988 5.43171e-26)
(44.9421 -0.0733238 -1.39922e-25)
(44.8337 -0.135058 0)
(44.7623 -0.0778203 -9.81735e-25)
(44.6947 -0.112335 -9.12311e-25)
(44.6575 -0.0731144 0)
(44.6242 -0.0880914 4.44939e-25)
(44.6087 -0.0614668 -6.53809e-25)
(45.2331 -0.064817 -2.17114e-25)
(45.2441 -0.0668316 2.97003e-25)
(45.2687 -0.0815628 -7.00124e-25)
(45.2928 -0.0686594 -2.69882e-26)
(45.3399 -0.104246 6.79879e-25)
(45.3829 -0.0685816 6.38378e-24)
(45.4535 -0.131921 -5.79483e-25)
(45.5278 -0.0663983 -2.06376e-25)
(45.62 -0.161298 -4.58237e-25)
(45.6856 -0.0648894 -2.74065e-25)
(45.6258 -0.185763 -9.70037e-25)
(43.7392 -0.0596111 -3.94846e-26)
(43.0293 -0.173114 -1.08091e-24)
(45.4688 -0.0431624 0)
(45.3643 -0.166907 -9.97043e-25)
(45.2334 -0.0579156 -6.65679e-25)
(45.0685 -0.152448 2.46407e-26)
(44.9382 -0.069833 0)
(44.8302 -0.13217 7.13688e-26)
(44.7561 -0.0740827 1.12201e-25)
(44.6884 -0.109582 -6.76137e-25)
(44.6492 -0.0695307 -9.42945e-25)
(44.6156 -0.0849907 3.04122e-25)
(44.5983 -0.0574986 0)
(45.2356 -0.0675206 -8.9986e-26)
(45.2484 -0.0679123 2.6059e-25)
(45.2724 -0.0830533 -2.02132e-25)
(45.2986 -0.068925 0)
(45.3442 -0.105005 0)
(45.3897 -0.0685148 -1.44984e-24)
(45.4578 -0.131734 4.23898e-25)
(45.5349 -0.0664232 -1.37534e-25)
(45.6242 -0.159723 -6.62093e-25)
(45.692 -0.0652254 -7.67287e-26)
(45.6253 -0.18273 6.97434e-25)
(43.7319 -0.0603432 0)
(43.0214 -0.169945 0)
(45.4698 -0.0431315 0)
(45.3666 -0.16391 0)
(45.2319 -0.0566787 -3.97509e-26)
(45.0684 -0.150116 0)
(44.9344 -0.0677465 0)
(44.8275 -0.130355 5.97008e-26)
(44.7504 -0.0717259 0)
(44.6831 -0.107874 0)
(44.6415 -0.0671659 0)
(44.608 -0.0829709 2.72606e-25)
(44.5886 -0.0545401 0)
(45.2374 -0.0694065 0)
(45.2554 -0.0685401 -4.49512e-26)
(45.2763 -0.0840119 -1.3998e-25)
(45.3086 -0.0690543 -7.1672e-27)
(45.3486 -0.105486 1.68727e-25)
(45.4016 -0.0685433 -2.81549e-24)
(45.462 -0.131552 1.38541e-26)
(45.5473 -0.0665743 1.29837e-28)
(45.6283 -0.158417 3.33676e-32)
(45.702 -0.0649831 -1.25047e-29)
(45.6236 -0.179224 8.11431e-25)
(43.7224 -0.060376 0)
(43.011 -0.169053 1.30104e-25)
(45.4692 -0.0448768 -3.81994e-25)
(45.3706 -0.162225 -3.21726e-25)
(45.2276 -0.056303 -2.40287e-25)
(45.0701 -0.14865 0)
(44.9266 -0.0666481 0)
(44.8253 -0.129271 0)
(44.7399 -0.0703873 0)
(44.6765 -0.106895 0)
(44.6283 -0.0657504 0)
(44.5969 -0.0817837 1.91259e-25)
(44.5719 -0.0525404 0)
(48.5305 -3.67946 9.29437e-25)
(50.1989 5.78724 3.24701e-24)
(45.4272 6.4268 1.46841e-23)
(49.9547 -0.636529 -1.57214e-24)
(52.8361 1.71619 -6.00488e-25)
(50.7172 5.37264 -2.70057e-24)
(48.9314 2.1344 -8.67985e-25)
(52.0114 -2.48233 -6.71469e-24)
(52.9321 1.13304 -1.99691e-24)
(46.7546 3.03216 -2.61033e-24)
(49.2438 -4.6015 1.01562e-23)
(51.7096 -2.87844 0)
(44.9428 2.41096 2.69956e-28)
(46.3979 -4.58486 -7.24959e-24)
(48.8687 -4.71594 6.58708e-24)
(44.1895 0.993323 0)
(35.0584 -0.378043 -1.10086e-24)
(30.4619 -1.07609 3.11043e-24)
(44.7126 -2.93562 3.46448e-23)
(46.0901 -4.44901 -1.10214e-23)
(44.5421 -4.34069 7.29291e-24)
(41.1008 -0.0722955 1.9049e-24)
(44.7806 6.06693 2.0693e-23)
(43.2052 2.84059 4.49649e-23)
(46.9999 -1.81683 -5.24434e-24)
(48.3062 -3.28069 2.65341e-25)
(45.399 -4.07474 -9.9389e-24)
(48.1164 10.6875 0)
(42.4438 9.87111 -1.17727e-23)
(49.9599 5.27932 0)
(48.3245 2.95339 5.09051e-25)
(46.7195 3.32915 -6.093e-23)
(47.7995 -0.519558 5.75597e-24)
(49.6408 -0.577125 -1.43534e-24)
(48.6013 -2.97818 3.04271e-25)
(49.5587 -2.22449 -2.76747e-25)
(50.9875 -2.69048 2.54751e-25)
(50.1046 -4.56823 -2.78849e-25)
(53.5598 5.12542 2.68712e-24)
(52.0296 7.81619 1.14526e-24)
(52.3759 1.60593 2.41411e-25)
(49.7107 1.14331 -1.74835e-23)
(48.792 2.604 6.69746e-24)
(47.5255 0.817821 1.16136e-23)
(48.7718 1.88638 7.65018e-25)
(49.6483 -0.207087 -1.64096e-27)
(49.7166 0.92389 9.64069e-29)
(51.0466 1.59883 -1.51257e-24)
(51.46 -0.33508 -1.80447e-26)
(53.8959 -2.0192 1.08993e-25)
(54.4155 1.52597 -2.25161e-24)
(51.6864 -2.32693 -8.06656e-24)
(49.6107 -0.992175 2.38015e-24)
(49.8266 0.585337 -1.79868e-23)
(46.5814 1.48703 -1.0211e-23)
(46.7856 2.7641 1.36872e-24)
(48.5471 2.09753 0)
(47.8683 2.8209 0)
(48.1492 4.00768 -5.12442e-25)
(49.5089 3.39494 -6.97109e-26)
(49.7254 -5.67003 -2.27853e-25)
(51.8814 -4.2647 2.24366e-24)
(49.2127 -4.26937 4.33573e-28)
(48.407 -2.37772 3.2277e-23)
(49.3817 -1.43502 2.80319e-23)
(45.9726 -6.48584 -8.68081e-25)
(47.7611 -6.34394 -1.03502e-25)
(46.5872 -4.28121 4.60573e-24)
(46.9171 -2.71903 0)
(48.0296 -2.55682 0)
(42.9212 -4.76929 8.01224e-25)
(44.1603 -5.91812 0)
(44.4751 0.106083 0)
(37.735 -0.166231 1.55442e-23)
(35.3326 -0.437301 8.73379e-28)
(35.0973 -1.03439 4.98282e-24)
(44.5099 -1.5922 0)
(44.6351 -2.70234 0)
(49.9363 -4.84415 2.13878e-25)
(48.0166 -6.70549 1.39691e-24)
(47.2772 -4.49288 8.60792e-24)
(48.1359 -7.12672 3.90427e-25)
(50.0958 -5.04087 9.58212e-25)
(43.2073 -7.61954 1.6476e-23)
(47.707 -7.42899 1.79246e-24)
(51.8895 7.99757 -1.36304e-25)
(48.49 10.5091 -1.67621e-25)
(48.3217 6.72209 -2.93646e-24)
(48.6425 9.86344 -2.97353e-25)
(51.7365 7.76533 8.02259e-26)
(51.4447 -0.606352 2.34311e-25)
(51.0724 -2.42674 0)
(49.7145 -1.83235 3.79874e-25)
(51.159 -2.59516 8.88847e-27)
(51.5381 -0.504855 7.06205e-28)
(50.2821 -4.74539 -4.64474e-25)
(51.1186 -2.73043 9.68205e-27)
(54.3744 1.80174 -3.25043e-24)
(53.6391 4.93301 6.00476e-24)
(52.2304 3.40402 -4.99829e-25)
(53.5925 4.65202 -8.06314e-25)
(54.4013 2.09144 1.53148e-24)
(51.8863 7.5958 1.037e-24)
(53.5103 4.84959 2.93741e-24)
(51.9295 3.93248 -4.89594e-25)
(49.6881 3.26303 0)
(50.9055 1.85061 -1.27745e-24)
(49.5615 1.27385 2.90621e-25)
(51.0429 2.06157 -1.05858e-25)