/*--------------------------------*- C++ -*----------------------------------*\
| =========                 |                                                 |
| \\      /  F ield         | OpenFOAM: The Open Source CFD Toolbox           |
|  \\    /   O peration     | Version:  5.x                                   |
|   \\  /    A nd           | Web:      www.OpenFOAM.org                      |
|    \\/     M anipulation  |                                                 |
\*---------------------------------------------------------------------------*/
FoamFile
{
    version     2.0;
    format      ascii;
    class       volScalarField;
    location    "100";
    object      p;
}
// * * * * * * * * * * * * * * * * * * * * * * * * * * * * * * * * * * * * * //

dimensions      [0 2 -2 0 0 0 0];

internalField   nonuniform List<scalar> 
6584
(
33.8718
32.9087
32.1125
31.8234
31.9578
32.6527
33.8843
35.6906
37.7237
39.7604
40.7583
39.584
35.3633
28.1808
19.0978
9.48664
0.450183
-7.65039
-14.5864
-20.462
-25.3651
-29.5352
-32.9075
-35.996
33.5712
32.693
31.8368
31.5337
31.6214
32.3102
33.5692
35.5396
37.8368
40.3472
41.8347
41.0242
36.7593
29.1144
19.4561
9.24255
-0.110157
-8.34566
-15.2636
-21.0736
-25.8741
-29.9934
-33.2574
-36.4466
32.923
32.0664
31.098
30.7136
30.6804
31.3223
32.6481
35.0697
37.9349
41.0349
45.0849
46.4503
43.1917
34.8153
23.378
8.2634
-1.82991
-10.3706
-17.1928
-22.765
-27.2815
-31.1956
-34.2388
-37.4103
32.0719
31.1505
30.0158
29.4585
29.201
29.6592
30.9944
33.8497
38.3563
43.2153
50.4901
55.4604
53.101
41.5509
25.7975
10.8799
-4.89299
-13.7452
-20.2614
-25.3436
-29.3825
-32.9207
-35.6467
-38.6547
31.0842
30.0155
28.6538
27.7959
27.158
27.1539
28.1591
31.0084
35.4184
44.487
56.6888
69.166
69.2291
50.6302
26.4483
7.01627
-6.4205
-19.1053
-24.7459
-28.808
-32.0994
-35.0511
-37.3597
-40.0659
30.0166
28.7208
27.0712
25.7621
24.535
23.549
23.6636
25.113
30.714
40.4917
58.5981
91.1153
105.726
69.907
22.3224
-2.57235
-15.8055
-26.2507
-30.4551
-33.0301
-35.3071
-37.4641
-39.263
-41.5366
28.9505
27.3647
25.3906
23.5151
21.5511
19.2615
17.906
17.9839
19.2875
26.0277
48.6122
108.049
198.028
78.5998
9.48814
-22.1103
-29.8993
-35.6645
-37.2342
-37.7797
-38.7752
-39.9606
-41.1879
-42.9246
27.9765
26.0723
23.782
21.3047
18.5347
14.8035
11.2653
9.0732
3.4717
-1.83734
1.33447
30.3605
2.89913
-45.6819
-53.854
-48.9406
-46.3512
-44.3806
-42.5667
-42.1331
-42.2714
-42.9266
-44.0733
27.1767
24.9734
22.4319
19.4373
15.9618
11.0125
5.3171
0.230497
-12.6825
-33.9621
-65.5591
-146.629
-220.611
-126.283
-89.6883
-68.5684
-56.154
-50.573
-46.6227
-44.8881
-44.0836
-44.2577
-44.8364
26.6093
24.1765
21.5042
18.2045
14.3386
8.83636
1.9041
-5.20231
-21.767
-50.8709
-99.1433
-209.28
-334.369
-179.327
-112.586
-81.6612
-62.3566
-54.3206
-49.1222
-46.5493
-45.1083
-44.9859
-45.1019
26.2943
23.7372
21.0815
17.7565
13.9272
8.71817
1.94162
-5.40057
-20.1822
-44.8242
-85.1462
-163.689
-307.374
-178.196
-112.919
-83.5335
-63.1828
-54.7354
-49.5591
-46.8087
-45.1713
-44.9931
-44.8171
26.2085
23.6408
21.1325
18.0355
14.6179
10.3646
4.93213
-0.986941
-10.1447
-22.6421
-40.8407
-63.6183
-197.761
-134.243
-93.6584
-74.6918
-58.7985
-51.9421
-47.9506
-45.6704
-44.2633
-44.2705
-43.9998
26.2932
23.8092
21.5279
18.811
16.0095
12.9593
9.39007
5.65776
2.65825
2.26082
5.3795
28.1497
-69.0704
-75.3271
-65.7751
-59.7519
-51.0103
-46.943
-44.765
-43.417
-42.5601
-42.9171
-42.7318
26.4733
24.1316
22.0951
19.7908
17.6187
15.6394
13.8097
13.4868
12.9037
19.5236
31.6323
72.4981
163.315
14.424
-28.4905
-40.493
-44.1714
-42.1724
-41.0653
-40.718
-40.4801
-40.3131
-41.1036
-41.1376
26.6765
24.4973
22.6727
20.7178
19.0344
17.7502
16.9468
17.478
18.7043
25.6091
37.387
58.3353
64.7212
27.4984
-7.82432
-23.6362
-30.7784
-33.9815
-35.3715
-36.4932
-37.2884
-37.7919
-39.0191
-39.3442
26.8463
24.8208
23.1497
21.4434
20.0662
19.1483
18.7512
19.7526
21.0017
25.3869
32.2056
40.2977
38.2675
16.5456
-0.133428
-14.3051
-23.6852
-27.685
-30.503
-32.5559
-34.1686
-35.2462
-36.8498
-37.4909
26.9472
25.0503
23.4705
21.9143
20.6825
19.8826
19.5256
20.2911
22.023
22.625
26.4784
28.9202
23.712
12.178
0.471806
-9.44041
-18.1856
-22.8871
-26.5081
-29.1136
-31.3063
-32.8093
-34.7127
-35.6543
26.9628
25.1626
23.6208
22.131
20.9258
20.0404
19.5462
19.4034
20.8576
19.5897
22.0959
19.4639
15.8352
7.02494
-3.34126
-7.52568
-14.6877
-19.4027
-23.3589
-26.2264
-28.7887
-30.5835
-32.6961
-33.8998
26.891
25.1562
23.614
22.1295
20.8855
19.8052
19.1425
18.1779
18.9484
16.222
18.3358
13.9044
9.61398
5.46082
-3.8829
-6.61219
-13.2098
-17.0427
-21.011
-23.8827
-26.6425
-28.6126
-30.8547
-32.2729
26.7393
25.0432
23.4781
21.9624
20.6565
19.3586
18.5446
17.0183
17.2921
14.2877
15.011
11.5302
7.95482
4.07527
-3.3673
-6.01617
-12.0889
-15.292
-19.229
-21.9831
-24.8367
-26.8957
-29.2085
-30.793
26.5199
24.8418
23.2432
21.6773
20.3048
18.805
17.8536
15.9535
15.8069
12.7277
12.4519
9.12736
6.04045
2.83948
-3.24413
-5.68687
-11.1871
-13.9714
-17.8391
-20.4353
-23.3231
-25.4141
-27.7566
-29.4642
26.2462
24.5708
22.9358
21.3126
19.8757
18.2049
17.1275
14.9836
14.4869
11.4006
10.6532
7.38829
4.56259
1.82424
-3.36335
-5.57067
-10.5441
-13.0012
-16.75
-19.1772
-22.0582
-24.1439
-26.4886
-28.2823
25.9311
24.2482
22.5781
20.8988
19.4031
17.5979
16.4084
14.1175
13.3506
10.3094
9.26567
6.1618
3.51488
1.03295
-3.50908
-5.54332
-10.0779
-12.2822
-15.8895
-18.1557
-21.002
-23.0591
-25.3881
-27.238
25.5862
23.89
22.188
20.4588
18.9109
17.0067
15.7197
13.3514
12.3745
9.41207
8.15413
5.21968
2.70385
0.401042
-3.65081
-5.55751
-9.72578
-11.7387
-15.2001
-17.3231
-20.1184
-22.1347
-24.437
-26.3195
25.221
23.5089
21.7793
20.0088
18.4149
16.4433
15.0709
12.675
11.5309
8.67395
7.2586
4.48391
2.05095
-0.114304
-3.78763
-5.5961
-9.45552
-11.3234
-14.6414
-16.6421
-19.3766
-21.347
-23.6166
-25.5139
24.8429
23.1152
21.362
19.5598
17.9252
15.9131
14.465
12.0755
10.794
8.04806
6.51315
3.88689
1.51239
-0.530233
-3.90847
-5.64488
-9.24568
-11.0041
-14.1852
-16.0834
-18.7515
-20.6754
-22.9092
-24.8089
24.4582
22.7164
20.9434
19.1192
17.4481
15.417
13.9012
11.5417
10.1464
7.51027
5.89119
3.3942
1.08687
-0.855195
-4.01197
-5.69837
-9.0824
-10.7584
-13.8096
-15.6235
-18.2238
-20.1036
-22.3005
-24.193
24.0714
22.3183
20.5284
18.691
16.9868
14.9538
13.3768
11.0647
9.57526
7.04992
5.3689
2.99372
0.744067
-1.14494
-4.12587
-5.76026
-8.95304
-10.5652
-13.4952
-15.242
-17.7742
-19.614
-21.7743
-23.6539
23.686
21.9248
20.1204
18.2774
16.5433
14.5213
12.8892
10.6345
9.06492
6.65079
4.91825
2.65382
0.447382
-1.3914
-4.22585
-5.82019
-8.85016
-10.4139
-13.2308
-14.9239
-17.3889
-19.1933
-21.3181
-23.1816
23.3049
21.5388
19.722
17.8796
16.1179
14.1163
12.4349
10.2404
8.60093
6.29517
4.52127
2.36043
0.188478
-1.60113
-4.31487
-5.87892
-8.76823
-10.295
-13.0065
-14.6566
-17.0562
-18.83
-20.9206
-22.7669
22.9306
21.162
19.3344
17.4976
15.7101
13.7354
12.0082
9.8749
8.17482
5.97246
4.16693
2.10515
-0.0366507
-1.78374
-4.39865
-5.93972
-8.70374
-10.2018
-12.8134
-14.4303
-16.7663
-18.5142
-20.572
-22.4012
22.5647
20.7955
18.959
17.1304
15.3202
13.3724
11.6026
9.52809
7.77435
5.66971
3.8458
1.88197
-0.226213
-1.94507
-4.48152
-6.00763
-8.65622
-10.1307
-12.6452
-14.2366
-16.5098
-18.237
-20.2634
-22.0768
22.2084
20.4387
18.5956
16.7764
14.9474
13.0258
11.2202
9.19747
7.39679
5.37994
3.55113
1.68295
-0.382955
-2.09494
-4.56376
-6.08455
-8.61894
-10.0762
-12.4929
-14.0684
-16.2783
-17.991
-19.987
-21.7873
21.8651
20.0947
18.2477
16.4375
14.5919
12.6934
10.8508
8.84878
6.99414
5.05425
3.26906
1.52705
-0.432565
-2.22354
-4.675
-6.21168
-8.61749
-10.0436
-12.3506
-13.9189
-16.0616
-17.7684
-19.734
-21.526
21.5238
19.7442
17.8995
16.0925
14.2443
12.3728
10.5231
8.56842
6.69279
4.79892
3.01823
1.33859
-0.555805
-2.40335
-4.72676
-6.29415
-8.53981
-10.009
-12.1917
-13.7915
-15.8534
-17.5719
-19.5016
-21.2917
21.2414
19.4652
17.6269
15.8351
13.9808
12.1221
10.1959
7.98433
5.85083
3.94486
2.5839
1.54963
0.478658
-2.45718
-5.31665
-6.9216
-8.84494
-10.011
-12.0193
-13.6368
-15.6168
-17.3618
-19.2589
-21.0627
-130.944
-213.657
14.1057
-207.507
-356.76
-240.357
-174.102
-342.146
-364.37
-76.546
-225.45
-330.243
18.531
-81.2761
-207.477
71.436
184.07
177.717
22.5477
-64.2976
52.6177
196.951
42.9327
100.634
-50.5216
-114.311
24.345
-143.69
125.339
-196.908
-119.649
-43.5548
-95.3751
-187.581
-128.722
-182.942
-266.058
-221.006
-434.592
-344.955
-327.608
-195.968
-143.309
-92.6416
-160.841
-189.322
-203.994
-282.5
-295.213
-490.057
-493.283
-317.122
-207.725
-205.31
-53.1722
-73.5768
-151.43
-128.521
-154.94
-216.955
-342.428
-425.961
-213.452
-161.855
-200.388
-162.475
-246.365
-84.5966
-91.6614
-145.133
29.358
-52.2558
63.8856
73.3521
166.714
72.4844
41.4299
27.0568
-212.414
-120.522
-70.9964
-133.575
-228.919
89.0632
-115.381
-337.332
-168.114
-122.194
-161.008
-327.387
-293.686
-270.749
-191.422
-279.912
-302.727
-237.18
-278.93
-488.126
-439.17
-320.236
-425.002
-484.478
-334.354
-420.864
-303.848
-224.944
-276.558
-198.507
-286.46
-230.294
-302.343
-290.375
-430.013
-486.591
-367.285
-485.546
-421.086
-487.879
-488.586
-370.937
-150.553
-83.5886
-224.802
-160.158
-252.38
-336.84
-273.106
-334.226
-251.996
-416.479
-339.849
-288.395
-5.54845
42.8965
-74.3346
-13.371
-64.6587
-150.433
-240.746
-160.81
-152.988
98.1141
118.033
48.6583
94.2362
84.6623
37.534
-47.0688
-101.137
79.5238
-19.8104
275.748
-4.97653
14.128
-61.6909
-25.8224
-15.5427
-74.3773
8.16101
-46.6833
9.05552
-31.4806
-74.3493
175.349
-83.2906
106.169
-133.114
-87.6967
-83.2514
-145.882
-115.78
-120.652
-82.3768
33.8199
56.8068
-77.0574
-39.7637
-53.8128
-103.518
-134.954
-149.138
-67.1365
60.1697
90.3719
-55.3829
19.5931
-17.6759
319.687
202.494
119.128
156.108
220.161
324.501
-57.0272
-33.8344
-66.696
250.639
-29.0653
5.86194
-400.213
-391.474
-501.822
-500.402
-379.84
-386.366
-197.139
-164.698
-203.836
67.3418
16.1963
-48.113
5.41088
-14.9535
-210.67
-184.03
-252.629
-215.778
-255.733
-197.101
-204.738
-91.3639
-38.0396
-110.982
-200.046
-270.261
-260.892
-294.012
-294.224
-257.777
-259.506
-466.377
-465.355
-461.693
-394.558
-370.428
-417.47
-401.068
-464.158
-383.016
-320.368
-280.697
-361.801
-331.781
-389.369
-264.143
-259.327
-304.178
-302.207
-461.471
-463.943
-462.673
-407.045
-420.91
-381.772
-401.211
-459.489
-497.486
-428.716
-421.394
-424.391
-429.05
-498.17
-125.378
-122.374
-126.252
-163.824
-82.2079
-121.205
-112.671
-198.42
-168.129
-188.798
-292.748
-299.045
-380.877
-349.865
-374.543
-314.755
-341.22
-375.483
3.75999
30.9196
-47.0491
-40.7734
-76.9495
-2.79182
-35.8482
-38.3413
-34.6498
-0.688942
-101.544
-103.374
-55.0726
-159.498
-110.13
-114.002
-109.955
130.787
149.866
206.387
94.3838
123.972
207.364
114.291
72.4867
489.209
28.1089
56.4559
22.8414
52.6998
81.8919
47.7632
106.025
78.7231
88.0666
255.701
37.0913
-7.9888
-14.0039
51.585
60.896
254.775
158.591
150.258
64.9531
79.1371
128.332
124.769
211.95
476.745
323.836
207.159
311.838
375.086
492.712
-250.602
-207.368
-225.954
-423.939
-369.41
-366.817
-293.987
-247.825
-242.014
-249.589
-251.16
-295.712
-497.349
-496.137
-358.605
-409.848
92.6695
76.1007
-2.99514
13.285
56.177
116.981
95.9193
110.04
-7.51325
-68.56
164.223
-310.23
-337.72
-364.853
-240.142
-195.274
-129.804
-265.746
-213.305
-261.952
-286.207
-242.71
-250.672
-228.566
-241.91
-283.049
-287.616
-309.002
-299.751
-327.411
-326.015
-299.047
-297.133
-291.132
-270.491
-481.141
-449.756
-441.113
-413.084
-404.05
-452.157
-442.817
-477.203
-236.503
-224.433
-256.504
-277.898
-294.845
-311.545
-304.962
-332.24
-328.732
-315.359
-325.681
-296.334
-444.237
-478.209
-476.884
-447.192
-453.351
-413.376
-415.12
-437.016
-492.857
-460.088
-452.799
-457.124
-460.35
-494.951
-269.539
-277.324
-257.818
-342.787
-331.266
-321.88
-296.98
-277.509
-305.511
-238.68
-267.705
-285.743
16.5626
29.9242
1.50433
53.1139
33.8021
23.4341
144.449
154.873
69.6959
84.3061
60.2759
130.535
141.795
115.012
98.5072
92.3671
379.113
140.475
18.7769
-16.4144
-11.9752
17.7868
-21.2474
-24.3176
46.6951
30.5432
244.393
-20.9665
8.04605
-105.296
-98.5212
43.0894
48.9765
43.4431
49.0494
41.4956
60.9036
51.7526
46.4071
-60.9014
-55.3405
-75.0958
-82.3024
72.6728
77.7508
64.4879
84.2001
101.346
-129.384
-108.068
-30.7501
-188.1
-130.164
-152.713
-420.1
-373.022
-498.864
-500.022
-363.44
-404.526
-187.67
-186.543
-204.444
-162.292
-180.467
-180.814
-236.008
-254.451
-210.213
-228.944
45.9535
64.7957
84.6326
25.9941
56.1619
39.8314
62.8457
29.5936
-232.882
-202.95
-223.912
-166.467
-194.837
-225.023
-249.135
-259.839
-229.801
-245.264
-158.745
-119.469
-156.673
-176.596
-190.519
-309.057
-329.826
-302.742
-309.711
-259.305
-206.238
-301.271
-273.563
-223.138
-256.616
-298.596
-319.043
-312.799
-288.289
-315.825
-321.578
-310.042
-311.636
-330.373
-329.14
-321.031
-327.614
-299.025
-324.211
-319.6
-281.815
-292.088
-263.434
-277.381
-301.738
-307.416
-294.445
-301.078
-269.322
-289.733
-283.137
-480.274
-451.351
-428.914
-415.892
-446.471
-474.864
-441.58
-430.641
-276.955
-289.905
-273.47
-299.551
-286.26
-315.439
-304.159
-264.805
-246.634
-281.355
-269.136
-333.131
-332.05
-303.885
-334.657
-337.874
-331.281
-335.789
-329.008
-317.196
-335.115
-331.73
-299.284
-327.857
-331.863
-448.641
-472.019
-435.024
-442.799
-472.371
-443.932
-420.405
-430.514
-464.103
-459.798
-495.289
-496.475
-463.172
-462.623
-141.071
-141.72
-138.751
-123.64
-159.47
-144.053
-148.431
-98.8072
-97.1015
-84.3044
-118.47
-102.512
-104.877
-219.956
-204.528
-240.654
-225.193
-182.531
-179.291
-164.398
-199.652
-184.415
-189.375
-300.954
-284.166
-275.886
-284.392
-299.832
-259.95
-277.279
-304.738
-316.218
-324.88
-305.844
15.9843
21.5004
11.3017
38.5135
25.5245
19.8293
40.2475
-19.719
5.97324
-14.8226
-138.884
-136.561
-156.078
-110.557
-130.37
-131.761
-130.622
-137.796
159.769
182.133
107.901
125.725
155.262
122.422
27.1646
-20.8491
21.2973
-4.95838
32.6135
65.7309
638.119
463.845
374.074
520.986
556.961
661.882
91.9962
182.461
133.536
-177.949
-202.773
-244.424
-430.392
-432.45
-437.326
-495.004
-493.651
-192.631
-172.608
-191.128
-426.895
-421.669
-421.12
-251.832
-233.44
-229.202
-181.056
-138.357
-170.864
-253.667
-240.402
-219.442
-195.557
-242.574
-211.426
-243.354
-269.263
-257.402
-484.106
-443.358
-447.785
-443.534
-469.782
-466.966
-481.429
-395.823
-387.391
-409.265
-248.811
-217.405
-200.605
-241.142
-255.795
-243.396
-434.632
-432.534
-429.325
-484.457
-482.97
-467.999
-470.577
-489.67
-474.545
-472.449
-473.412
-476.002
-491.849
-216.258
-222.906
-236.475
-401.503
-391.78
-402.773
-206.552
-197.686
-228.004
152.233
153.791
115.657
92.7299
75.3878
151.322
152.074
68.1612
99.7807
64.7368
-6.56885
14.4274
-115.89
-81.1771
-86.466
-87.809
-71.7302
-70.5589
-75.8608
-38.6383
-43.8543
-44.993
-101.807
-95.7861
-96.7656
98.8435
82.6428
76.5356
212.571
326.49
283.652
-80.2058
-97.5007
-79.31
-48.2193
-202.112
-182.858
-5.42326
71.2186
93.2175
-410.474
-413.995
-407.288
-384.306
-397.693
-404.091
-505.096
-500.575
-385.874
-379.873
-373.737
-393.168
-397.306
-391.755
-201.12
-205.884
-164.394
-170.259
-169.827
-210.692
-215.549
-222.998
-227.02
-209.48
-218.791
-244.854
-245.416
-251.041
-191.456
-201.183
-224.137
-272.031
-277.174
-255.29
-257.781
-255.886
-64.3746
-108.665
-143.874
-133.4
-125.494
-139.427
-184.782
-235.216
-223.89
-280.876
-272.687
-245.984
-280.985
-281.727
-469.85
-464.436
-355.166
-342.333
-363.606
-405.603
-378.113
-367.329
-248.45
-260.094
-272.445
-456.662
-465.547
-482.132
-481.638
-497.179
-499.412
-482.969
-482.461
-130.222
-131.483
-130.135
-124.784
-163.817
-159.023
-159.701
-203.278
-217.971
-207.938
-213.701
-208.959
-241.769
-238.262
-172.663
-173.487
-168.591
-204.602
-200.411
-371.199
-381.312
-396.376
-360.904
-352.548
-361.789
-55.9607
-54.7123
-45.0678
-75.0727
-64.7571
-61.1916
-82.6422
-85.9193
-103.836
-60.5758
-74.2171
-75.8572
-154.267
-151.8
-158.201
-116.906
-108.169
-154.125
185.746
187.537
199.757
121.436
108.221
121.498
104.694
137.686
125.972
117.463
194.213
159.929
90.978
109.904
92.3059
174.955
357.532
83.819
54.4257
57.4968
192.144
192.785
220.668
69.7786
69.5466
64.8822
79.7127
74.5182
74.352
215.642
173.148
163.555
360.834
504.17
464.24
-428.007
-429.332
-427.038
-372.211
-373.985
-367.836
-386.696
-375.901
-497.687
-493.772
-362.853
-366.529
-349.59
-356.287
-415.365
-414.98
-409.334
85.5972
90.3822
97.754
79.6119
84.4465
79.3897
-346.32
-345.01
-336.107
-361.227
-353.349
-355.898
-481.361
-447.028
-449.174
-450.217
-478.944
-464.536
-462.2
-440.567
-435.704
-440.374
-483.797
-462.04
-465.317
-480.747
-477.911
-476.064
-490.916
-493.996
-478.074
-479.358
-338.254
-339.643
-343.946
-329.918
-334.586
-334.604
156.396
159.976
142.191
146.571
134.834
141.897
137.235
121.039
113.007
108.807
114.356
120.812
102.809
107.256
103.668
79.5953
56.2
44.5266
113.52
325.42
281.986
351.164
166.796
199.942
250.242
-2.56901
-4.65588
-13.6817
13.7689
4.67896
6.90926
-36.6142
-37.5668
-45.1489
-22.3626
-30.4626
-29.4938
59.2089
79.095
20.2761
-75.4754
-106.466
-35.6047
-40.3944
-111.247
-93.3497
-91.8041
-97.9341
44.6812
46.6078
38.1726
41.002
44.004
-59.9787
-65.2814
-66.3639
-42.4141
-37.252
-47.9016
-49.9953
-48.6913
-54.606
-73.7407
-67.1326
-68.1488
-65.1151
-72.2349
-51.8955
-58.5107
-89.7241
-88.7485
-81.388
89.5683
90.7984
85.119
103.458
96.9055
95.2857
-137.121
-108.348
-103.91
-173.139
-181.267
-160.725
-414.607
-414.313
-420.117
-425.614
-395.375
-392.863
-406.258
-399.486
-502.497
-501.909
-378.368
-383.463
-370.046
-373.93
-368.322
-374.683
-370.056
-404.859
-400.815
-399.092
-391.215
-188.598
-195.539
-175.182
-176.132
-182.235
-242.93
-243.062
-235.723
-254.328
-249.917
-249.155
-216.183
-217.26
-211.606
-229.099
-222.716
-222.222
-221.22
35.9461
32.0252
22.5031
51.5522
40.2976
-224.384
-232.663
-239.731
-238.575
-228.949
-212.692
-222.129
-266.325
-268.27
-274.196
-270.452
-256.026
-255.453
-263.444
-162.955
-147.656
-159.31
-123.885
-196.896
-186.231
-178.391
-319.199
-303.357
-292.381
-325.995
-315.971
-328.65
-332.153
-320.032
-241.122
-242.935
-261.342
-225.144
-240.564
-224.739
-289.43
-274.18
-281.135
-285.304
-319.482
-322.211
-311.593
-314.242
-314.309
-313.131
-312.07
-329.37
-328.305
-322.242
-324.64
-287.115
-292.736
-286.923
-294.552
-293.908
-290.095
-267.107
-279.693
-277.402
-286.014
-282.709
-271.569
-283.643
-285.967
-303.073
-304.818
-303.782
-310.486
-307.346
-305.068
-296.987
-300.252
-297.065
-304.761
-304.97
-299.841
-474.36
-458.646
-295.645
-295.97
-298.292
-285.57
-291.595
-291.311
-311.402
-300.616
-303.795
-307.192
-259.296
-260.017
-266.278
-247.936
-253.388
-252.988
-276.986
-276.319
-280.318
-270.213
-272.996
-272.961
-335.31
-336.951
-334.059
-336.832
-323.996
-320.011
-332.577
-331.545
-452.032
-468.091
-496.967
-481.138
-479.666
-480.89
-482.197
-498.418
-135.159
-141.221
-135.741
-136.889
-154.725
-153.679
-147.445
-225.45
-219.093
-214.666
-219.918
-225.548
-235.593
-240.245
-243.506
-230.912
-235.511
-230.222
-235.269
-231.615
-184.292
-178.695
-177.444
-195.936
-189.545
-295.674
-292.044
-297.895
-280.186
-286.235
-290.371
-291.28
-295.873
-265.103
-263.887
-258.761
-271.013
-317.685
-317.351
-324.076
-303.814
-310.399
-311.468
17.8556
16.6759
20.461
8.80647
12.9478
14.7695
34.8932
31.7722
35.0997
24.3096
28.2127
29.8827
35.4596
-21.9051
-16.9808
-32.1153
-26.824
0.637017
-1.09645
3.86997
-11.7807
-5.79565
-5.08855
-137.566
-144.762
-146.342
-123.709
-145.42
165.361
172.667
114.257
120.085
110.971
132.022
125.774
119.983
130.4
137.647
142.863
129.088
59.3309
77.4305
63.2994
84.8557
95.765
71.6311
94.6798
76.1451
61.8947
65.7159
39.9502
38.574
34.5779
45.5358
49.1751
54.0939
91.6613
81.8206
111.853
178.859
106.707
179.536
104.82
82.3541
79.7377
28.5971
36.4545
16.6743
-0.844643
8.11591
13.7207
13.2085
40.3712
17.0301
43.0913
90.4775
104.236
168.83
150.551
282.282
209.647
167.693
80.4771
45.4914
55.7278
-27.7096
-31.04
-13.2248
-18.6765
-41.5614
0.455963
-16.0082
-20.0001
2.31838
5.61719
8.08893
38.0561
-83.4739
-79.05
-26.7466
-107.054
-78.9924
-53.7448
-45.19
-79.1463
-53.7519
-78.4029
-97.9183
-82.512
-160.609
-180.659
-165.66
-278.79
-217.375
-170.214
-171.279
-122.644
-103.143
-50.5766
-78.1261
-82.3738
-99.9562
-121.455
-121.448
-209.472
-233.694
-233.398
-340.167
-271.443
-260.268
-183.84
-138.802
-134.922
-34.9284
-46.2804
-72.0732
-75.8179
-88.3863
-100.497
-152.625
-165.686
-178.631
-271.736
-229.191
-251.364
-147.977
-123.135
-134.449
-9.73401
-6.02361
-36.0724
-50.7285
-51.9452
-66.6787
-148.963
-135.431
-173.328
-90.0164
-88.0346
-106.898
12.1809
23.2059
2.79487
-26.238
-46.7971
-69.7493
-37.7521
-50.9926
-68.7493
23.6116
30.6567
26.7403
38.2992
57.2256
60.8688
72.4989
89.7322
105.487
124.72
112.678
125.15
28.4382
-2.08262
-21.3895
-15.0052
-24.8504
-36.2548
26.0833
31.8725
32.0425
35.576
37.2407
53.268
43.8407
45.6111
69.5005
42.8632
29.2862
38.6858
17.1964
6.42682
0.463243
-2.1439
-11.8134
-17.0653
29.2052
30.49
36.0487
34.5316
31.8969
40.8228
27.795
24.2646
26.789
14.1898
7.84325
7.51892
-148.438
-128.581
-112.989
-183.545
-204.665
-252.665
31.343
-5.32921
-18.2151
-231.137
-226.986
-203.728
-346.755
-383.979
-400.901
-266.594
-305.119
-264.044
-190.925
-202.235
-183.385
-352.517
-389.152
-370.395
-404.63
-412.992
-369.421
-81.5931
-95.5458
-89.4864
-241.374
-262.363
-235.624
-362.829
-339.818
-317.104
-98.7938
-99.7152
-80.7063
-217.756
-197.646
-189.141
105.144
90.8438
57.979
205.949
188.051
172.192
166.852
168.477
202.943
-61.2787
-42.2583
-47.7122
105.052
168.824
97.1188
745.266
623.915
625.719
166.351
197.656
277.729
762.252
787.477
64.5667
88.9556
64.9279
150.8
177.76
99.3385
-63.881
-42.6395
-33.6207
-60.0297
-50.0484
-76.9088
7.77706
-20.9418
-39.5302
-110.678
-119.934
-177.645
150.386
106.751
88.7236
-154.819
-97.4668
-113.314
-94.1406
-98.7428
-130.877
-36.4358
-66.4317
-68.4962
-117.538
-109.636
-88.3084
-171.411
-132.928
-142.235
-100.065
-118.843
-163.508
-204.543
-193.54
-172.525
-261.282
-246.933
-252.063
-206.071
-214.302
-228.055
-353.486
-362.668
-352.52
-257.385
-226.814
-294.003
-182.081
-208.3
-224.787
-160.645
-186.782
-164.534
-110.477
-117.645
-97.616
-181.612
-141.39
-132.165
-146.708
-146.382
-186.316
-227.339
-231.659
-207.546
-287.429
-269.71
-265.87
-277.617
-278.21
-296.23
-259.981
-267.889
-337.23
-211.076
-241.059
-235.831
-235.776
-241.231
-210.518
-60.0752
-74.709
-64.9511
-108.646
-87.0804
-69.0132
-119.457
-104.152
-120.184
-138.188
-152.116
-140.767
-181.946
-164.233
-142.372
-208.699
-200.952
-209.4
-348.209
-354.715
-347.726
-186.296
-217.589
-258.082
-176.929
-196.444
-177.891
-226.101
-212.756
-190.063
-174.484
-179.898
-161.608
-248.568
-242.776
-240.968
-95.3623
-118.461
-132.824
-109.496
-115.979
-94.1237
-157.734
-136.573
-127.44
19.304
26.7354
37.6556
-49.6855
-36.5684
-39.7595
72.252
84.0133
68.8016
97.8134
88.7695
71.1417
142.915
120.755
126.735
61.3186
73.5794
94.7987
41.2162
63.5356
53.9364
70.9883
66.2576
40.7072
-203.01
-187.403
-197.222
-86.0587
-127.941
-168.298
-93.123
-105.985
-80.4166
-152.909
-183.867
-157.346
57.2401
61.1387
100.938
-132.138
-108.463
-93.1272
-329.044
-337.293
-345.389
-176.208
-193.439
-185.205
-130.618
-167.609
-154.683
-190.118
-176.871
-150.253
-296.576
-281.374
-298.937
-291.641
-275.054
-276.679
-256.616
-260.981
-275.425
-198.529
-221.203
-213.684
-283.47
-289.451
-286.66
-312.007
-310.956
-300.843
-284.441
-281.929
-275.279
-354.209
-377.788
-334.55
-429.952
-424.436
-417.955
-356.973
-328.703
-313.623
-415.178
-408.941
-416.469
-285.155
-315.963
-345.958
-233.025
-224.238
-216.742
-261.206
-256.221
-270.213
-191.706
-212.326
-220.763
-284.442
-291.984
-295.582
-234.074
-238.223
-234.511
-304.157
-313.822
-312.766
-299.156
-301.999
-291.87
-407.441
-395.036
-361.028
-416.489
-418.817
-425.397
-371.656
-413.429
-410.7
-140.963
-142.527
-157.47
-84.7436
-94.4362
-93.0125
-217.868
-228.154
-229.957
-162.507
-177.565
-169.646
-257.745
-260.189
-254.447
-341.094
-335.556
-331.866
-297.31
-271.194
-257.429
-321.051
-312.357
-322.315
-247.319
-258.288
-263.391
-411.9
-408.197
-411.39
-332.519
-342.738
-355.882
-303.08
-331.358
-306.343
2.07106
4.69463
-3.12627
46.308
39.751
36.5447
-65.0912
-65.1801
-75.0237
-11.2269
-19.6181
-21.4653
-77.0607
-75.7219
-62.7369
-155.384
-135.906
-138.219
-229.366
-225.419
-236.383
-156.229
-186.862
-195.608
-171.061
-177.913
-158.331
111.585
138.505
121.816
140.947
143.496
112.416
56.2245
60.3248
53.0228
69.5624
107.942
114.12
-52.1126
-21.9653
-21.0886
-30.3001
-23.0095
-71.8627
50.7364
13.9161
-3.18841
311.32
257.526
233.009
-16.025
-14.9575
1.17678
-50.6011
-32.3874
-26.8993
-24.3832
-37.8722
-38.0988
-39.7314
-37.8224
-23.2003
-69.5982
-53.2663
-48.1322
-0.131745
2.53764
11.2652
-45.8362
-38.518
-39.389
-11.8746
-27.3501
-14.6928
130.34
140.871
194.258
-123.303
-93.6152
-56.2463
3.03507
-11.0325
50.862
-107.298
-35.4609
-33.6825
-52.6184
-46.6927
-89.1027
-109.946
-102.013
-84.577
-133.941
-110.529
-118.756
-102.83
-109.769
-124.001
37.2581
39.5151
36.3477
58.479
54.983
53.0193
-60.9751
-60.1298
-53.0683
-138.705
-119.153
-116.92
-113.977
-113.446
-145.57
-76.4798
-102.668
-102.364
64.4002
66.0781
62.0734
93.2241
88.2534
85.3304
-19.9103
-35.7295
-56.8381
1.89173
-15.9859
-8.88217
-32.0993
-24.4588
-8.10002
274.804
319.353
432.011
190.36
280.011
251.973
197.98
277.601
180.809
180.509
215.942
187.119
269.909
318.604
219.276
442.448
358.449
292.284
-27.9503
-99.0819
-73.1055
135.204
132.679
183.229
-15.9841
17.5952
8.56303
46.8066
57.9879
13.0676
-203.791
-186.006
-186.516
-210.999
-213.09
-208.081
59.7355
65.6576
72.5345
19.7179
28.3937
24.6076
-26.0374
-33.1549
-46.9169
-4.99866
-19.1387
-18.478
-27.3319
-23.3803
-10.2051
-211.957
-191.341
-169.528
-208.914
-235.618
-218.008
-188.259
-170.765
-181.796
-72.6011
-94.4763
-110.574
-66.9716
-79.442
-50.6507
-282.387
-293.385
-282.621
-247.715
-259.32
-271.454
-302.173
-300.45
-291.565
-296.544
-305.016
-303.447
-265.388
-262.318
-253.176
-263.84
-270.756
-267.902
-447.345
-444.332
-458.612
-386.97
-404.902
-413.094
-388.318
-395.801
-378.864
-412.553
-433.203
-438.712
-420.301
-427.081
-407.276
-467.316
-453.072
-449.984
-373.055
-364.999
-376.278
-307.925
-325.255
-337.709
-297.709
-312.069
-294.911
-352.415
-370.163
-379.462
-349.392
-360.242
-342.63
-395.474
-385.662
-377.865
-267.93
-271.787
-266.704
-256.472
-259.697
-263.616
-314.54
-314.785
-303.554
-302.236
-312.482
-313.488
-448.642
-451.552
-465.453
-412.136
-433.342
-427.047
-444.03
-439.142
-416.979
-388.249
-404.587
-396.096
-420.048
-412.367
-395.104
-455.101
-441.996
-445.474
-427.107
-450.514
-452.56
-443.481
-447.473
-424.82
-426.818
-451.139
-448.152
-453.397
-453.002
-428.583
-123.69
-137.631
-131.449
-87.6658
-87.736
-82.6218
-119.622
-114.463
-116.109
-102.791
-104.547
-114.738
-179.184
-182.832
-198.255
-295.3
-289.953
-287.522
-304.579
-306.702
-300.913
-377.143
-381.982
-386.173
-358.248
-369.56
-360.457
-387.531
-378.659
-366.702
-323.706
-332.508
-322.736
-351.364
-342.151
-332.671
-370.622
-366.396
-370.866
8.01232
9.9814
5.78795
33.1103
29.4295
27.2771
-46.3052
-55.5918
-55.9675
-45.81
-46.8784
-41.7551
-77.6296
-72.4055
-71.7051
-16.5464
-17.4937
-8.81251
-35.6761
-26.472
-21.2352
-29.7855
-28.3071
-37.2282
-29.5965
-28.306
-33.4665
1.17732
-3.61395
-5.30812
-100.997
-88.1364
-89.1924
-96.3568
-96.4527
-103.402
-56.023
-63.2886
-62.14
-110.072
-116.923
-117.27
-126.135
-125.575
-114.151
137.244
151.506
140.775
172.796
155.561
143.703
99.5612
103.312
98.0643
103.831
116.563
142.203
78.6546
85.2582
79.8321
49.4206
38.0693
45.415
15.5998
27.8063
43.3266
71.1559
62.0364
71.4315
40.3162
51.515
59.1711
99.2535
108.292
116.374
83.6882
98.1691
89.8218
112.361
102.085
87.8445
20.185
16.6872
28.6622
-9.21655
4.0658
13.6068
-2.61667
0.985827
-11.424
227.158
241.77
298.744
161.097
179.826
180.284
162.848
173.72
157.343
132.001
149.227
144.064
149.003
151.54
131.682
280.758
206.147
203.325
432.444
465.766
592.323
319.648
384.146
375.598
316.57
410.787
296.766
340.546
384.658
353.796
423.943
492.076
383.26
611.436
536.133
469.914
-235.613
-241.612
-256.23
-215.328
-228.168
-221.851
-238.707
-233.328
-218.883
-359.482
-370.936
-380.755
-275.354
-273.013
-291.263
-247.784
-261.936
-263.809
-255.34
-258.685
-243.313
-252.075
-266.245
-265.255
-265.573
-265.935
-249.918
-296.378
-277.928
-277.134
-365.584
-360.913
-353.73
2.69341
15.2149
8.62091
31.2254
22.5681
9.00544
46.5186
34.67
43.242
111.857
122.181
136.184
103.751
114.161
103.82
122.558
116.142
106.164
-16.5835
21.336
24.7257
19.167
21.8653
-24.9509
117.506
70.8902
53.3838
-321.039
-329.4
-321.271
-223.594
-201.006
-216.325
-173.058
-186.349
-208.309
-139.353
-163.803
-153.2
-249.87
-265.659
-281.991
-228.686
-248.126
-232.859
-282.054
-263.789
-244.44
-270.641
-273.163
-289.128
-247.217
-260.473
-257.523
-264.377
-262.32
-247.123
-234.813
-247.614
-243.013
-254.862
-251.114
-236.54
-279.47
-264.606
-267.95
-294.392
-291.868
-284.413
-306.375
-299.423
-301.27
-294.998
-297.276
-302.635
-326.644
-315.369
-316.205
-314.023
-314.859
-326.51
-301.098
-310.24
-309.044
-294.826
-290.504
-292.794
-286.276
-288.415
-292.812
-274.241
-279.952
-277.574
-432.6
-428.489
-434.854
-406.346
-416.645
-421.87
-448.023
-461.141
-464.08
-455.752
-458.718
-447.083
-234.11
-246.154
-250.709
-235.031
-240.524
-227.793
-263.653
-250.647
-244.749
-283.897
-287.69
-280.021
-299.909
-293.064
-289.677
-300.278
-296.887
-306.234
-314.956
-314.38
-303.527
-331.982
-319.332
-319.723
-317.211
-318.399
-330.372
-318.813
-306.065
-303.262
-311.725
-309.015
-322.318
-295.268
-304.956
-307.232
-448.512
-461.507
-458.721
-466.696
-464.431
-452.546
-425.995
-425.507
-409.471
-431.466
-425.444
-429.298
-456.702
-470.411
-472.49
-466.353
-468.819
-456.574
-457.469
-471.362
-469.398
-474.553
-473.442
-460.737
-272.318
-266.269
-263.94
-270.387
-267.562
-273.839
-255.908
-261.527
-263.753
-326.809
-330.007
-324.843
-291.264
-302.605
-307.785
-286.996
-293.375
-283.421
-312.908
-303.065
-296.369
-247.694
-253.279
-243.019
-273.467
-263.651
-258.138
-274.79
-269.41
-280.214
19.4981
12.2133
9.39137
17.6363
15.2262
22.7159
-0.464331
7.53083
13.7882
46.3297
43.0365
49.7959
30.0068