/*--------------------------------*- C++ -*----------------------------------*\
| =========                 |                                                 |
| \\      /  F ield         | OpenFOAM: The Open Source CFD Toolbox           |
|  \\    /   O peration     | Version:  5.x                                   |
|   \\  /    A nd           | Web:      www.OpenFOAM.org                      |
|    \\/     M anipulation  |                                                 |
\*---------------------------------------------------------------------------*/
FoamFile
{
    version     2.0;
    format      ascii;
    class       volScalarField;
    location    "100";
    object      p_rgh;
}
// * * * * * * * * * * * * * * * * * * * * * * * * * * * * * * * * * * * * * //

dimensions      [0 2 -2 0 0 0 0];

internalField   nonuniform List<scalar> 
6584
(
12.8782
13.7399
14.7692
16.3054
18.2653
20.7859
23.8434
27.4753
31.334
35.1961
38.0195
38.6707
36.2755
30.9185
23.661
15.8754
8.66452
2.38963
-2.72045
-6.76984
-9.84666
-12.1908
-13.7376
-15.0014
12.5759
13.5198
14.4877
16.0096
17.9226
20.4381
23.5253
27.323
31.446
35.7818
39.0947
40.1097
37.6703
31.851
24.0183
15.6308
8.10488
1.69656
-3.39357
-7.3761
-10.3499
-12.6431
-14.0828
-15.451
11.9269
12.8897
13.7419
15.181
16.9726
19.4412
22.5974
26.85
31.5426
36.0125
41.8877
45.0785
43.6454
37.0945
27.4831
14.6547
6.3924
-0.319216
-5.31349
-9.05885
-11.7497
-13.8396
-15.0618
-16.4141
11.0755
11.9727
12.6569
13.9201
15.4858
17.7694
20.9347
25.6227
31.9602
38.1919
47.2919
54.0875
53.5535
43.8298
29.9085
16.8231
3.34361
-3.68139
-8.37198
-11.6293
-13.8446
-15.562
-16.4689
-17.6583
10.0877
10.8373
11.294
12.255
13.4375
15.2569
18.0889
22.7653
28.5558
39.4597
53.4885
67.7919
69.6805
52.9168
30.5782
12.981
1.37164
-9.03142
-12.8486
-15.0878
-16.5586
-17.6914
-18.1815
-19.0693
9.02
9.54241
9.71099
10.2202
10.8118
11.6462
13.5828
16.3997
23.8278
35.4353
55.1541
89.5104
105.948
71.986
26.4733
3.40589
-8.00427
-16.1698
-18.5522
-19.3069
-19.7651
-20.1038
-20.0845
-20.54
7.95385
8.18607
8.03003
7.97263
7.8268
7.3558
7.8201
9.26485
12.3894
20.9499
45.1308
106.301
198.136
80.703
13.4246
-16.123
-22.0908
-25.5785
-25.3283
-24.0553
-23.2325
-22.5999
-22.0092
-21.9278
6.97978
6.89352
6.42114
5.76182
4.80992
2.89671
1.17663
0.349403
-3.43153
-6.92071
-2.15733
28.5733
4.91248
-41.7373
-47.8628
-41.1286
-36.2639
-32.4739
-28.8416
-26.59
-24.9104
-23.7477
-23.0765
6.17992
5.79456
5.07091
3.8942
2.2367
-0.894642
-4.77209
-8.49527
-19.5877
-39.0464
-69.052
-148.42
-218.594
-122.338
-83.6987
-60.7585
-46.0692
-38.6675
-32.8976
-29.3448
-26.7225
-25.0787
-23.8397
5.6125
4.99764
4.14327
2.66149
0.613463
-3.07091
-8.18522
-13.9278
-28.6708
-55.9536
-102.635
-211.07
-332.352
-175.384
-106.599
-73.8549
-52.2762
-42.4186
-35.3988
-31.0063
-27.7471
-25.807
-24.1052
5.29759
4.55848
3.72076
2.21367
0.202293
-3.18875
-8.14717
-14.1249
-27.0837
-49.904
-88.6346
-165.476
-305.36
-174.259
-106.938
-75.7328
-53.1082
-42.839
-35.8401
-31.2674
-27.8103
-25.8141
-23.8203
5.21179
4.46211
3.77192
2.49288
0.893323
-1.54192
-5.15571
-9.70949
-17.0437
-27.7188
-44.3252
-65.4014
-195.754
-130.315
-87.6854
-66.8986
-48.7311
-40.0524
-34.2379
-30.1336
-26.9037
-25.0917
-23.003
5.29653
4.6306
4.16745
3.2686
2.28527
1.05308
-0.696989
-3.06333
-4.2389
-2.81329
1.8987
26.3716
-67.0757
-71.4107
-59.8122
-51.9683
-40.9521
-35.0617
-31.06
-27.8866
-25.2035
-23.7386
-21.7351
5.47667
4.95307
4.73478
4.24862
3.89466
3.73364
3.72354
5.22344
6.00818
14.4542
28.1612
70.7527
163.342
16.5045
-24.5902
-34.5452
-36.3998
-32.1258
-29.1942
-27.0221
-24.9562
-22.961
-21.9271
-20.1411
5.67985
5.31889
5.31257
5.17593
5.31083
5.84528
6.8631
9.22152
11.8168
20.5603
33.943
56.717
64.9325
29.5493
-3.71771
-17.7032
-22.5638
-23.9419
-23.5062
-22.803
-21.7701
-20.446
-19.848
-18.3494
5.84967
5.64259
5.78984
5.90199
6.34338
7.24481
8.67146
11.5059
14.1318
20.3473
28.992
38.6823
38.4809
18.8164
3.96807
-8.37592
-15.4738
-17.648
-18.6408
-18.8661
-18.6529
-17.9046
-17.6829
-16.4979
5.95074
5.87228
6.11108
6.37348
6.96071
7.98136
9.45089
12.0504
15.6146
17.5864
23.2658
27.5343
24.1536
14.4486
4.57175
-3.5138
-9.97771
-12.8543
-14.6493
-15.4274
-15.7934
-15.4699
-15.5462
-14.6618
5.96644
5.98488
6.26186
6.59098
7.20541
8.14261
9.47707
11.1672
14.4503
15.0083
18.8838
18.0785
16.2773
9.29488
1.21245
-1.14558
-6.48182
-9.37176
-11.5019
-12.5428
-13.2787
-13.2468
-13.5323
-12.9084
5.89474
5.97882
6.25556
6.5903
7.16629
7.91086
9.0786
9.94461
12.542
11.6415
15.5816
12.9767
10.513
8.18664
0.669396
-0.233678
-5.00539
-7.01287
-9.15529
-10.2007
-11.1343
-11.2775
-11.6931
-11.2827
5.74313
5.86615
6.12023
6.42402
6.93855
7.46691
8.48391
8.7864
10.8862
9.70782
12.2573
10.6028
8.85374
6.80049
1.18404
0.361168
-3.88572
-5.26322
-7.37447
-8.30246
-9.32963
-9.5619
-10.0484
-9.80355
5.52382
5.665
5.88601
6.13985
6.58803
6.91511
7.79486
7.7224
9.40127
8.14809
9.69823
8.19983
6.93903
5.56411
1.30645
0.689581
-2.98478
-3.94347
-5.98546
-6.75564
-7.81699
-8.0815
-8.59775
-8.47537
5.25019
5.39435
5.57918
5.77607
6.16008
6.31623
7.06987
6.75308
8.08177
6.82107
7.89958
6.4606
5.46084
4.5484
1.18664
0.80515
-2.34245
-2.97397
-4.89703
-5.49832
-6.55291
-6.81217
-7.33069
-7.29398
4.93525
5.07215
5.22205
5.3631
5.68852
5.71023
6.35162
5.88776
6.94582
5.72987
6.51197
5.23396
4.41286
3.75674
1.04048
0.832001
-1.87679
-2.25542
-4.03707
-4.47734
-5.49737
-5.72822
-6.23109
-6.2501
4.59048
4.71424
4.83259
4.92387
5.19727
5.12011
5.66364
5.12239
5.97013
4.83275
5.40036
4.29168
3.6016
3.12455
0.898404
0.817412
-1.52513
-1.7124
-3.34815
-3.64523
-4.6143
-4.80446
-5.28077
-5.33202
4.2253
4.33352
4.42442
4.47465
4.70227
4.55761
5.01557
4.44656
5.12712
4.09493
4.50476
3.55577
2.9485
2.60895
0.761305
0.778515
-1.25522
-1.29743
-2.78986
-2.96464
-3.87297
-4.01728
-4.46092
-4.52675
3.84737
3.94008
4.00765
4.02636
4.21348
4.02817
4.41027
3.84769
4.39085
3.46938
3.75977
2.95903
2.41014
2.19308
0.640448
0.729688
-1.04543
-0.978232
-2.33357
-2.40586
-3.24804
-3.3461
-3.75408
-3.822
3.46271
3.54159
3.58951
3.58645
3.73723
3.53291
3.84711
3.31439
3.74386
2.93265
3.13895
2.46739
1.98554
1.869
0.537808
0.67702
-0.881347
-0.731625
-1.95712
-1.94531
-2.71985
-2.77383
-3.14503
-3.20591
3.07601
3.1438
3.17502
3.15891
3.27677
3.0705
3.32328
2.83792
3.17372
2.47376
2.61813
2.06838
1.64422
1.58072
0.425357
0.61657
-0.750579
-0.537075
-1.64137
-1.56251
-2.26893
-2.28302
-2.61768
-2.66625
2.69073
2.75058
2.76747
2.74587
2.83398
2.63874
2.83624
2.4087
2.66482
2.07608
2.16895
1.72997
1.34901
1.33575
0.326831
0.558075
-0.646293
-0.384388
-1.37572
-1.24306
-1.88238
-1.8611
-2.1602
-2.19338
2.30975
2.36483
2.36945
2.34868
2.40931
2.23444
2.38294
2.01602
2.20227
1.72192
1.77345
1.43806
1.09159
1.12748
0.239286
0.500786
-0.562943
-0.264141
-1.14997
-0.974456
-1.54845
-1.4966
-1.76148
-1.77807
1.93547
1.98828
1.9823
1.96728
2.00229
1.85472
1.95791
1.65203
1.77762
1.40069
1.42059
1.18425
0.867942
0.946351
0.156956
0.441443
-0.497017
-0.169514
-0.955514
-0.7468
-1.25718
-1.1795
-1.41164
-1.41171
1.5697
1.62198
1.60719
1.60048
1.61375
1.49399
1.55417
1.30671
1.3786
1.09939
1.10093
0.962562
0.67986
0.786492
0.0755649
0.374964
-0.448068
-0.0969894
-0.785899
-0.55179
-0.999337
-0.900976
-1.1018
-1.08674
1.21345
1.26539
1.24414
1.2474
1.24326
1.15003
1.1736
0.97757
1.00249
0.811112
0.80773
0.765019
0.524599
0.638113
-0.00522869
0.29952
-0.409353
-0.0410957
-0.632247
-0.382161
-0.766497
-0.653674
-0.824114
-0.796543
0.870264
0.921569
0.896574
0.909887
0.890503
0.820314
0.805999
0.630378
0.6013
0.486877
0.527143
0.610603
0.476472
0.510984
-0.11499
0.173847
-0.406458
-0.00702214
-0.488506
-0.231264
-0.548432
-0.429769
-0.569844
-0.534687
0.528985
0.571252
0.548673
0.566321
0.545624
0.502216
0.480168
0.351502
0.301431
0.233011
0.277799
0.423625
0.354716
0.332648
-0.165261
0.0928223
-0.327321
0.0289859
-0.328267
-0.10246
-0.338908
-0.231874
-0.336075
-0.299719
0.246638
0.292462
0.276381
0.309757
0.283902
0.253725
0.154776
-0.23107
-0.539083
-0.619573
-0.155055
0.636149
1.39066
0.280302
-0.753686
-0.533152
-0.63102
0.0284359
-0.154404
0.0536263
-0.100916
-0.0204567
-0.0920336
-0.0700122
-132.734
-211.867
15.8916
-209.298
-354.969
-238.566
-175.89
-340.357
-362.578
-78.3298
-223.668
-328.455
16.7523
-79.5045
-205.696
69.6761
183.981
177.743
24.2982
-62.5278
50.8317
196.83
44.7169
102.386
-54.0145
-116.328
22.3307
-142.752
126.271
-194.891
-116.158
-40.065
-98.8672
-189.598
-130.739
-184.732
-267.113
-222.06
-433.619
-343.987
-325.591
-192.478
-139.818
-96.1309
-162.855
-191.339
-205.784
-283.552
-296.266
-489.079
-492.304
-315.108
-204.239
-201.821
-56.6577
-75.587
-153.444
-130.307
-155.991
-218.008
-341.467
-424.99
-211.444
-158.377
-196.904
-161.54
-245.399
-82.6001
-88.1951
-141.658
30.2816
-51.3265
62.2662
73.2184
166.626
72.5798
43.0208
28.8015
-213.468
-121.575
-72.7863
-134.514
-229.86
88.1289
-116.32
-336.363
-167.147
-120.405
-159.956
-326.362
-294.74
-271.803
-193.212
-280.882
-303.694
-238.12
-279.9
-487.148
-438.194
-318.445
-423.972
-483.447
-333.329
-419.836
-302.056
-225.997
-277.61
-200.296
-287.426
-231.261
-303.31
-291.34
-429.038
-485.614
-365.494
-484.516
-420.057
-486.846
-487.554
-369.146
-151.491
-84.5248
-225.769
-161.096
-251.414
-335.876
-271.321
-333.204
-250.945
-415.452
-338.829
-286.609
-6.48216
41.965
-75.2705
-14.305
-63.7287
-149.499
-239.696
-159.763
-151.21
97.1856
117.148
47.7271
93.3075
85.5604
38.4568
-48.8582
-102.189
78.4754
-19.3179
276.247
-8.45815
12.1227
-63.7005
-27.6036
-16.5894
-75.4261
8.66577
-46.1765
11.0312
-28.0301
-70.8866
174.844
-83.7964
107.215
-132.062
-85.9081
-84.3005
-146.933
-117.565
-121.164
-82.8913
33.3098
56.2997
-77.5672
-40.2745
-53.3058
-103.011
-133.178
-148.092
-66.0945
59.6619
89.8643
-54.3417
20.6281
-15.9125
319.622
201.646
118.196
157.039
221.006
324.564
-56.5255
-32.8981
-66.1405
251.197
-28.5107
6.79735
-399.251
-390.507
-500.836
-499.417
-378.872
-385.403
-196.204
-164.139
-202.871
67.8468
16.7014
-47.5487
5.97329
-14.0266
-211.184
-184.97
-253.205
-216.346
-256.313
-198.041
-205.303
-91.9282
-38.9773
-111.487
-200.554
-269.295
-259.926
-294.978
-295.19
-258.746
-260.475
-465.418
-464.399
-460.68
-393.163
-369.033
-416.074
-399.673
-463.142
-381.993
-318.973
-279.302
-360.405
-330.386
-388.348
-265.113
-260.296
-305.145
-303.174
-460.516
-462.985
-461.659
-405.651
-419.515
-380.379
-399.817
-458.478
-496.448
-427.32
-419.998
-422.995
-427.654
-497.132
-125.895
-123.311
-126.822
-164.388
-82.7777
-121.771
-113.608
-199.358
-168.699
-189.736
-291.781
-298.08
-379.856
-348.473
-373.149
-313.363
-339.827
-374.459
3.24955
30.4103
-47.9841
-41.3405
-77.5164
-3.35915
-36.4149
-39.2762
-35.1593
-1.19976
-100.612
-102.812
-54.5082
-158.943
-109.571
-113.07
-109.458
130.309
149.39
206.266
93.8762
123.493
207.469
114.764
72.9914
489.468
24.6314
54.3481
20.8367
50.9235
80.7939
46.6632
106.115
79.5084
88.9019
255.436
36.0472
-9.03522
-15.7845
51.3103
60.6301
254.679
158.13
149.827
64.6801
78.852
128.765
125.231
211.998
476.674
323.386
206.657
312.335
375.533
492.777
-251.656
-208.762
-227.348
-422.979
-368.599
-365.853
-295.04
-249.219
-243.408
-250.983
-252.554
-296.766
-496.365
-495.153
-357.642
-408.888
92.9428
76.3706
-2.06907
13.8474
56.766
116.154
95.0956
109.901
-8.45039
-69.1244
163.661
-309.266
-336.937
-364.047
-239.09
-193.881
-128.411
-264.351
-211.912
-260.9
-287.26
-244.104
-252.066
-229.961
-243.305
-284.102
-288.583
-309.788
-300.557
-328.201
-326.803
-300.014
-297.94
-291.934
-271.462
-480.17
-448.795
-440.092
-411.888
-402.881
-450.958
-441.62
-476.178
-237.896
-225.826
-257.558
-278.867
-295.644
-312.326
-305.929
-333.031
-329.522
-316.139
-326.465
-297.299
-443.278
-477.24
-475.86
-445.996
-452.153
-412.208
-413.925
-435.997
-491.821
-458.888
-451.6
-455.926
-459.151
-493.915
-268.573
-276.534
-257.021
-341.98
-330.467
-320.914
-295.929
-276.119
-304.12
-237.291
-266.316
-284.692
15.6298
29.3579
0.937099
52.5211
33.2075
22.5017
144.171
154.601
68.7658
83.7136
59.6828
130.248
141.515
115.289
98.7773
92.867
379.425
140.976
19.0645
-15.908
-11.6389
18.1128
-20.9023
-23.8097
46.1907
30.2127
244.064
-21.3013
7.54252
-105.796
-99.0268
42.7947
48.6966
42.9345
48.7149
41.1509
60.5757
51.4223
45.8994
-61.3997
-55.8403
-74.5905
-81.7997
72.1639
77.4106
64.1545
83.9189
101.074
-128.824
-107.333
-30.0157
-187.362
-129.428
-152.142
-419.143
-372.057
-497.88
-499.038
-362.473
-403.569
-187.091
-185.808
-203.709
-161.557
-179.731
-180.235
-235.278
-253.708
-209.476
-228.214
46.4585
65.1267
84.9644
26.3283
56.4904
40.3362
63.1126
29.8799
-233.439
-203.688
-224.652
-167.206
-195.574
-225.577
-249.869
-260.581
-230.539
-245.997
-159.314
-120.208
-157.413
-177.107
-191.033
-308.266
-329.046
-301.777
-308.973
-258.569
-205.5
-300.54
-272.827
-222.171
-255.823
-297.808
-319.825
-313.58
-289.255
-316.546
-322.303
-310.796
-312.36
-331.105
-329.874
-321.758
-328.345
-299.991
-324.998
-320.383
-282.546
-292.819
-264.178
-278.118
-302.484
-308.169
-295.179
-301.821
-270.292
-290.533
-283.93
-479.305
-450.399
-427.72
-414.697
-445.457
-473.841
-440.384
-429.446
-277.756
-290.709
-274.439
-300.303
-287.007
-316.16
-304.906
-265.535
-247.364
-282.098
-269.87
-333.92
-332.841
-304.852
-335.392
-338.608
-332.016
-336.525
-329.735
-317.918
-335.848
-332.459
-300.25
-328.642
-332.652
-447.691
-471.052
-433.83
-441.603
-471.35
-442.919
-419.211
-429.321
-462.903
-458.598
-494.252
-495.439
-461.972
-461.423
-141.593
-142.279
-139.488
-124.379
-160.207
-144.789
-148.984
-99.3729
-97.8398
-85.0149
-119.208
-103.25
-105.438
-220.698
-205.262
-241.39
-225.937
-183.114
-180.03
-165.137
-200.384
-185.15
-189.954
-300.152
-283.373
-274.92
-283.654
-299.076
-259.206
-276.547
-303.984
-315.253
-324.087
-305.053
15.478
21.1717
10.9561
38.1704
25.1997
19.3234
39.9502
-20.2226
5.6225
-15.3271
-138.319
-135.825
-155.343
-109.823
-129.635
-131.2
-130.116
-137.282
159.497
181.859
107.627
125.438
155.532
122.7
29.1765
-17.3602
24.7782
-3.19755
33.703
66.8036
638.077
463.598
373.809
521.236
557.201
661.915
93.7725
183.541
134.58
-179.343
-204.167
-245.478
-429.424
-431.536
-436.407
-494.024
-492.67
-194.023
-173.999
-192.18
-425.976
-420.755
-420.153
-251.035
-232.65
-228.238
-182.11
-139.75
-172.258
-254.465
-241.196
-220.381
-194.762
-241.781
-210.459
-244.322
-270.058
-258.202
-483.13
-442.434
-446.858
-442.557
-468.696
-465.881
-480.4
-394.655
-386.224
-408.245
-249.864
-218.798
-201.997
-241.933
-256.585
-244.363
-433.656
-431.607
-428.402
-483.483
-481.942
-466.915
-469.491
-488.636
-473.457
-471.362
-472.325
-474.914
-490.816
-217.198
-223.706
-237.269
-400.484
-390.614
-401.605
-205.503
-196.3
-226.616
152.068
153.63
115.066
92.1377
74.4581
151.15
151.905
68.7498
100.365
65.6559
-6.07795
14.8737
-116.395
-81.6393
-86.9338
-88.3268
-72.235
-71.0084
-76.3167
-39.0944
-44.3097
-45.5023
-101.348
-95.3333
-96.2598
98.5111
82.3049
76.027
213.492
327.057
284.208
-79.6984
-96.9504
-78.6957
-47.6044
-201.488
-182.241
-4.68895
71.9528
93.776
-409.573
-413.101
-406.331
-383.337
-396.779
-403.178
-504.111
-499.589
-384.959
-378.957
-372.767
-392.21
-396.41
-390.852
-200.504
-205.262
-163.777
-169.638
-169.262
-210.062
-214.914
-222.033
-226.23
-208.687
-219.311
-245.424
-246.04
-251.669
-192.08
-201.806
-224.705
-272.658
-277.807
-255.917
-258.397
-256.464
-65.0843
-109.405
-144.441
-133.905
-125.937
-139.87
-185.285
-234.58
-223.257
-281.667
-273.479
-246.953
-281.622
-282.369
-468.888
-463.483
-353.999
-341.165
-362.582
-404.585
-376.947
-366.162
-249.418
-260.886
-273.244
-455.71
-464.586
-481.041
-480.546
-496.141
-498.374
-481.878
-481.37
-130.744
-132.056
-130.762
-125.41
-164.437
-159.639
-160.26
-204.071
-218.769
-208.877
-214.324
-209.577
-242.409
-238.905
-173.238
-174.115
-169.215
-205.215
-201.02
-370.033
-380.148
-395.359
-359.88
-351.381
-360.622
-56.5214
-55.4201
-45.7766
-75.7818
-65.4647
-61.7513
-82.0804
-85.2134
-103.101
-59.87
-73.5113
-75.2943
-153.708
-151.18
-157.585
-116.412
-107.709
-153.604
185.623
187.379
199.594
121.253
107.713
121.158
104.36
137.349
125.631
116.983
194.36
160.087
91.3083
110.238
92.8102
174.682
357.32
83.5356
54.1559
57.2303
191.885
192.551
220.602
69.4929
69.3064
64.6454
79.4798
74.2806
74.0646
215.639
173.39
163.816
361.324
504.474
464.554
-427.102
-428.423
-426.073
-371.4
-373.137
-366.978
-385.85
-375.058
-496.705
-492.79
-362.009
-365.679
-348.752
-355.447
-414.401
-414.071
-408.43
85.8746
90.6076
97.972
79.8439
84.6782
79.6686
-345.529
-344.163
-335.264
-360.37
-352.497
-355.099
-480.388
-446.053
-448.245
-449.293
-477.917
-463.452
-461.118
-439.644
-434.776
-439.401
-482.825
-460.959
-464.234
-479.721
-476.821
-474.975
-489.881
-492.962
-476.985
-478.268
-337.444
-338.787
-343.102
-329.065
-333.73
-333.798
156.238
159.821
142.011
146.394
134.55
141.668
137.003
121.215
113.183
109.081
114.569
121.035
103.021
107.465
103.938
80.0338
56.6411
45.0249
113.915
325.741
282.367
351.542
167.181
200.322
250.576
-2.24064
-4.26944
-13.2907
14.1563
5.06425
7.23265
-36.2606
-37.1757
-44.7606
-21.9662
-30.0637
-29.1414
58.8812
78.7064
19.8893
-75.8638
-106.864
-35.9834
-40.7739
-111.748
-93.8669
-92.2756
-98.4031
44.3909
46.3227
37.7741
40.6043
43.6616
-60.4177
-65.7249
-66.8645
-42.8232
-37.6575
-48.3083
-50.4999
-49.1349
-55.0435
-73.2959
-66.6793
-67.6411
-64.7091
-71.8281
-51.5028
-58.1111
-89.2211
-88.3026
-80.9464
89.2912
90.5761
84.8913
103.244
96.6881
95.0121
-136.504
-107.733
-103.358
-172.563
-180.65
-160.103
-413.743
-413.358
-419.221
-424.715
-394.518
-392.013
-405.392
-398.623
-501.512
-500.923
-377.502
-382.594
-369.19
-373.069
-367.353
-373.769
-369.147
-403.959
-399.919
-398.137
-390.349
-187.982
-194.926
-174.609
-175.508
-181.609
-242.197
-242.385
-235.052
-253.635
-249.231
-248.416
-215.447
-216.578
-210.925
-228.431
-222.043
-221.489
-220.585
36.2785
32.4147
22.8927
51.8239
40.5768
-224.905
-233.28
-240.351
-239.138
-229.507
-213.312
-222.746
-266.94
-268.891
-274.881
-271.133
-256.765
-256.062
-264.055
-163.413
-148.105
-159.817
-124.288
-197.402
-186.698
-178.857
-318.406
-302.508
-291.531
-325.152
-315.125
-327.866
-331.408
-319.288
-240.387
-242.261
-260.661
-224.462
-239.889
-224.002
-288.704
-273.492
-280.446
-284.576
-320.204
-322.934
-312.342
-314.946
-315.013
-313.829
-312.803
-330.103
-329.039
-322.97
-325.369
-287.843
-293.405
-287.592
-295.226
-294.579
-290.824
-267.852
-280.385
-278.092
-286.69
-283.399
-272.311
-284.287
-286.607
-303.822
-305.514
-304.475
-311.189
-308.046
-305.819
-297.725
-300.935
-297.743
-305.451
-305.656
-300.581
-473.394
-457.695
-296.396
-296.671
-298.994
-286.263
-292.292
-292.06
-312.125
-301.319
-304.491
-307.924
-260.023
-260.687
-266.952
-248.604
-254.055
-253.715
-277.726
-277.005
-281.008
-270.891
-273.678
-273.697
-336.046
-337.686
-334.794
-337.568
-324.721
-320.734
-333.309
-332.276
-451.081
-467.127
-495.93
-480.047
-478.575
-479.8
-481.106
-497.381
-135.685
-141.841
-136.366
-137.461
-155.279
-154.293
-148.061
-226.083
-219.721
-215.405
-220.6
-226.234
-236.335
-240.934
-244.181
-231.601
-236.202
-230.966
-235.911
-232.253
-184.921
-179.325
-178.024
-196.545
-190.161
-294.872
-291.189
-297.041
-279.335
-285.381
-289.573
-290.535
-295.122
-264.369
-263.191
-258.064
-270.284
-316.897
-316.504
-323.227
-302.962
-309.552
-310.682
17.5214
16.2864
20.0753
8.40832
12.5538
14.4297
34.5628
31.3811
34.7034
23.9256
27.8268
29.5589
35.1657
-22.2932
-17.3645
-32.5152
-27.2179
0.282828
-1.4966
3.46891
-12.1628
-6.18395
-5.44018
-136.944
-144.14
-145.774
-123.21
-144.9
165.208
172.514
113.978
119.865
110.758
131.788
125.542
119.699
130.214
137.462
143.027
129.259
56.1261
75.3707
61.0126
83.2526
95.5311
71.1697
94.9023
77.7497
63.2604
67.7866
43.1714
41.7839
29.5062
41.6023
45.0344
50.6191
89.5711
79.7577
110.228
178.738
106.473
179.643
106.452
83.969
81.8315
32.0753
39.914
20.6083
4.22727
13.1813
8.63969
9.26377
36.4333
13.5399
41.0781
88.3759
102.463
167.754
149.498
282.402
210.486
168.521
82.4798
48.0632
58.2926
-23.7656
-25.9594
-8.14834
-23.7611
-45.5089
-3.49029
-19.501
-23.0383
-0.718966
3.82891
6.5277
36.4959
-81.4585
-76.3537
-24.0518
-103.109
-73.9112
-48.6634
-50.2737
-83.0928
-57.6993
-81.8957
-100.957
-85.5506
-162.399
-182.223
-167.224
-276.772
-214.678
-167.517
-167.336
-117.565
-98.0629
-55.658
-82.0699
-86.3199
-103.447
-124.492
-124.486
-211.262
-235.258
-234.962
-338.15
-268.748
-257.572
-179.901
-133.728
-129.845
-40.0067
-50.2206
-76.0161
-79.3054
-91.4196
-103.531
-154.412
-167.247
-180.192
-269.725
-226.501
-248.672
-144.046
-118.067
-129.378
-14.8093
-9.96016
-40.0116
-52.511
-53.5015
-68.2356
-146.961
-132.751
-170.644
-86.0967
-82.9765
-101.835
7.10791
19.2725
-1.14096
-24.2497
-44.2437
-67.1919
-33.8471
-45.947
-63.6969
18.5508
26.5161
22.5866
34.8539
55.1499
58.7771
70.7635
88.6805
104.432
124.75
113.054
125.567
30.4905
1.34418
-17.9441
-10.8909
-19.8242
-31.2175
21.0416
27.7448
27.9112
32.3616
35.168
51.1931
42.2248
45.3668
69.2536
43.0765
30.8729
40.2761
19.2404
9.61429
3.88567
1.95912
-6.7951
-12.0453
25.9922
28.1903
33.7484
33.1455
31.4247
40.5788
28.2368
25.6204
28.3747
16.4602
11.0292
10.7045
-150.002
-130.145
-114.779
-181.755
-203.158
-251.157
32.9015
-3.76933
-16.428
-232.701
-228.551
-205.518
-344.963
-382.471
-399.392
-265.087
-303.611
-262.253
-192.487
-203.798
-185.173
-350.728
-387.645
-368.889
-403.121
-411.483
-367.63
-83.1507
-97.1039
-91.2708
-239.591
-260.861
-234.066
-361.323
-338.313
-315.316
-97.0206
-98.1667
-79.1594
-216.2
-196.091
-187.361
104.082
89.7464
56.2032
205.885
187.847
171.989
167.005
168.65
202.937
-59.7336
-40.7152
-45.9444
104.005
167.74
95.3422
745.22
623.793
625.58
165.534
196.817
277.603
762.361
787.511
66.3486
90.5092
66.484
151.862
178.833
101.111
-66.9196
-45.678
-37.1137
-62.0464
-52.6327
-79.4933
5.19429
-23.5256
-41.5465
-109.741
-119.14
-176.849
151.204
107.57
89.657
-152.122
-94.7702
-111.298
-90.6496
-95.7057
-127.84
-33.4003
-63.3953
-65.0057
-120.576
-112.674
-91.8009
-173.429
-135.512
-144.819
-102.649
-121.427
-165.525
-206.107
-195.104
-174.315
-262.337
-248.101
-253.231
-207.238
-215.47
-229.109
-352.574
-361.76
-351.554
-254.689
-224.117
-291.986
-178.591
-205.263
-221.751
-157.608
-183.745
-161.043
-113.512
-120.681
-101.106
-183.627
-143.973
-134.746
-149.292
-148.965
-188.333
-228.902
-233.222
-209.335
-288.481
-270.877
-267.037
-278.784
-279.378
-297.284
-257.288
-265.194
-335.213
-207.589
-238.025
-232.798
-232.74
-238.196
-207.03
-63.1064
-77.7412
-68.4377
-110.658
-89.6588
-71.5905
-122.037
-106.731
-122.196
-139.747
-153.676
-142.554
-182.998
-165.624
-143.762
-209.865
-202.118
-210.453
-347.249
-353.817
-346.826
-183.611
-214.901
-256.071
-173.449
-193.417
-174.866
-223.07
-209.727
-186.581
-173.549
-179.104
-160.815
-247.658
-241.867
-240.002
-92.8012
-115.897
-130.823
-106.027
-112.962
-91.1103
-154.711
-133.554
-123.968
20.2283
27.5483
38.4677
-48.868
-35.7517
-38.8309
71.0891
82.9625
67.181
97.6762
87.9469
70.3218
142.486
120.328
126.65
62.1026
74.3612
94.8906
42.8121
64.5498
55.0654
72.0521
67.2809
42.4318
-204.063
-188.57
-198.389
-87.4516
-129.334
-169.351
-94.913
-107.548
-81.9796
-153.848
-184.663
-158.143
56.3046
60.3171
100.118
-132.964
-109.288
-94.0658
-328.077
-336.383
-344.477
-175.299
-192.529
-184.238
-129.055
-166.046
-152.893
-189.066
-175.705
-149.088
-295.409
-280.207
-297.884
-292.695
-276.222
-277.846
-257.783
-262.148
-276.479
-200.32
-222.768
-215.248
-284.439
-290.363
-287.574
-312.916
-311.864
-301.81
-285.356
-282.843
-276.249
-352.7
-376.28
-332.759
-428.922
-423.35
-416.87
-355.95
-327.536
-312.455
-414.094
-407.858
-415.443
-283.364
-314.455
-344.449
-234.078
-225.404
-217.908
-262.373
-257.387
-271.267
-193.495
-213.888
-222.326
-285.408
-292.891
-296.487
-234.984
-239.132
-235.478
-305.125
-314.732
-313.675
-300.061
-302.903
-292.835
-405.933
-393.529
-359.238
-415.405
-417.733
-424.368
-369.865
-411.921
-409.191
-141.901
-143.322
-158.265
-85.567
-95.2597
-93.9489
-218.836
-229.064
-230.867
-163.304
-178.361
-170.584
-256.779
-259.28
-253.538
-340.189
-334.647
-330.9
-295.806
-269.691
-255.645
-320.027
-311.192
-321.149
-246.156
-257.125
-262.34
-410.875
-407.115
-410.307
-331.354
-341.573
-354.86
-301.293
-329.853
-304.839
1.13764
3.87389
-3.94732
45.4892
38.9318
35.6129
-66.0267
-66.0023
-75.8465
-12.0481
-20.4395
-22.3996
-76.13
-74.9034
-61.9189
-154.591
-135.113
-137.285
-228.316
-224.257
-235.22
-154.846
-185.476
-194.56
-169.282
-176.359
-156.779
110.658
137.916
121.225
140.402
142.914
111.494
55.2938
59.5066
52.2043
70.479
108.52
114.676
-53.6751
-23.5272
-22.8775
-31.3514
-24.4011
-73.2553
49.4034
12.582
-4.23911
311.759
257.966
233.509
-18.0321
-17.5313
-1.39592
-53.1772
-34.9623
-28.907
-25.9382
-39.4279
-39.8807
-40.7791
-39.152
-24.5293
-70.9291
-54.5966
-49.1801
0.372805
2.98301
11.7114
-45.3876
-38.0672
-38.8814
-9.33179
-24.8014
-12.7071
129.835
140.424
193.812
-123.752
-94.0606
-56.751
4.08422
-9.64263
52.2496
-105.906
-34.0705
-32.6325
-50.8305
-45.1318
-87.5409
-110.996
-103.401
-85.9085
-135.331
-111.918
-119.806
-104.615
-111.327
-125.56
36.748
39.0614
35.8938
58.0304
54.5352
52.5124
-60.4671
-59.6777
-52.6192
-137.154
-117.603
-115.145
-112.932
-112.065
-144.186
-75.1573
-101.288
-101.32
63.8916
65.6265
61.6232
92.7738
87.8028
84.8226
-18.8716
-34.4106
-55.5173
3.2066
-14.669
-7.8444
-30.3337
-22.9178
-6.56115
274.373
318.911
431.942
189.441
279.447
251.425
197.392
277.03
179.885
181.437
216.755
187.935
270.461
319.164
220.192
442.511
358.89
292.72
-27.1574
-98.2881
-72.1686
135.763
133.384
183.932
-15.369
18.2108
9.11816
47.7411
58.8083
13.8886
-202.997
-185.213
-185.581
-210.035
-212.182
-207.173
60.2407
66.106
72.9826
20.1652
28.8412
25.1128
-25.473
-32.45
-46.2115
-4.29524
-18.4346
-17.9143
-26.4041
-22.5643
-9.38991
-212.754
-192.137
-170.468
-209.853
-236.411
-218.805
-188.823
-171.388
-182.419
-73.224
-95.0995
-111.138
-67.9099
-80.2667
-51.4748
-281.479
-292.478
-281.656
-246.749
-258.412
-270.546
-303.078
-301.355
-292.53
-297.51
-305.922
-304.352
-266.298
-263.228
-254.144
-264.809
-271.667
-268.813
-446.271
-443.259
-457.601
-385.575
-403.621
-411.813
-387.036
-394.519
-377.469
-411.158
-431.921
-437.429
-419.02
-425.799
-405.88
-466.298
-451.994
-448.909
-371.973
-363.917
-375.253
-306.53
-323.974
-336.428
-296.427
-310.788
-293.516
-351.02
-368.882
-378.18
-348.112
-358.961
-341.235
-394.456
-384.584
-376.785
-268.843
-272.7
-267.673
-257.44
-260.609
-264.529
-315.449
-315.693
-304.522
-303.203
-313.39
-314.396
-447.567
-450.476
-464.436
-410.741
-432.061
-425.767
-442.747
-437.861
-415.584
-386.856
-403.306
-394.815
-418.768
-411.087
-393.71
-454.092
-440.924
-444.402
-425.711
-449.231
-451.276
-442.197
-446.189
-423.424
-425.422
-449.856
-446.869
-452.113
-451.718
-427.187
-124.514
-138.426
-132.386
-88.2371
-88.3624
-83.2475
-120.246
-115.084
-116.67
-103.728
-105.37
-115.561
-180.121
-183.626
-199.047
-294.39
-289.042
-286.555
-303.614
-305.795
-300.004
-376.063
-380.904
-385.154
-356.856
-368.28
-359.178
-386.25
-377.38
-365.309
-322.315
-331.229
-321.457
-350.085
-340.872
-331.28
-369.597
-365.314
-369.785
7.50317
9.53001
5.33404
32.658
28.9801
26.7692
-47.1273
-56.4138
-56.9027
-46.3758
-47.5016
-42.379
-78.2537
-73.0277
-72.2688
-17.1106
-18.2019
-9.52101
-36.385
-27.1802
-21.7989
-30.72
-29.1287
-38.0501
-30.1035
-28.7547
-33.9196
0.722204
-4.0675
-5.81775
-100.177
-87.3173
-88.2611
-95.7943
-95.8325
-102.782
-55.4017
-62.6672
-61.5753
-109.454
-116.306
-116.713
-125.202
-124.755
-113.332
136.767
151.174
140.439
172.464
155.229
143.226
99.0534
102.861
97.6137
104.307
116.897
142.533
79.1024
85.7059
80.3366
47.305
35.4997
42.8493
13.0282
25.2356
41.3236
70.0572
60.712
70.1077
38.9905
50.1899
58.0718
99.5733
108.611
116.463
84.4854
98.7237
90.3726
112.909
102.655
88.6619
19.1399
15.3601
27.3358
-10.5449
2.73804
12.5614
-4.3967
-0.567938
-12.9784
227.009
241.638
298.671
160.651
179.504
179.966
162.532
173.402
156.908
132.444
149.543
144.36
149.325
151.874
132.134
280.766
206.257
203.455
432.242
465.525
592.284
319.189
383.811
375.271
316.245
410.474
296.3
341.041
385.093
354.233
424.268
492.376
383.714
611.47
536.371
470.112
-236.78
-242.78
-257.284
-216.723
-229.449
-223.131
-239.989
-234.609
-220.277
-358.518
-370.032
-379.851
-276.521
-274.18
-292.316
-249.177
-263.217
-265.089
-256.621
-259.965
-244.706
-253.469
-267.526
-266.536
-266.854
-267.216
-251.312
-297.432
-279.095
-278.301
-364.679
-360.012
-352.769
3.50781
16.0285
9.54613
31.8152
23.27
9.70815
47.2192
35.3712
43.8314
111.031
121.582
135.641
103.155
113.564
102.995
122.418
115.773
105.796
-17.4068
20.5134
23.7894
18.6038
21.1571
-25.6598
116.8
70.1828
52.8204
-320.135
-328.494
-320.306
-222.427
-199.84
-215.272
-171.665
-185.07
-207.029
-138.074
-162.523
-151.807
-248.476
-264.378
-280.71
-227.406
-246.846
-231.465
-281.002
-262.623
-243.273
-271.808
-274.33
-290.181
-248.611
-261.753
-258.803
-265.658
-263.601
-248.518
-236.208
-248.895
-244.294
-256.143
-252.395
-237.934
-280.523
-265.773
-269.117
-295.299
-292.778
-285.381
-307.168
-300.275
-302.117
-295.857
-298.132
-303.436
-327.433
-316.218
-317.055
-314.871
-315.707
-327.298
-302.065
-311.148
-309.952
-295.631
-291.364
-293.654
-287.134
-289.274
-293.616
-275.211
-280.866
-278.488
-431.521
-427.407
-433.827
-405.149
-415.505
-420.732
-446.825
-460
-462.937
-454.613
-457.578
-445.885
-235.503
-247.434
-251.989
-236.311
-241.804
-229.186
-264.707
-251.814
-245.916
-284.809
-288.599
-280.988
-300.702
-293.915
-290.532
-301.121
-297.733
-307.019
-315.865
-315.289
-304.495
-332.773
-320.182
-320.572
-318.06
-319.249
-331.162
-319.593
-306.907
-304.104
-312.569
-309.858
-323.1
-296.233
-305.862
-308.138
-447.315
-460.367
-457.582
-465.554
-463.29
-451.348
-424.858
-424.368
-408.275
-430.44
-424.362
-428.22
-455.503
-469.267
-471.345
-465.21
-467.676
-455.375
-456.27
-470.219
-468.255
-473.408
-472.298
-459.538
-271.41
-265.361
-262.974
-269.596
-266.713
-272.989
-255.055
-260.676
-262.959
-325.842
-329.096
-323.933
-290.099
-301.44
-306.734
-285.606
-292.097
-282.144
-311.63
-301.787
-294.978
-246.306
-252.003
-241.744
-272.191
-262.375