/*--------------------------------*- C++ -*----------------------------------*\
| =========                 |                                                 |
| \\      /  F ield         | OpenFOAM: The Open Source CFD Toolbox           |
|  \\    /   O peration     | Version:  5.x                                   |
|   \\  /    A nd           | Web:      www.OpenFOAM.org                      |
|    \\/     M anipulation  |                                                 |
\*---------------------------------------------------------------------------*/
FoamFile
{
    version     2.0;
    format      ascii;
    class       surfaceScalarField;
    location    "100";
    object      phi;
}
// * * * * * * * * * * * * * * * * * * * * * * * * * * * * * * * * * * * * * //

dimensions      [0 3 -1 0 0 0 0];

internalField   nonuniform List<scalar> 
13181
(
0.000385045
0.412053
0.000367707
0.412532
0.000312872
0.412547
0.000252943
0.412552
0.000158082
0.41261
-0.000186747
0.412837
-0.000407136
0.41272
-0.00045314
0.412547
-0.000414385
0.41246
-0.000213599
0.412298
0.000177015
0.412111
0.000688862
0.411987
0.00117963
0.412008
0.00149925
0.412182
0.00158776
0.412411
0.00147962
0.412607
0.00124257
0.412739
0.000936497
0.412805
0.00043269
0.412996
-5.61122e-06
0.412953
-0.000572875
0.41306
-0.000809488
0.412729
-0.000861921
0.412567
0.411551
0.00054466
0.411371
0.0015663
0.411511
0.00157399
0.41254
0.00154115
0.412585
0.00125848
0.412893
0.000379211
0.413717
-0.00077152
0.41387
-0.00115974
0.412936
-0.00114846
0.412449
-0.000759329
0.205949
0.20596
2.94343e-05
0.205659
0.205663
0.00110606
0.205447
0.205464
0.0021419
0.205466
0.205507
0.00280946
0.205732
0.205783
0.00298169
0.206094
0.206145
0.00241311
0.413176
0.00147888
0.413673
0.000526634
0.413758
-0.000491964
0.414015
-0.000852804
0.413314
-0.00088644
0.413093
-0.000945689
0.412788
2.93938e-05
0.411592
0.41138
-0.000191515
0.411338
-5.93389e-05
0.411379
0.000827177
0.411653
0.000730128
0.412682
0.000765462
0.412857
0.00080581
0.413676
-0.00069836
0.415374
-0.00171398
0.413951
-0.000925586
0.412807
-0.00114644
0.205817
-0.000793248
0.205435
-0.000398945
0.000622422
9.41646e-05
0.205088
0.000264258
-0.000665462
0.205076
0.00105487
-0.00140052
0.205461
0.00167114
-0.00182987
0.20606
0.00186355
0.0019275
0.207352
-0.00144582
-0.00195646
0.207299
0.000289452
0.415311
-0.000242775
0.41429
-0.000167678
0.41394
-0.000235121
0.413382
-0.000316965
0.413175
0.000444787
0.412027
0.000458226
0.411579
0.411514
-0.000463149
0.411492
-0.000602105
0.411518
-0.000629696
0.411681
-2.0997e-05
0.412074
-0.000237575
0.413074
-0.000242581
0.413681
-0.000465617
0.415598
-0.00142529
0.414911
-0.00164729
0.207796
-0.00178792
0.207021
0.205629
-0.00150756
-0.205768
0.20485
-0.00100431
-0.205165
0.00131924
0.000513484
0.203948
0.000139677
-0.204601
-0.000899298
0.20378
0.00165115
-0.204532
-0.00223644
0.205159
0.00223821
-0.20516
-0.00153317
0.207326
0.00064027
-0.206434
-6.52974e-05
0.207446
-2.89474e-05
0.001623
0.207443
-0.000656965
-0.00013005
0.207032
0.00136501
0.414548
0.00100153
0.414303
0.000505968
0.413877
0.000997667
0.412684
0.000930352
0.412094
0.000653926
0.411855
0.411729
-0.000553004
0.411662
-0.000769167
0.411734
-0.00102085
0.411932
-0.00111551
0.412168
-0.000832205
0.41279
-0.00099959
0.413849
0.000483208
0.414115
0.000864377
0.206649
0.000324822
0.207556
0.20905
-0.000389397
0.206049
-0.00164687
-0.205703
0.00130078
0.204862
-0.00211157
-0.204602
0.00185181
0.00145972
-0.000319334
-0.203085
0.100959
0.100985
-0.00113881
0.00262357
-0.202751
0.100633
0.100633
-0.00317794
0.00166871
-0.20588
0.103419
0.10397
-0.0022523
0.207165
0.0024073
-0.20732
-0.00210957
0.207681
0.00217708
-0.207749
-0.00213114
0.207464
0.00211041
0.00263871
0.415769
-0.0020744
-0.00178508
0.00173722
0.415205
0.0017937
0.413821
0.00151077
0.412966
0.00109399
0.412511
0.000779672
0.41217
0.411979
-0.000608421
0.411832
-0.000836821
0.411962
-0.0011301
0.412226
-0.00153604
0.412574
-0.00177201
0.413026
-0.00190212
0.413979
-0.00119614
0.41498
-0.00157172
0.207063
-0.00161064
0.207379
3.49899e-05
-0.208803
0.00138964
0.20644
0.000814914
-0.206517
-0.000738011
-0.102893
7.00151e-05
0.103154
-0.000331087
-0.100439
0.000870825
0.100564
-0.000996439
-0.0995811
-0.000612529
0.0989878
0.00120586
-0.102874
-0.00104465
0.101547
0.00237129
-0.00181543
0.0047365
-0.207358
-0.00199923
0.103028
0.103409
-0.00465551
0.20826
0.0040848
-0.207689
-0.00341419
-0.2079
0.208479
0.00283529
0.00342676
0.417412
-0.00265505
-0.00241513
0.00278056
0.415851
0.00221648
0.414385
0.00161421
0.413569
0.00118258
0.412942
0.000842143
0.41251
0.412236
-0.000644737
0.412008
-0.000883258
0.412201
-0.00116193
0.412504
-0.00153667
0.412949
-0.00207097
0.413561
-0.00256646
0.414474
-0.00167249
0.41575
-0.0016633
-0.207468
0.207904
-0.00210837
-0.207461
0.208137
-0.00333606
0.00265983
-0.206962
0.208086
0.00421768
-0.00252914
-0.00281334
-0.102697
0.00262551
0.102773
-0.00270177
-0.0502161
0.00103868
0.0500629
-0.000885492
-0.00017887
-0.0474924
0.0472381
0.000433155
-0.00195481
-0.102138
0.00395334
-0.0013398
0.0501531
0.0513263
-0.00474759
-0.103587
0.104084
0.00425079
-0.00660766
-0.209269
0.21053
0.00534703
-0.00430639
-0.209159
0.210013
0.0034531
0.0040368
0.418902
-0.00277202
-0.00275501
0.00306991
0.416818
0.00216907
0.415286
0.00154817
0.41419
0.00110955
0.413381
0.00078385
0.412836
0.412423
-0.000614872
0.412149
-0.000838614
0.412424
-0.00108944
0.412755
-0.00146395
0.413323
-0.00195233
0.414049
-0.00264707
0.415169
-0.00159739
0.416515
-0.00181542
-0.208359
0.208831
-0.00206983
-0.208996
0.20982
-0.00351827
0.00269458
-0.209614
0.21126
0.00466562
-0.0030988
-0.00321202
-0.104429
0.00435907
0.105338
-0.00526828
-0.0511294
0.00468954
0.0517564
-0.00531654
-0.00643981
-0.0515858
0.0521677
0.00585795
-0.00686776
-0.106021
0.106977
0.00591236
-0.00797538
-0.212226
0.213934
0.0062676
-0.00498118
-0.211054
0.211999
0.00403528
0.00401854
0.421154
-0.00301884
-0.00325111
0.00254549
0.418291
0.00179701
0.416034
0.00127589
0.414711
0.000936474
0.41372
0.000713612
0.413059
0.41258
-0.000568904
0.412269
-0.000712062
0.412568
-0.00090429
0.412947
-0.00113421
0.413553
-0.0014396
0.414354
-0.00184908
0.415578
-0.00137422
0.417166
-0.00112513
-0.208941
0.209311
-0.00174438
-0.210784
0.211398
-0.00301024
0.00239583
-0.212829
0.213928
0.00379659
-0.00258877
-0.00230712
-0.107882
0.00363554
0.108529
-0.00428243
-0.0556073
0.00379557
0.0559763
-0.00416463
-0.00582357
-0.0565654
0.0570485
0.00534047
-0.00571404
-0.109744
0.110587
0.00487075
-0.00610647
-0.215588
0.21691
0.00478497
-0.00376586
-0.212874
0.213574
0.00306624
0.00325786
0.422306
-0.00197195
-0.00243813
0.00193666
0.419612
0.0011704
0.4168
0.000862129
0.415019
0.000653462
0.413929
0.000502504
0.41321
0.412618
-0.000473947
0.412341
-0.00059424
0.412688
-0.000690688
0.413044
-0.000818123
0.413681
-0.000896633
0.414433
-0.000970683
0.415652
-0.000642537
0.417201
-0.000363693
-0.209641
0.209971
-0.000972148
-0.211763
0.21187
-0.00119613
0.00108916
-0.214522
0.21456
0.00126446
-0.000828332
-0.000474346
-0.109666
0.00106327
0.10975
-0.00114668
-0.0572912
0.000826384
0.0573007
-0.00083583
-0.00179898
-0.0589839
0.059051
0.00173192
-0.00212579
-0.112228
0.112463
0.00189082
-0.0023059
-0.217775
0.218102
0.00197907
-0.00172553
-0.214078
0.214336
0.00146735
0.00173895
0.422491
-0.000728251
-0.00119565
0.0015977
0.419753
0.000675885
0.417722
0.000316587
0.415378
0.000316281
0.413929
0.000282037
0.413244
0.412572
-0.000391704
0.412391
-0.000446905
0.412743
-0.000476319
0.413073
-0.00044444
0.413649
-0.000407969
0.414396
-0.000156597
0.415401
2.91727e-05
0.416853
0.000162848
-0.210077
0.210096
1.09048e-05
-0.211734
0.211379
0.000584677
-0.000229921
-0.21409
0.213249
-0.00115072
0.000853326
0.00113824
-0.109202
-0.0013557
0.108812
0.00174592
-0.0561722
-0.00183056
0.0558935
0.00210932
0.0022512
-0.0580744
0.0577854
-0.00196223
0.00171209
-0.112147
0.111782
-0.0013465
0.00162259
-0.217903
0.217272
-0.00099195
0.00047425
-0.214296
0.214023
-0.000201178
0.000157007
0.421839
0.000424691
7.00491e-05
0.0005925
0.419318
0.000790341
0.417524
-0.00023485
0.416404
-9.49047e-05
0.413789
3.42023e-05
0.413115
0.412445
-0.000293367
0.412409
-0.000275202
0.412725
-0.000238712
0.413037
-0.000134932
0.413545
0.000102498
0.414159
0.000556485
0.414947
0.000472297
0.416354
0.000583155
-0.209861
0.20961
0.000723978
-0.210894
0.210348
0.00166024
-0.00111441
-0.212168
0.211038
-0.00244728
0.00176028
0.00181646
-0.107328
-0.00255338
0.106796
0.00308548
-0.0536001
-0.00287524
0.0532524
0.0032229
0.00440181
-0.0551842
0.0547694
-0.00398701
0.00407484
-0.110066
0.109393
-0.00340181
0.00427607
-0.216212
0.214884
-0.00294876
0.00208531
-0.213538
0.212934
-0.00148112
-0.0009608
0.420531
0.00122693
0.00104226
-0.000200623
0.418558
0.000275807
0.417048
0.000443458
0.416236
-0.000463034
0.414696
-0.000234462
0.412886
0.412231
-0.000213851
0.412407
-0.000165781
0.412677
-9.56384e-05
0.412967
7.1187e-05
0.413378
0.000329745
0.4139
0.000806318
0.41447
0.0007442
0.415662
0.000753986
-0.209309
0.209025
0.00102772
-0.209796
0.209305
0.00185815
-0.00136741
-0.209968
0.209098
-0.00251442
0.00174748
0.00163722
-0.105332
-0.00240509
0.104941
0.00279608
-0.0509571
-0.002452
0.0506873
0.00272185
0.00451742
-0.0515347
0.0510671
-0.00404979
0.00437678
-0.107315
0.106685
-0.00374723
0.00478426
-0.213387
0.212136
-0.00353364
0.002638
-0.212291
0.211658
-0.0020057
-0.0014574
0.419122
0.00143994
0.00142633
-0.000585736
0.417686
-7.89175e-06
0.41647
1.10454e-06
0.416227
-0.00061552
0.415312
-0.000477475
0.412748
0.411952
-0.000136415
0.412379
-0.000102064
0.412642
-6.12104e-06
0.412871
0.000130645
0.413241
0.000357872
0.413673
0.000694306
0.414134
0.00112194
0.415234
0.00111293
0.4171
0.000676913
-0.208806
-0.208961
-0.208927
0.208728
0.00131253
-0.2085
0.209023
0.000735053
-0.00125814
-0.104519
0.00031918
0.105733
-0.00153333
-0.050455
0.00192313
0.0495612
-0.00102939
-0.0205226
0.000717086
0.0205879
-0.000782421
0.0017827
-0.0488973
0.0983666
-0.00337227
0.00154671
-0.0494264
-0.105289
0.00305837
0.105063
-0.00283209
0.00356932
-0.211174
0.210447
-0.00284206
0.00224603
-0.211188
0.211051
-0.00210898
-0.00139661
0.418055
0.00114232
0.00132142
-0.000633244
0.416923
-0.000101495
0.415938
-0.00071915
0.416845
0.000416497
0.414177
-0.000566662
0.413731
0.411748
-0.000128786
0.412379
-0.000102132
0.412616
-4.73228e-05
0.412816
3.0047e-05
0.413164
0.000187222
0.413516
0.000302433
0.414019
-0.000139207
0.415676
-0.000822614
0.419602
-0.00181884
-0.209296
0.21024
-0.00176613
-0.209691
0.20897
-0.00110516
0.00182597
-0.104295
-0.000190299
0.104134
0.000351128
-0.098133
-7.41802e-05
0.0982542
-4.70141e-05
-0.0455314
0.00189677
0.0919764
-0.00261656
-0.0457252
-0.0988796
0.00313887
0.0984623
-0.00272163
-0.208807
0.00294234
0.209188
-0.00522608
0.00190284
0.00484127
-0.210057
0.209545
-0.00432967
-0.00512878
0.418143
0.002562
0.00396318
-0.211776
-0.207764
-0.00396486
0.416891
-0.00312222
0.41608
-0.002365
0.415181
2.42278e-05
0.414455
0.000398201
0.413803
0.000676797
0.413453
0.412927
-0.000119305
0.412393
-0.000133409
0.41263
-0.000131378
0.412814
-0.000103241
0.413136
-9.46521e-05
0.413507
-0.000292943
0.414217
-0.00153144
0.416914
-0.00181467
0.419976
-9.05871e-05
-0.210206
0.209008
-0.000616912
-0.208561
0.20868
-0.000159351
4.02136e-05
-0.208561
0.208758
-0.000562244
0.000365207
-0.0984121
0.000454592
0.0983471
-0.000389627
-0.0933592
0.00134628
0.0936417
-0.00162877
-0.0984024
0.00197611
0.198794
-0.00404516
-0.100236
0.00191342
-0.208688
0.00412536
0.2083
-0.00373767
-0.209232
0.00351683
0.208965
-0.00324962
-0.00374184
0.416532
0.00248635
0.00286695
-0.00246085
0.41561
-0.00205368
0.415673
-0.00184404
0.414971
-0.00162734
0.414239
-0.00135903
0.413535
-0.000965475
0.413059
0.412575
-0.000147701
0.412446
-0.000162289
0.412644
-0.000194033
0.412846
-0.000238847
0.413181
-0.000327581
0.413596
-0.000936389
0.414826
-0.00179531
0.417773
-0.000654786
0.418835
-0.000415768
0.418173
-0.209042
-0.208849
-0.000520859
-0.20893
0.209143
-0.000628174
-0.208882
0.208937
-0.000831679
0.000776509
-0.195943
0.000893413
0.196444
-0.00139373
-0.187372
0.0021469
0.188225
-0.00300038
-0.19885
0.00332663
0.19866
-0.00313673
-0.207979
0.00276642
0.2078
-0.00258759
-0.208785
0.00250393
0.208639
-0.00235862
-0.00374168
0.416083
0.00204237
0.00214832
-0.00302142
0.41489
-0.00231621
0.414968
-0.00157415
0.414229
-0.000928733
0.413593
-0.00067772
0.413284
-0.000632
0.413013
0.412645
-0.000163309
0.412517
-0.000224167
0.412705
-0.000310221
0.412932
-0.00039894
0.413269
-0.000659545
0.413857
-0.00175742
0.415924
-0.00181749
0.417833
-0.00104657
0.418064
-0.00146483
0.418591
-0.00103379
0.41985
-0.209423
-0.209779
-0.00107845
-0.208883
0.208683
-0.000833741
-0.197019
0.000934708
0.197586
-0.00150229
-0.18883
0.00189593
0.189323
-0.00238889
-0.198527
0.00261298
0.198512
-0.00259817
-0.00379349
0.41614
-0.207835
-0.208397
0.00191983
0.00196632
-0.0035224
0.416634
-0.208492
-0.208412
-0.00323696
0.415797
-0.002909
0.414562
-0.00229073
0.414349
-0.00174363
0.413682
-0.00130571
0.413155
-0.000949361
0.412927
-0.000440968
0.412505
0.412965
-0.000184098
0.412604
-0.00028902
0.41281
-0.000379067
0.413022
-0.000501756
0.413392
-0.000712458
0.414067
-0.00156249
0.416774
-0.00127349
0.417544
-0.00109684
0.417888
-0.00162872
0.419123
-0.00202859
0.420249
-0.00204211
0.413775
-0.208102
-0.205659
-0.00315253
0.401143
-0.198524
-0.201509
-0.00410914
0.380005
-0.189622
-0.189426
-0.00355093
0.402474
-0.19914
-0.203892
-0.00319022
0.415779
-0.00303382
0.416477
-0.00282914
0.415593
-0.00255729
0.41429
-0.00211821
0.41391
-0.00172783
0.413292
-0.00146995
0.412897
-0.00103128
0.412488
-0.000674264
0.412148
0.413091
-0.000206751
0.412706
-0.000307042
0.412911
-0.000440483
0.413155
-0.000587775
0.413539
-0.000803067
0.414283
-0.00131536
0.417286
-0.00118391
0.417413
-0.00123051
0.417934
-0.00168259
0.419575
-0.00187969
0.420447
-0.00175743
0.413652
-0.00269419
0.40208
-0.00351236
0.380823
-0.00300338
0.401965
-0.00271706
0.415492
-0.00263396
0.416394
-0.00249064
0.415449
-0.00226479
0.414064
-0.00195291
0.413598
-0.0016358
0.412975
-0.0013706
0.412632
-0.00104802
0.412166
-0.000753567
0.411853
0.413159
-0.000229202
0.412819
-0.000366156
0.413047
-0.00051508
0.413304
-0.00067899
0.413703
-0.000843789
0.414448
-0.00107229
0.417515
-0.00112854
0.417469
-0.00129335
0.418099
-0.00169809
0.41998
-0.00177504
0.420524
-0.00156295
0.41344
-0.00241718
0.402934
-0.00316272
0.381568
-0.00262457
0.401427
-0.00234431
0.415212
-0.00228903
0.416339
-0.00218668
0.415347
-0.00202717
0.413904
-0.00180026
0.413372
-0.00154384
0.412718
-0.00130822
0.412397
-0.00103012
0.411888
-0.000774222
0.411598
0.413214
-0.000250346
0.41294
-0.000397577
0.413195
-0.000534688
0.413441
-0.00070882
0.413878
-0.000884035
0.414623
-0.0010017
0.417632
-0.00115347
0.417621
-0.00146621
0.418412
-0.00168155
0.420195
-0.00167256
0.420515
-0.00138176
0.413149
-0.00219761
0.40375
-0.00291253
0.382283
-0.00234165
0.400856
-0.00203643
0.414907
-0.00199079
0.416293
-0.00192379
0.41528
-0.00182054
0.413801
-0.00161879
0.41317
-0.00145772
0.412557
-0.0012211
0.41216
-0.00100544
0.411672
-0.000807618
0.4114
0.413233
-0.000292439
0.413091
-0.000401354
0.413304
-0.000568164
0.413608
-0.000724962
0.414034
-0.000905712
0.414803
-0.00102101
0.417747
-0.00118188
0.417782
-0.00147333
0.418703
-0.00163673
0.420359
-0.00155167
0.420429
-0.00120665
0.412804
-0.00200464
0.404548
-0.00271698
0.382996
-0.00211929
0.400258
-0.00178356
0.414571
-0.00173088
0.41624
-0.0016858
0.415235
-0.00159641
0.413712
-0.00147665
0.41305
-0.00133513
0.412416
-0.00113509
0.41196
-0.000954851
0.411492
-0.000766872
0.411212
0.413281
-0.000287881
0.413224
-0.000446039
0.413462
-0.000594324
0.413756
-0.000752938
0.414193
-0.00093583
0.414986
-0.00102351
0.417835
-0.00119134
0.41795
-0.00146064
0.418973
-0.00168755
0.420585
-0.00142701
0.420169
-0.00104133
0.412419
-0.00182775
0.405334
-0.00255475
0.383723
-0.00194453
0.399648
-0.00157221
0.414199
-0.00150419
0.416172
-0.0014726
0.415203
-0.00141806
0.413657
-0.00130501
0.412937
-0.00119847
0.412309
-0.00107429
0.411836
-0.000925002
0.411343
-0.000788375
0.411075
0.413288
-0.000305089
0.413359
-0.000442334
0.413599
-0.000615061
0.413929
-0.000772981
0.414351
-0.000933148
0.415147
-0.00101464
0.417917
-0.001191
0.418126
-0.00143722
0.419219
-0.00166332
0.420812
-0.00129257
0.419798
-0.000883405
0.412009
-0.00164969
0.406101
-0.0024162
0.384489
-0.00179117
0.399023
-0.00138985
0.413798
-0.00130058
0.416083
-0.0012818
0.415184
-0.00125833
0.413634
-0.0011915
0.41287
-0.00111472
0.412232
-0.000971731
0.411693
-0.000849731
0.411221
-0.00073851
0.410964
0.413319
-0.000322273
0.413494
-0.000459336
0.413736
-0.000609425
0.414079
-0.000764947
0.414506
-0.000946357
0.415328
-0.00102139
0.417992
-0.00118099
0.418285
-0.00140483
0.419443
-0.00157797
0.420985
-0.00141461
0.419635
-0.000922354
0.411517
-0.00164562
0.406824
-0.00240495
0.385249
-0.0017929
0.398411
-0.00133594
0.413341
-0.00121872
0.415966
-0.00121075
0.415176
-0.00122541
0.413648
-0.00122357
0.412868
-0.00105985
0.412069
-0.000939366
0.411572
-0.000818761
0.4111
-0.000707491
0.410853
0.41335
-0.000340354
0.41363
-0.000475762
0.413871
-0.000601874
0.414205
-0.000776561
0.414681
-0.000932811
0.415484
-0.00102424
0.418083
-0.00116938
0.418431
-0.00136816
0.419641
-0.00159794
0.421214
-0.0013658
0.419403
-0.000934697
0.411086
-0.00167898
0.407568
-0.002521
0.386091
-0.00195158
0.397841
-0.0014714
0.41286
-0.00132408
0.415819
-0.0013007
0.415153
-0.00129442
0.413642
-0.00126473
0.412839
-0.0012342
0.412038
-0.00115465
0.411493
-0.00109923
0.411044
-0.00100731
0.410761
0.413041
-0.000360169
0.413763
-0.000492837
0.414004
-0.00063912
0.414351
-0.000764354
0.414806
-0.000917383
0.415637
-0.00100294
0.418169
-0.00115836
0.418586
-0.00143839
0.419921
-0.00158876
0.421365
-0.00123139
0.419045
-0.000792154
0.410647
-0.00151934
0.408295
-0.00240901
0.38698
-0.00186362
0.397296
-0.00135167
0.412348
-0.00117278
0.41564
-0.00113997
0.41512
-0.00117129
0.413673
-0.0011345
0.412802
-0.00112261
0.412026
-0.00108196
0.411452
-0.001022
0.410985
-0.000969335
0.410708
0.412728
-0.000382516
0.413894
-0.000488921
0.41411
-0.00063174
0.414494
-0.000752554
0.414927
-0.000924256
0.415809
-0.00100462
0.418249
-0.00125374
0.418835
-0.00150449
0.420172
-0.001495
0.421355
-0.00109263
0.418643
-0.000661319
0.410215
-0.00135998
0.408994
-0.00229691
0.387917
-0.00179344
0.396792
-0.001252
0.411807
-0.00103752
0.415425
-0.000989379
0.415072
-0.00103344
0.413717
-0.00103265
0.412801
-0.00101423
0.412008
-0.000965506
0.411403
-0.000965664
0.410985
-0.000905259
0.410648
0.412429
-0.000385264
0.413997
-0.000532708
0.414258
-0.00064853
0.41461
-0.000787418
0.415066
-0.000909111
0.415931
-0.001121
0.418461
-0.001383
0.419097
-0.00146629
0.420255
-0.00139659
0.421286
-0.000959642
0.418206
-0.000533779
0.40979
-0.00120125
0.409661
-0.00218303
0.388899
-0.00172945
0.396339
-0.00116799
0.411246
-0.000914724
0.415172
-0.000847996
0.415005
-0.00090225
0.413772
-0.000913427
0.412812
-0.000908439
0.412003
-0.000894482
0.411389
-0.000862742
0.410953
-0.00083729
0.410622
0.412142
-0.00043652
0.414119
-0.000533941
0.414355
-0.000644658
0.414721
-0.000778846
0.4152
-0.00105411
0.416206
-0.00137483
0.418782
-0.00137719
0.4191
-0.00142102
0.420299
-0.00128944
0.421154
-0.000826579
0.417743
-0.000419431
0.409382
-0.00104402
0.410286
-0.00207202
0.389927
-0.00167845
0.395945
-0.00109381
0.410661
-0.00080884
0.414887
-0.000716092
0.414913
-0.000777675
0.413833
-0.000776433
0.412811
-0.000827304
0.412054
-0.000801385
0.411363
-0.000802795
0.410954
-0.000787959
0.410607
0.411843
-0.000445533
0.414211
-0.000560631
0.41447
-0.000688011
0.414848
-0.000772205
0.415284
-0.00149531
0.416929
-0.00135611
0.418642
-0.00137156
0.419115
-0.00137291
0.420301
-0.00118349
0.420965
-0.000697342
0.417257
-0.000313265
0.408998
-0.000890101
0.410863
-0.00195341
0.39099
-0.0016311
0.395623
-0.00103723
0.410067
-0.000715617
0.414565
-0.000592427
0.414789
-0.000660449
0.413901
-0.000689496
0.41284
-0.000703783
0.412068
-0.000731279
0.411391
-0.000718764
0.410942
-0.000712736
0.410601
0.411552
-0.000502228
0.41432
-0.000566926
0.414535
-0.000687507
0.414969
-0.00117581
0.415773
-0.0015271
0.41728
-0.00138198
0.418497
-0.00135955
0.419093
-0.00131618
0.420257
-0.00107206
0.42072
-0.000573536
0.416758
-0.000216985
0.408642
-0.000741537
0.411387
-0.00183407
0.392083
-0.00158745
0.395376
-0.000990114
0.40947
-0.000640652
0.414216
-0.000483261
0.414632
-0.000551983
0.41397
-0.000585828
0.412874
-0.00062834
0.412111
-0.000617316
0.41138
-0.000633698
0.410958
-0.000612288
0.41058
0.411289
-0.000514982
0.414397
-0.000619949
0.41464
-0.000710201
0.415059
-0.00130691
0.41637
-0.00148843
0.417462
-0.00135775
0.418367
-0.00134041
0.419075
-0.0012502
0.420167
-0.000959294
0.42043
-0.000461954
0.416261
-0.000145484
0.408325
-0.000606102
0.411848
-0.00169965
0.393176
-0.00153713
0.395214
-0.000950924
0.408883
-0.000581592
0.413847
-0.000389196
0.41444
-0.000455924
0.414037
-0.000489624
0.412908
-0.000535042
0.412156
-0.000550076
0.411395
-0.000548502
0.410957
-0.000554577
0.410586
0.411008
-0.000549553
0.414467
-0.000627723
0.414718
-0.000709339
0.415141
-0.0011652
0.416825
-0.001425
0.417721
-0.00137645
0.418318
-0.00131351
0.419012
-0.00117978
0.420033
-0.000845484
0.420095
-0.000355101
0.415771
-8.31277e-05
0.408053
-0.000477707
0.412243
-0.00156107
0.39426
-0.00149517
0.395148
-0.000924662
0.408313
-0.000542327
0.413464
-0.00031034
0.414208
-0.000395275
0.414122
-0.000399885
0.412912
-0.000447894
0.412204
-0.000440535
0.411388
-0.000487176
0.411003
-0.000473848
0.410573
0.410729
-0.000605964
-0.000679609
-0.000729446
-0.000951107
-0.0011023
-0.00134717
-0.00123548
-0.00106311
-0.000730484
-0.000319839
-0.000135503
-0.000436204
-0.00130276
-0.00133475
-0.000881593
-0.000547331
-0.000294723
-0.000321798
-0.000324601
-0.000368722
-0.000379934
-0.00038299
-0.000415332
0.00411993
-0.00453211
-0.0551951
0.0567462
0.00618746
-0.056153
-0.00334315
-0.00343748
-0.0510824
-0.00708643
0.051729
0.00122672
-0.00127788
-0.05724
0.0592516
0.00236357
-0.0591318
-0.00118454
-0.00129885
0.0572634
-0.00312858
-0.00321221
-0.00157735
0.00183855
-0.0564334
0.0581084
-0.00184053
-0.0584249
0.0011217
0.00103532
0.0593152
-0.000873464
-0.000989129
-0.00283062
0.00317385
-0.0539433
0.0549321
-0.00426333
-0.0553946
0.00472586
0.0577695
0.00133402
0.00125609
-0.00256305
0.00286718
-0.0512613
0.0509553
-0.00462403
-0.0514677
0.00513637
0.00489437
0.0544395
0.00203021
-0.00258344
-0.0499017
-0.000812788
0.0225922
0.000508772
-0.0112313
-0.0110568
-0.000979318
-0.00982118
-0.0105349
0.0480291
-0.00258427
-0.0481236
0.00267873
0.00496921
0.0505035
0.0044562
-0.00494746
-0.0506381
-0.0473146
0.000362618
0.0467731
0.00592533
-0.0505442
-0.00646352
-0.0497937
-0.00218213
0.050021
0.00410139
-0.00489044
-0.107093
0.0553505
-0.0549805
0.00374991
-0.0515931
0.00420183
0.0520808
0.0135363
0.00549809
-0.0267517
0.0135848
-0.00290078
-0.00296676
0.00483941
-0.0237161
-0.00523413
0.0241108
0.00564771
-0.0560256
0.110272
0.0063333
-0.109155
-0.00745043
-0.105649
-0.00799869
0.10678
0.00176185
-0.00199037
-0.109438
0.0569841
-0.0569218
0.00116445
0.00345204
0.0556941
0.0568029
0.00276481
-0.00299393
-0.0565738
0.0287379
-0.000872707
-0.0287248
0.00168231
-0.000822675
-0.0285113
-0.00270392
0.00262653
0.0285887
0.0140574
0.00050508
-0.0144405
-0.000121995
-0.0143178
0.00228163
-0.0024921
0.0145283
0.00224119
-0.0588615
0.113187
0.0031448
-0.112754
-0.00357849
-0.00672448
0.111282
-0.000837337
0.00114609
-0.109511
0.0561141
-0.0563403
-0.00135122
0.000792308
0.0570182
0.0570505
-0.000323309
0.000445416
-0.0571726
0.0286148
0.000498245
-0.0287251
-0.000641161
0.000253256
-0.028944
-0.0002216
0.000387612
0.0288903
-0.000112355
0.0125692
6.92582e-05
-0.0125648
-7.35828e-05
-0.012874
0.000101564
0.0128727
-0.00010026
-0.00157614
-0.0583387
0.112915
-0.000816941
-0.113263
0.00116506
-0.0023587
0.11342
-0.00239734
0.00292204
-0.107853
0.0537942
-0.0541127
-0.00251215
-0.00158697
0.0558705
0.0549571
-0.00241762
0.00274468
-0.0552841
0.00211275
0.0261394
-0.0262833
-0.00196877
-0.0273055
0.000876211
-0.00159362
0.0271204
0.000902498
0.0134527
-0.00169592
-0.0137798
0.00202308
-0.0128991
-0.000316244
2.84248e-05
0.0131869
-0.0038232
-0.0556243
0.110299
-0.00360027
-0.111096
0.00439766
0.00219445
0.112433
0.0234731
-0.00340482
-0.0236005
0.00178129
0.00175084
-0.0123139
-0.00161898
0.00164851
0.0122843
-0.00415142
-0.0520073
0.106973
-0.00447801
-0.107783
0.00528744
0.00489383
0.10948
0.0214035
-0.00270322
-0.0214798
0.00277958
-0.0223251
-0.00324347
0.0033801
0.0221885
-0.000339874
0.000189634
-0.0979827
-0.00103761
0.0487984
-0.0485647
0.00080386
0.000528108
0.0227811
-0.0013232
-0.0452458
-0.00342122
0.0959346
-0.0965238
0.00401043
0.0017442
0.0480676
-0.00277391
-0.0284803
0.00274287
-0.00387531
-0.0272946
0.0036418
0.0275281
-0.0536614
0.00482514
0.0542105
-0.00537427
-0.0273741
0.0276402
-0.00208836
-0.00205299
0.0284873
-0.0286037
-0.00134346
-0.00131411
0.00391086
-0.0246097
0.0249538
-0.00425495
0.00397958
-0.00421626
-0.0271374
0.00203313
-0.014417
-0.00193391
0.00274181
-0.00281442
0.0136089
-0.054084
0.00693595
-0.00766838
0.0548165
-0.0270427
-0.00270969
0.0273595
0.00513474
0.0144311
0.00204961
-0.0144476
-0.000169816
-0.0290045
0.000523697
-0.000293337
-0.00088351
0.00162529
0.028921
-0.000924821
0.00238664
0.0569946
-0.00257832
-0.0141164
0.0142097
-0.000976828
0.0143651
-0.000169254
-0.0143656
0.0142953
0.0143123
-0.00135753
-0.0014667
-0.000866877
-0.0141222
3.17016e-05
-0.0129645
5.87676e-05
0.000778751
-0.000314554
0.0135932
-0.0584339
0.00397741
0.0587221
-0.00208114
-0.00218446
-0.0141967
0.0139021
0.00107331
0.0141203
0.000168732
-0.0142573
0.0145806
0.00213218
0.000847009
-0.0145386
0.00448279
-0.058104
-0.00235542
-0.00245731
0.000884615
-0.0274797
-0.00150928
0.000798798
0.00046811
-0.000851579
0.0283101
0.000688178
-0.000666711
0.0568722
0.000845088
-0.0142671
0.0140924
0.000642785
0.0134288
0.000956045
-0.0135002
0.0142938
-0.000150368
0.000477907
-0.0142468
-0.000572961
-0.0125512
0.00022504
3.91631e-05
0.012563
-3.30278e-05
-0.0591293
-0.00041547
0.0589427
0.000352509
0.000249507
-0.0137667
0.0138178
-1.19304e-05
0.0130306
-0.000783067
-0.0128205
0.01404
0.000181861
9.71581e-06
-0.0137072
0.000113828
-0.0592544
5.94894e-05
-4.82011e-05
-0.0255995
-0.00213605
0.0255357
0.00106638
0.00113343
0.0246229
-0.00224521
0.00235619
-0.0247338
0.0133125
0.000992459
-0.0256731
0.00109644
0.00108998
-0.00166983
-0.0123857
0.00174165
-0.00185603
0.00234201
0.0129667
-0.0566462
-0.00356491
0.0562418
0.00200345
0.00196579
-0.0133404
0.013062
-0.00157765
0.0248519
0.00164621
-0.00310924
-0.0250587
0.0132814
-0.000567079
-0.0015007
-0.0135356
-0.00328747
-0.0570361
0.0018675
0.00180988
-0.0236672
-0.00210454
0.0235681
0.00220373
0.0230209
-0.00188481
0.00194853
-0.0230846
-0.00224875
0.0245419
0.00232972
-0.00213122
0.00224505
-0.0237811
-0.00326211
-0.0224786
0.0034156
-0.00341702
0.0233126
0.00180481
0.00177278
0.00160733
0.0247425
-0.00311684
0.0237693
-0.00325864
-0.0239155
0.0529925
-0.00475553
-0.0534729
0.0052359
-0.0225792
-0.00131483
0.0225332
0.00136088
0.0226754
-0.000245981
0.000262696
-0.0226921
-0.00183437
0.0229556
0.00189972
-0.00142449
0.00145658
-0.0226113
0.0215057
-0.00104948
-0.0217883
0.00133213
-0.00259635
0.00267714
0.0213227
0.00490495
-0.00551354
-0.0530528
-0.0270516
0.00373656
-0.0249322
0.00365181
0.0251912
0.0125264
0.00371695
-0.0164364
0.000193081
0.00332467
-0.0109108
-0.00352776
0.0111139
-0.00252675
0.00297511
-0.10578
0.0513666
-0.0516379
-0.00229173
-0.00255254
0.0534715
0.0522304
-0.00286618
0.00319771
-0.052562
0.0240116
-0.0241141
-0.00202876
-0.0249781
-0.00212593
0.0248553
0.0111907
-0.00191739
-0.0113557
0.00208238
-0.0115212
-0.00202963
0.00216912
0.0113817
-0.00252164
-0.0489599
-0.00349711
0.104537
-0.104993
0.00395226
0.0051327
0.106218
-0.0114936
0.00287031
0.0118266
-0.00320333
0.0134882
0.00310086
-0.00309136
-0.0134977
-0.0241894
0.0245042
0.00452464
0.00520072
-0.0267453
0.00695417
-0.0532819
-0.00775634
-0.0251212
-0.00210209
-0.00200238
0.0260057
-0.00256264
0.0546247
0.00289505
-0.0108494
-0.00020658
0.0110857
-2.97898e-05
0.0117293
-0.000658989
0.000229833
-0.0113001
-0.0115202
-0.00120625
0.0114402
0.00128625
0.0116357
-0.0012231
0.00129856
-0.0117111
-0.000491829
0.0120928
0.000128278
-0.00137517
0.0116363
0.00118286
-0.011444
-0.00188239
-0.0113608
0.00172193
-0.00238799
-0.0106182
0.00209311
0.0109131
-0.00476025
0.00527333
0.0524795
0.0236203
-0.00326805
0.0226678
-0.00312561
-0.0228043
-0.00115561
0.0114608
0.00133047
0.0113043
-0.000998542
0.00101426
-0.01132
0.0225411
-0.00311676
0.0218599
-0.00267397
-0.0218891
0.0491459
-0.00386855
-0.0495825
0.00430516
-0.000130169
-0.0238055
0.000571725
0.0233639
0.00242817
-0.0488353
0.0243611
0.0237541
-0.000981895
-0.000726163
0.0036193
-0.00391878
-0.0243103
0.00443729
-0.023405
-0.00474839
0.00322572
-0.047241
-0.00137843
-0.00197973
0.0232562
0.0241173
-0.0244429
0.0240771
0.000235594
0.00341022
0.00907364
4.25066e-05
-0.0254761
0.00562546
0.025931
-0.00302651
-0.00305384
-0.0130366
0.0126078
0.00383896
-0.0111026
0.0112486
0.00317861
0.00390534
-0.013225
0.00554418
-0.0250406
-0.00597968
-0.0145122
0.00279205
-0.00374761
0.0154677
0.00243894
-0.0141735
-0.00277758
-0.0126423
2.06456e-05
0.0125695
5.21023e-05
3.32434e-05
-0.0126749
-5.79271e-07
-0.0128223
-0.00192259
0.00230907
0.0124358
-0.00224618
-0.0137331
0.00315697
-0.0120577
-0.00330785
0.0239883
-0.0120722
0.00177023
0.00167925
0.0123435
-0.00129305
-0.0110363
-1.41801e-05
-0.00167126
-0.0121068
0.00172033
0.010635
-0.00157602
-0.0106363
0.00157734
-0.00187751
0.00200328
0.0110649
-0.0113785
0.0112901
-0.00194122
0.0109996
-0.00181553
-0.0111014
0.0217925
-0.00303853
-0.0219205
0.00316655
0.00128595
-0.0128266
0.0115684
-2.7717e-05
0.0281954
0.00347903
-0.0280252
-0.00182946
-0.0018198
0.0114753
-0.0123433
0.000952841
-8.48337e-05
-0.0140383
0.00207972
0.0132445
0.00256219