/*--------------------------------*- C++ -*----------------------------------*\
| =========                 |                                                 |
| \\      /  F ield         | OpenFOAM: The Open Source CFD Toolbox           |
|  \\    /   O peration     | Version:  5.x                                   |
|   \\  /    A nd           | Web:      www.OpenFOAM.org                      |
|    \\/     M anipulation  |                                                 |
\*---------------------------------------------------------------------------*/
FoamFile
{
    version     2.0;
    format      ascii;
    class       volVectorField;
    location    "100";
    object      U;
}
// * * * * * * * * * * * * * * * * * * * * * * * * * * * * * * * * * * * * * //

dimensions      [0 1 -1 0 0 0 0];

internalField   nonuniform List<vector> 
6584
(
(45.0033 -0.00899164 2.1171e-25)
(45.0024 -0.019725 1.0291e-23)
(45.0031 -0.0267585 9.27851e-29)
(45.0032 -0.0364543 -1.84526e-23)
(45.0037 -0.0466984 0)
(45.0038 -0.0581285 0)
(45.0035 -0.0696752 0)
(45.0017 -0.077986 1.952e-23)
(44.9987 -0.080361 2.03265e-23)
(44.9935 -0.0696103 0)
(44.988 -0.036321 1.06745e-23)
(44.984 0.017785 -4.58616e-24)
(44.9845 0.080049 -4.90898e-25)
(44.9896 0.130527 1.31171e-24)
(44.996 0.155897 5.02999e-25)
(45.0027 0.155638 3.90299e-23)
(45.0062 0.140133 3.54286e-23)
(45.0076 0.118406 2.83122e-24)
(45.0074 0.0953414 2.56221e-23)
(45.0066 0.0742038 1.87901e-23)
(45.0055 0.0564754 0)
(45.005 0.0405663 0)
(45.0038 0.0293116 2.96701e-23)
(45.005 0.0131833 1.83533e-23)
(45.0139 -0.0189243 -1.00351e-23)
(45.0118 -0.0397896 -3.92105e-23)
(45.0144 -0.052881 -5.25012e-23)
(45.0156 -0.0724669 0)
(45.0179 -0.0930916 -7.1348e-24)
(45.0186 -0.116728 -5.89804e-23)
(45.0172 -0.141678 -3.61887e-23)
(45.0085 -0.160771 6.16029e-23)
(44.9963 -0.168731 -1.25624e-24)
(44.9623 -0.149544 -1.61724e-23)
(44.9201 -0.0819257 -6.09497e-27)
(44.8914 0.0319597 0)
(44.8946 0.164985 1.88574e-23)
(44.9305 0.271438 1.4887e-23)
(44.9804 0.323804 -8.46697e-23)
(45.0158 0.320935 -2.25033e-23)
(45.0309 0.285213 -5.47434e-23)
(45.0373 0.23824 -7.15841e-23)
(45.0358 0.189946 -1.90796e-22)
(45.0318 0.146783 -1.59145e-22)
(45.0265 0.111507 -1.0564e-23)
(45.0232 0.0796422 -4.60076e-24)
(45.0185 0.0587735 0)
(45.0207 0.0275838 1.58981e-23)
(45.0307 -0.0291197 -2.53433e-23)
(45.0291 -0.0589933 0)
(45.0348 -0.0770755 -1.02712e-23)
(45.0388 -0.106521 -6.82164e-23)
(45.0449 -0.137929 -1.0346e-22)
(45.0481 -0.175737 0)
(45.0458 -0.219284 0)
(45.0271 -0.254576 -1.86253e-23)
(44.9901 -0.293545 -3.04856e-24)
(44.9293 -0.213674 4.19079e-24)
(44.8598 -0.131839 -7.65053e-24)
(44.8028 0.0165222 -1.12266e-23)
(44.803 0.202954 0)
(44.8672 0.356671 0)
(44.9546 0.435211 1.95479e-24)
(45.0393 0.520943 -9.91173e-23)
(45.0825 0.441417 0)
(45.0961 0.360371 -2.98096e-23)
(45.0906 0.281293 0)
(45.0787 0.214222 -2.37462e-23)
(45.0651 0.161693 -6.99755e-23)
(45.0556 0.114481 -4.31331e-23)
(45.0451 0.0859799 0)
(45.0454 0.0419144 1.24287e-23)
(45.0513 -0.0386933 -1.55363e-23)
(45.0521 -0.0758427 0)
(45.0621 -0.0978326 -1.3756e-23)
(45.0714 -0.136504 0)
(45.0843 -0.178657 0)
(45.0945 -0.233114 0)
(45.0956 -0.301625 -3.42137e-23)
(45.0717 -0.370319 1.85949e-22)
(45.0028 -0.457261 -8.90249e-24)
(44.886 -0.379338 1.32247e-23)
(44.7374 -0.288763 -7.78102e-24)
(44.5807 -0.0547577 2.68003e-24)
(44.5532 0.298337 2.17928e-24)
(44.7042 0.589329 0)
(44.9069 0.695182 -1.4303e-22)
(45.0588 0.655551 0)
(45.1839 0.612515 0)
(45.1918 0.483461 2.45361e-22)
(45.1737 0.365066 1.66377e-22)
(45.1455 0.272066 -5.74633e-23)
(45.1185 0.203285 -4.13375e-23)
(45.0985 0.142447 0)
(45.0799 0.108324 1.75357e-23)
(45.0751 0.0546266 1.49405e-23)
(45.0744 -0.0467731 -6.03383e-24)
(45.0793 -0.0888395 -3.99353e-25)
(45.0952 -0.11318 -1.87366e-24)
(45.1128 -0.159606 -2.82977e-24)
(45.1364 -0.210772 5.28401e-24)
(45.1627 -0.282641 1.45916e-22)
(45.1771 -0.380947 -2.5065e-22)
(45.1745 -0.490484 2.21636e-22)
(45.0313 -0.540255 1.36769e-23)
(44.8857 -0.613108 6.48511e-23)
(44.5986 -0.571989 -6.61186e-24)
(44.1861 -0.23523 1.36149e-23)
(44.0686 0.440969 1.3626e-24)
(44.4534 0.977203 1.91416e-22)
(44.8983 1.08057 0)
(45.1652 0.93976 1.46774e-22)
(45.2636 0.72837 -3.65378e-23)
(45.3291 0.573894 -2.19471e-22)
(45.2864 0.429855 -1.25961e-22)
(45.2308 0.311933 4.28592e-23)
(45.1845 0.231457 -3.42249e-24)
(45.1493 0.160181 -2.13679e-24)
(45.1204 0.123265 2.03061e-23)
(45.1074 0.0642642 -8.10204e-24)
(45.0984 -0.0525158 3.00155e-24)
(45.1092 -0.0965002 -7.90963e-24)
(45.1319 -0.120874 -4.46654e-25)
(45.161 -0.171977 0)
(45.1994 -0.226825 -3.13976e-23)
(45.2509 -0.313064 -1.53139e-23)
(45.2911 -0.41704 -9.72283e-23)
(45.2514 -0.535086 -2.15434e-23)
(45.1749 -0.713696 8.1203e-23)
(45.023 -0.952927 3.57716e-22)
(44.4858 -0.994189 7.74079e-23)
(43.7092 -0.689195 1.25706e-26)
(43.2781 0.524822 -2.22102e-24)
(44.1132 1.53543 3.68938e-23)
(45.0399 1.67648 -3.32084e-22)
(45.4146 1.27877 0)
(45.4875 0.927804 1.79947e-26)
(45.5113 0.632324 5.39256e-23)
(45.4249 0.464877 1.59496e-23)
(45.3308 0.326439 4.37147e-23)
(45.2591 0.241034 -1.86435e-23)
(45.2043 0.164446 0)
(45.1634 0.12846 -1.08128e-23)
(45.1396 0.0694475 -1.61379e-23)
(45.1215 -0.0552521 3.83449e-26)
(45.1391 -0.0977726 -3.65909e-24)
(45.1691 -0.119298 4.61555e-24)
(45.2113 -0.170781 4.13777e-25)
(45.2671 -0.221738 8.26672e-25)
(45.3492 -0.31487 -4.85899e-23)
(45.4295 -0.414599 -6.61094e-23)
(45.4223 -0.578762 -1.94736e-24)
(45.455 -0.849873 -1.20814e-23)
(45.405 -1.28556 5.67045e-23)
(44.8002 -1.77437 0)
(43.141 -1.99372 4.80785e-23)
(40.9571 0.634268 1.95943e-24)
(43.8586 3.20695 1.4545e-22)
(45.4031 2.36478 -4.40601e-24)
(45.8978 1.572 0)
(45.8258 1.03846 1.00004e-22)
(45.7328 0.620625 8.62287e-24)
(45.5799 0.452055 8.17567e-24)
(45.4376 0.306887 -2.76806e-24)
(45.3357 0.227255 -4.00193e-23)
(45.2584 0.15271 0)
(45.2047 0.122152 -1.02733e-23)
(45.1684 0.0690578 -1.06848e-23)
(45.1417 -0.0546661 -3.75418e-24)
(45.1663 -0.0924255 3.26559e-24)
(45.2027 -0.108137 1.70031e-24)
(45.2576 -0.154897 1.25553e-24)
(45.3305 -0.193213 -1.8912e-24)
(45.4424 -0.278898 2.29497e-23)
(45.5706 -0.351586 6.26455e-27)
(45.6322 -0.534155 -1.0618e-23)
(45.8244 -0.826956 9.03128e-27)
(46.0658 -1.35107 -1.34456e-22)
(45.958 -2.35417 -7.67811e-24)
(45.1254 -4.78655 3.31151e-24)
(45.4864 5.81493 2.67292e-23)
(46.6429 2.96416 -2.35623e-23)
(46.6276 1.61321 5.08416e-23)
(46.2565 0.981783 -8.1979e-24)
(45.9598 0.511392 2.8784e-23)
(45.7291 0.378235 2.90083e-23)
(45.5369 0.248004 2.38551e-23)
(45.4045 0.187727 -1.4457e-23)
(45.3051 0.12413 0)
(45.2396 0.103773 0)
(45.1905 0.0625307 -7.35367e-29)
(45.1576 -0.0509454 -7.20436e-25)
(45.1881 -0.0813228 -1.49004e-25)
(45.229 -0.0889151 -5.68987e-25)
(45.2932 -0.126211 2.6369e-24)
(45.3787 -0.144525 3.15569e-24)
(45.5107 -0.207626 1.60842e-23)
(45.6767 -0.23251 4.42318e-23)
(45.8213 -0.386881 0)
(46.1628 -0.586558 0)
(46.7188 -0.931762 0)
(47.4315 -1.78611 -4.37142e-24)
(49.0236 -3.73244 6.55294e-25)
(49.9511 5.20513 0)
(48.3356 2.38253 0)
(47.3598 1.19224 0)
(46.6629 0.700002 1.15423e-23)
(46.1376 0.306661 0)
(45.8413 0.244737 -3.42351e-23)
(45.6112 0.153347 -2.06486e-23)
(45.4547 0.124828 -2.03279e-24)
(45.3377 0.0806911 0)
(45.2635 0.0744791 7.21684e-25)
(45.2029 0.050074 1.80563e-24)
(45.1681 -0.0448012 1.54959e-25)
(45.2028 -0.0664319 -2.16864e-25)
(45.2451 -0.0650795 2.36592e-25)
(45.3133 -0.0901942 1.17528e-24)
(45.4031 -0.0858261 -2.83747e-24)
(45.5386 -0.117567 -1.99578e-25)
(45.717 -0.0898965 -4.56653e-24)
(45.9217 -0.174319 -2.42534e-25)
(46.3183 -0.205402 0)
(46.9796 -0.215468 -1.19018e-23)
(48.1082 -0.423781 3.49358e-29)
(50.3872 -0.742186 -1.61225e-24)
(51.9844 1.5872 -3.94642e-24)
(49.3339 0.788226 -1.41385e-23)
(47.742 0.403137 -1.09277e-22)
(46.894 0.245662 0)
(46.2166 0.0490355 -7.53144e-23)
(45.8895 0.0729782 0)
(45.6457 0.0369217 -1.01347e-24)
(45.4775 0.0465697 0)
(45.3511 0.0274953 -1.52116e-24)
(45.2729 0.0372857 2.57892e-25)
(45.2039 0.0327831 -3.45461e-26)
(45.1734 -0.0373237 0)
(45.2098 -0.0503764 -1.27314e-24)
(45.2505 -0.0410674 -1.29543e-24)
(45.3168 -0.0542031 3.51026e-25)
(45.402 -0.0303779 3.9596e-25)
(45.5243 -0.0320222 4.28265e-24)
(45.687 0.0349662 1.64752e-23)
(45.9063 0.0322982 7.15857e-24)
(46.245 0.156153 0)
(46.7638 0.431537 5.7643e-23)
(47.7886 0.829431 1.70849e-23)
(49.3059 1.94539 -8.38654e-25)
(51.102 -2.1583 -1.55938e-24)
(49.1799 -0.921706 2.56514e-23)
(47.6359 -0.431178 3.54075e-24)
(46.8756 -0.237774 6.45717e-23)
(46.1797 -0.19982 3.2403e-22)
(45.8654 -0.102608 1.80186e-22)
(45.6348 -0.0810619 -1.2119e-22)
(45.4697 -0.0356367 -8.44864e-23)
(45.3433 -0.0283239 2.37313e-24)
(45.2664 -0.00351772 1.00597e-24)
(45.1931 0.0124455 -3.09963e-24)
(45.1743 -0.029695 1.24234e-25)
(45.2101 -0.0357103 1.02094e-25)
(45.2469 -0.0209075 3.0213e-25)
(45.3069 -0.0248294 4.23234e-25)
(45.3812 0.0109147 -1.76805e-32)
(45.4803 0.0297833 7.86808e-24)
(45.6085 0.113089 2.60684e-23)
(45.8021 0.172116 7.38536e-24)
(46.0177 0.37279 0)
(46.2705 0.758998 -1.70732e-23)
(46.9036 1.40522 -4.0824e-24)
(47.009 2.97574 -1.36152e-24)
(48.5728 -4.18609 5.83124e-25)
(48.1875 -2.01785 0)
(47.1637 -1.02489 -1.14604e-22)
(46.6466 -0.61232 8.82256e-23)
(46.0491 -0.390096 4.89254e-22)
(45.7822 -0.249958 3.14195e-22)
(45.5841 -0.182106 0)
(45.4342 -0.11049 -7.72295e-23)
(45.3161 -0.0799351 -4.59644e-23)
(45.245 -0.0433967 2.2688e-24)
(45.1714 -0.00889767 -3.27894e-24)
(45.1723 -0.0228935 0)
(45.2059 -0.0242367 1.87032e-25)
(45.2377 -0.00701505 -2.25526e-25)
(45.2894 -0.00577146 -6.22669e-25)
(45.3503 0.0333636 0)
(45.425 0.0599035 -1.96511e-24)
(45.5143 0.139034 4.45496e-24)
(45.6659 0.222924 -8.52667e-25)
(45.7625 0.413457 -2.81486e-25)
(45.7831 0.734035 8.42136e-24)
(46.0186 1.26676 1.63806e-24)
(44.6834 2.52128 0)
(45.4164 -4.3597 7.60188e-25)
(46.9323 -2.27411 -1.77033e-24)
(46.5699 -1.26142 5.9846e-23)
(46.3162 -0.809926 5.41949e-24)
(45.8697 -0.501346 2.31432e-22)
(45.6654 -0.350301 2.30752e-22)
(45.5067 -0.255058 0)
(45.3791 -0.170078 -9.09623e-25)
(45.2742 -0.122214 1.64905e-23)
(45.2116 -0.0787782 9.75941e-24)
(45.1413 -0.0293882 3.32218e-25)
(45.1691 -0.0175257 0)
(45.1996 -0.0167457 0)
(45.2265 8.63221e-05 0)
(45.2703 0.00250695 0)
(45.3193 0.0381886 -3.4144e-25)
(45.3752 0.060888 -1.15509e-25)
(45.4348 0.122585 -9.15426e-24)
(45.5323 0.196384 1.06264e-22)
(45.5799 0.328389 0)
(45.4977 0.486382 0)
(45.5364 0.717379 2.04098e-23)
(43.1197 1.02802 9.90477e-23)
(35.4383 -1.24578 -2.10786e-24)
(43.2417 -2.69311 -1.8393e-22)
(45.9654 -1.90259 -2.90638e-23)
(46.0728 -1.20449 -2.30161e-25)
(45.9922 -0.845071 -1.25578e-24)
(45.6864 -0.541633 -8.73842e-23)
(45.5412 -0.40156 7.83167e-24)
(45.4181 -0.297802 1.28822e-25)
(45.3134 -0.211065 -8.71459e-23)
(45.2235 -0.152914 0)
(45.1703 -0.107485 3.73409e-24)
(45.1055 -0.0476413 -7.15551e-24)
(45.166 -0.013798 0)
(45.1933 -0.0131005 -8.47354e-25)
(45.2165 0.00139893 4.75365e-26)
(45.2541 0.00212109 0)
(45.2948 0.0307624 0)
(45.3397 0.0440521 -3.52135e-23)
(45.3843 0.0866316 8.86141e-24)
(45.4722 0.12035 1.44324e-22)
(45.4997 0.195784 1.4984e-22)
(45.4399 0.216854 1.11418e-22)
(45.4433 0.233101 0)
(42.826 0.0980383 -9.01688e-24)
(39.8315 -0.943439 1.91851e-23)
(42.759 -1.5992 -1.74861e-23)
(45.4793 -1.24272 1.74207e-23)
(45.7618 -1.01096 -1.73071e-23)
(45.6464 -0.699364 2.38411e-23)
(45.529 -0.529808 -2.42812e-24)
(45.427 -0.411743 -1.88413e-25)
(45.3301 -0.314626 -2.86367e-25)
(45.2464 -0.234513 0)
(45.1697 -0.172205 -4.09921e-23)
(45.1253 -0.128662 -4.472e-23)
(45.067 -0.0630084 -1.02563e-23)
(45.1641 -0.0116165 3.43435e-26)
(45.1887 -0.0125975 -8.07662e-25)
(45.2094 -0.0014199 1.63577e-24)
(45.2431 -0.00396774 1.95182e-28)
(45.2794 0.0163906 -6.395e-24)
(45.3196 0.0192878 -2.38686e-23)
(45.3606 0.0414857 -8.91104e-23)
(45.4509 0.0521212 -1.41986e-22)
(45.4963 0.0707263 -3.37712e-23)
(45.4995 0.0146581 -5.28891e-24)
(45.5106 -0.103044 0)
(42.8862 -0.19775 -3.33449e-24)
(40.7104 -0.689119 -1.03597e-23)
(43.2971 -1.00697 -7.44548e-24)
(45.3372 -0.924288 -4.55075e-24)
(45.5985 -0.812874 -9.15164e-24)
(45.5116 -0.613274 -1.38736e-22)
(45.4097 -0.495572 0)
(45.3319 -0.397905 -1.23811e-23)
(45.2508 -0.313643 3.19516e-25)
(45.1823 -0.243494 -2.57163e-24)
(45.1165 -0.181647 4.41397e-24)
(45.0796 -0.14253 0)
(45.028 -0.0750174 0)
(45.164 -0.0107197 -2.60297e-26)
(45.1864 -0.0143265 5.30632e-26)
(45.206 -0.00669936 6.62642e-25)
(45.2378 -0.0130494 0)
(45.2729 -0.000699831 -2.41072e-24)
(45.3135 -0.00705906 0)
(45.3572 -0.00185939 -3.37131e-23)
(45.4649 -0.012267 -8.62491e-24)
(45.5683 -0.0476307 -1.19893e-25)
(45.6 -0.102003 -3.57904e-24)
(45.5619 -0.184683 1.31008e-23)
(42.7696 -0.19456 -3.14028e-23)
(40.9244 -0.549533 -2.63029e-23)
(43.259 -0.756572 3.76947e-24)
(45.2959 -0.691472 1.1028e-23)
(45.5161 -0.65343 5.12881e-24)
(45.4159 -0.526916 -6.76683e-23)
(45.3208 -0.445711 7.04262e-23)
(45.2555 -0.369994 0)
(45.1832 -0.300885 2.94877e-23)
(45.1252 -0.242062 -1.35894e-25)
(45.0671 -0.183647 6.5492e-24)
(45.0357 -0.150265 0)
(44.9902 -0.0839566 0)
(45.1658 -0.0107844 -7.26476e-26)
(45.1869 -0.0174021 9.78351e-26)
(45.2063 -0.0130192 -8.02295e-25)
(45.2379 -0.0230046 -6.41974e-25)
(45.2738 -0.0171831 0)
(45.3184 -0.030992 0)
(45.3674 -0.0344663 3.63988e-23)
(45.4993 -0.0637605 -1.17942e-23)
(45.6226 -0.0917415 6.40093e-24)
(45.7693 -0.227225 -3.77654e-23)
(45.5349 -0.213633 0)
(43.0142 -0.230658 2.91877e-23)
(41.2128 -0.461237 -3.54138e-23)
(43.2609 -0.650686 4.51215e-23)
(45.3797 -0.430987 6.83794e-23)
(45.4372 -0.490028 7.51036e-23)
(45.3646 -0.440763 6.10923e-23)
(45.2586 -0.392345 6.1993e-23)
(45.1972 -0.335833 -8.30022e-24)
(45.1277 -0.281452 -4.65401e-24)
(45.076 -0.233621 -1.30787e-23)
(45.0229 -0.180373 -4.71922e-23)
(44.9952 -0.153021 1.85789e-24)
(44.9549 -0.0901257 -1.41433e-24)
(45.1696 -0.0115004 -6.00134e-25)
(45.1898 -0.0211056 1.19494e-25)
(45.2099 -0.0193537 -8.09438e-25)
(45.2423 -0.0325069 -1.67538e-24)
(45.2802 -0.031218 0)
(45.33 -0.0508999 0)
(45.3846 -0.0567195 5.59121e-23)
(45.5375 -0.0991868 4.82914e-24)
(45.6818 -0.112962 -7.14566e-24)
(45.8195 -0.257043 -4.78308e-23)
(45.1127 -0.126463 0)
(43.6888 -0.323748 -9.73174e-23)
(41.3924 -0.387839 1.53641e-23)
(43.9064 -0.556538 9.96274e-24)
(45.3604 -0.345519 1.1006e-23)
(45.424 -0.429682 -1.89742e-23)
(45.3393 -0.369774 -1.95455e-23)
(45.2153 -0.347994 1.14701e-23)
(45.1538 -0.301384 -3.16475e-24)
(45.0831 -0.259791 -4.75315e-23)
(45.0346 -0.221144 -1.39139e-23)
(44.9844 -0.173805 -6.22281e-23)
(44.9589 -0.152031 0)
(44.9228 -0.0939937 -8.74991e-24)
(45.1751 -0.0126149 -5.62253e-25)
(45.195 -0.0249414 -5.65981e-25)
(45.2161 -0.025113 0)
(45.2499 -0.040948 -1.2657e-24)
(45.2902 -0.0423641 0)
(45.3453 -0.0667849 -4.52761e-23)
(45.4051 -0.0715519 -3.47209e-24)
(45.5746 -0.123623 6.09789e-24)
(45.7353 -0.12546 -8.69304e-24)
(45.8458 -0.269843 -9.64003e-24)
(45.1158 -0.12745 -1.65053e-23)
(43.7936 -0.28757 -5.51477e-23)
(41.4828 -0.345219 2.17402e-23)
(43.8604 -0.483159 -1.03713e-23)
(45.3296 -0.279741 -1.01842e-23)
(45.4155 -0.375773 -2.55e-24)
(45.3205 -0.310239 -1.19281e-23)
(45.1834 -0.310292 -9.1666e-24)
(45.121 -0.268233 -2.57342e-23)
(45.0473 -0.238165 -5.14593e-24)
(45.0002 -0.20657 -3.31308e-24)
(44.9515 -0.165386 -1.9891e-23)
(44.927 -0.148386 -8.73327e-24)
(44.8943 -0.0960124 -3.95716e-24)
(45.1819 -0.0139469 0)
(45.2019 -0.0286099 -1.32569e-24)
(45.2243 -0.0300266 -6.28592e-25)
(45.2597 -0.0481035 -8.89698e-25)
(45.3025 -0.0507563 4.10731e-24)
(45.3624 -0.0790167 -4.88238e-23)
(45.4272 -0.0810576 0)
(45.6102 -0.139891 -1.13215e-23)
(45.7842 -0.132428 0)
(45.861 -0.270514 0)
(45.1031 -0.119707 7.93758e-27)
(43.8966 -0.256473 -4.66848e-25)
(41.5729 -0.315415 1.02973e-23)
(43.8093 -0.430845 -7.63128e-24)
(45.3015 -0.229989 -6.38423e-24)
(45.4107 -0.329696 -2.44705e-24)
(45.3072 -0.260233 2.14649e-24)
(45.1601 -0.277294 -3.94659e-24)
(45.0957 -0.237059 -6.94021e-24)
(45.0188 -0.217511 1.33347e-23)
(44.9719 -0.191025 -3.49441e-24)
(44.9237 -0.156062 0)
(44.8995 -0.142914 1.14064e-28)
(44.8693 -0.0965672 0)
(45.1899 -0.0153849 0)
(45.2101 -0.0319545 -1.66525e-24)
(45.2339 -0.0340303 -9.31706e-25)
(45.271 -0.0539535 2.17838e-24)
(45.3163 -0.0567698 0)
(45.3801 -0.0880844 2.40351e-24)
(45.45 -0.0867521 -3.10757e-23)
(45.6442 -0.150027 -2.17132e-23)
(45.828 -0.135362 -1.00251e-25)
(45.8666 -0.264981 2.97127e-26)
(45.0775 -0.107589 1.78484e-23)
(43.9912 -0.227097 -8.93894e-24)
(41.656 -0.293067 1.53103e-23)
(43.752 -0.392443 -5.2277e-24)
(45.2721 -0.19175 4.91265e-24)
(45.4076 -0.291117 -3.88205e-25)
(45.2987 -0.218217 -4.9574e-24)
(45.1437 -0.24842 2.18136e-24)
(45.0763 -0.208388 9.38851e-24)
(44.9963 -0.198267 -1.85757e-28)
(44.9487 -0.175251 -1.73419e-24)
(44.9005 -0.146426 -1.32754e-23)
(44.876 -0.136215 6.68387e-24)
(44.8478 -0.0959651 6.27891e-24)
(45.1987 -0.0168804 -9.2681e-25)
(45.2193 -0.0349251 -1.9097e-24)
(45.2444 -0.037203 -1.7262e-32)
(45.283 -0.0586045 4.77729e-24)
(45.3309 -0.0608855 1.07873e-23)
(45.3978 -0.0945527 1.7559e-24)
(45.4727 -0.0898577 -3.0887e-23)
(45.6761 -0.155867 -1.81014e-23)
(45.8661 -0.135648 1.16565e-23)
(45.8631 -0.25549 0)
(45.0443 -0.0940036 3.51565e-24)
(44.081 -0.19975 -2.40594e-24)
(41.7352 -0.274567 5.10054e-24)
(43.69 -0.363069 -4.12577e-24)
(45.2389 -0.161736 -5.84493e-30)
(45.4039 -0.258422 -5.71574e-24)
(45.2935 -0.182414 -4.05271e-24)
(45.1323 -0.222989 -8.83698e-25)
(45.0615 -0.182278 5.10524e-24)
(44.9788 -0.180538 -8.49418e-24)
(44.93 -0.159699 -1.0922e-23)
(44.8815 -0.136819 -5.66589e-24)
(44.8563 -0.128726 -5.79247e-24)
(44.8296 -0.0944317 5.53865e-24)
(45.2081 -0.0184367 -4.89838e-33)
(45.229 -0.0375476 -1.03666e-24)
(45.2556 -0.0397039 1.11838e-24)
(45.2954 -0.0622311 2.48896e-24)
(45.3459 -0.0636018 3.41596e-28)
(45.4151 -0.0989744 0)
(45.495 -0.0913291 -1.05611e-26)
(45.7058 -0.158743 -1.63864e-23)
(45.8985 -0.134265 1.00282e-23)
(45.8514 -0.243157 0)
(45.0059 -0.0799186 -3.9001e-29)
(44.1688 -0.174153 1.79935e-24)
(41.8147 -0.258164 -4.8375e-24)
(43.6253 -0.340212 0)
(45.2014 -0.137852 1.12548e-24)
(45.3986 -0.230389 1.43499e-24)
(45.2905 -0.151386 0)
(45.1248 -0.200266 1.20154e-24)
(45.0502 -0.15852 1.71404e-24)
(44.9654 -0.164207 -1.87012e-23)
(44.9148 -0.144601 -4.57774e-24)
(44.8661 -0.127393 4.83124e-24)
(44.8399 -0.120726 -5.70222e-24)
(44.8144 -0.0921174 0)
(45.2178 -0.020101 1.04346e-24)
(45.239 -0.039895 -1.08626e-24)
(45.267 -0.0417339 0)
(45.3078 -0.0650344 7.36456e-25)
(45.361 -0.0653762 4.6279e-25)
(45.4317 -0.101836 8.37172e-25)
(45.5167 -0.0918956 0)
(45.7334 -0.159585 1.50709e-25)
(45.9251 -0.13186 8.25056e-24)
(45.8325 -0.2288 0)
(44.9636 -0.0658448 2.31424e-24)
(44.2555 -0.149838 9.53294e-25)
(41.8963 -0.242577 -3.59387e-24)
(43.5591 -0.32222 6.76783e-25)
(45.1596 -0.118636 -5.43857e-25)
(45.391 -0.206151 -1.23608e-25)
(45.2886 -0.124048 1.36385e-24)
(45.1204 -0.179626 -5.15038e-25)
(45.0418 -0.136827 -3.14861e-26)
(44.9556 -0.149057 -6.98001e-24)
(44.9028 -0.130056 2.45996e-24)
(44.8538 -0.118173 3.34152e-24)
(44.8265 -0.112391 -6.75138e-25)
(44.802 -0.0891073 -8.59405e-26)
(45.2277 -0.0219468 -3.07119e-26)
(45.2491 -0.0420674 -1.27003e-24)
(45.2785 -0.043503 -5.72628e-26)
(45.32 -0.0672152 0)
(45.376 -0.0666147 2.15721e-23)
(45.4477 -0.103539 0)
(45.5379 -0.092096 -1.29989e-23)
(45.7586 -0.159007 0)
(45.9458 -0.128712 7.13373e-24)
(45.8066 -0.212758 2.39453e-24)
(44.9184 -0.0521195 0)
(44.3402 -0.126641 7.7649e-25)
(41.9816 -0.227188 0)
(43.4931 -0.307959 5.38053e-25)
(45.1134 -0.103009 -1.56855e-25)
(45.3806 -0.184986 0)
(45.2874 -0.0995876 0)
(45.1187 -0.160539 -3.97249e-25)
(45.0357 -0.116926 5.85598e-25)
(44.9486 -0.134851 0)
(44.8934 -0.116074 0)
(44.8443 -0.109106 2.09323e-24)
(44.8156 -0.103812 3.15623e-25)
(44.792 -0.0854348 -1.86761e-24)
(45.2376 -0.0240626 2.61312e-26)
(45.2591 -0.0441747 4.19634e-26)
(45.2899 -0.0452155 0)
(45.3319 -0.0689607 -1.96321e-25)
(45.3908 -0.0676522 1.03998e-23)
(45.4629 -0.104407 3.01762e-25)
(45.5585 -0.0923245 -1.23651e-23)
(45.7812 -0.15743 -1.29982e-25)
(45.9604 -0.125 0)
(45.7745 -0.195512 3.09711e-24)
(44.8713 -0.0389157 0)
(44.4225 -0.104618 0)
(42.0714 -0.211738 0)
(43.4295 -0.296326 3.94985e-24)
(45.0634 -0.0900793 3.21373e-24)
(45.367 -0.166296 0)
(45.2859 -0.0774271 -2.06468e-25)
(45.1192 -0.142575 0)
(45.0316 -0.098564 0)
(44.9442 -0.121332 0)
(44.8862 -0.102618 0)
(44.8372 -0.100104 -1.12756e-24)
(44.807 -0.0950303 -1.14638e-24)
(44.7843 -0.0811085 4.355e-30)
(45.2474 -0.0265387 0)
(45.2689 -0.046324 5.54464e-25)
(45.3011 -0.0470542 -5.96231e-25)
(45.3434 -0.0704328 1.17584e-24)
(45.4052 -0.068758 9.97568e-24)
(45.4775 -0.104689 1.99468e-23)
(45.5785 -0.0928693 0)
(45.801 -0.155134 0)
(45.9686 -0.12083 7.42647e-25)
(45.7372 -0.177396 -1.14367e-24)
(44.8234 -0.0263674 -1.37501e-31)
(44.5028 -0.0837224 5.19124e-24)
(42.1658 -0.195498 2.73582e-24)
(43.3686 -0.286386 3.33076e-24)
(45.0099 -0.079396 7.39533e-26)
(45.3499 -0.149988 0)
(45.2837 -0.0572126 -3.19127e-24)
(45.1218 -0.125439 -2.83361e-24)
(45.0292 -0.0814867 0)
(44.942 -0.10828 -2.65018e-24)
(44.881 -0.0896254 -3.05579e-39)
(44.8322 -0.0910575 3.1411e-24)
(44.8004 -0.0860561 2.03461e-24)
(44.7786 -0.0761053 1.5613e-24)
(45.2569 -0.0294525 -1.09459e-24)
(45.2782 -0.0486067 5.20481e-25)
(45.312 -0.0491625 -5.63926e-25)
(45.3543 -0.0717666 2.2661e-24)
(45.4193 -0.0701351 9.68312e-24)
(45.4915 -0.104571 3.72752e-23)
(45.5978 -0.0939174 0)
(45.8176 -0.152251 0)
(45.9703 -0.116231 6.68687e-25)
(45.6951 -0.158589 0)
(44.7754 -0.014485 0)
(44.5806 -0.0639041 0)
(42.2654 -0.178304 0)
(43.3115 -0.27774 -2.79765e-24)
(44.9528 -0.0706398 -2.05379e-24)
(45.3289 -0.135773 -2.591e-24)
(45.2802 -0.0387115 -4.94742e-24)
(45.1261 -0.108918 -2.30515e-24)
(45.0284 -0.0655382 0)
(44.9416 -0.0955261 -8.29474e-25)
(44.8774 -0.0770411 0)
(44.829 -0.0818657 0)
(44.7956 -0.0768824 8.82438e-25)
(44.7745 -0.0704024 8.9114e-26)
(45.266 -0.0328555 -1.04999e-24)
(45.2872 -0.0510913 -5.63809e-25)
(45.3225 -0.0516455 1.03718e-26)
(45.3648 -0.0730569 5.38441e-26)
(45.4328 -0.071904 -2.73937e-32)
(45.505 -0.104175 1.74965e-23)
(45.6165 -0.0955114 0)
(45.8305 -0.148786 -5.81379e-25)
(45.9655 -0.111186 7.57584e-25)
(45.6489 -0.139254 9.97397e-25)
(44.7283 -0.00332074 1.50648e-24)
(44.6553 -0.0452238 3.62477e-24)
(42.3702 -0.160141 8.67317e-25)
(43.2592 -0.270038 0)
(44.8927 -0.0635742 0)
(45.3041 -0.123448 -4.06056e-26)
(45.2747 -0.0218412 2.00856e-24)
(45.1319 -0.0928981 7.05203e-30)
(45.029 -0.0506292 -1.87552e-24)
(44.9428 -0.0829518 0)
(44.8752 -0.0648253 0)
(44.8273 -0.0724583 4.82e-25)
(44.7921 -0.0675057 0)
(44.7719 -0.0639881 0)
(45.2747 -0.0367648 0)
(45.2956 -0.0538089 -1.04061e-24)
(45.3324 -0.0545538 -5.19737e-25)
(45.3748 -0.0743555 -1.05947e-24)
(45.4458 -0.0741296 0)
(45.518 -0.103551 0)
(45.6342 -0.0975634 0)
(45.8392 -0.144681 -9.79472e-25)
(45.9541 -0.105653 0)
(45.5992 -0.119546 -1.0815e-25)
(44.6825 0.00704357 5.74834e-25)
(44.7258 -0.0278189 1.46707e-24)
(42.48 -0.141046 6.62726e-25)
(43.213 -0.262888 3.90149e-24)
(44.8303 -0.0580247 1.30852e-24)
(45.2752 -0.112889 0)
(45.2666 -0.00665469 -1.60501e-24)
(45.1389 -0.0773714 -1.2081e-24)
(45.0309 -0.0367362 0)
(44.9454 -0.0704989 0)
(44.8743 -0.0529717 0)
(44.827 -0.062796 4.21284e-25)
(44.79 -0.0579391 0)
(44.7706 -0.0568745 0)
(45.2827 -0.0411477 8.64331e-27)
(45.3035 -0.0567526 -9.81323e-25)
(45.3417 -0.0578775 -1.39449e-26)
(45.3842 -0.0756792 0)
(45.4582 -0.0767856 -5.39975e-25)
(45.5304 -0.102649 -2.92225e-25)
(45.6508 -0.099903 0)
(45.8435 -0.139825 -4.65713e-25)
(45.9362 -0.0995748 5.34301e-25)
(45.5469 -0.0996712 7.23399e-25)
(44.6389 0.0164471 -1.08928e-25)
(44.7916 -0.0119351 1.11642e-24)
(42.5944 -0.121128 9.78392e-25)
(43.1739 -0.255822 5.63802e-26)
(44.7662 -0.0538029 -2.86354e-26)
(45.2423 -0.103989 1.37586e-24)
(45.2554 0.00668632 1.54231e-26)
(45.1468 -0.0624512 -4.5183e-26)
(45.0337 -0.0239199 0)
(44.949 -0.0581906 -4.36752e-25)
(44.8744 -0.0415151 -9.26148e-25)
(44.8276 -0.0528859 0)
(44.7889 -0.0482232 7.02256e-25)
(44.7702 -0.049103 -4.7422e-25)
(45.2899 -0.0459179 0)
(45.3108 -0.0598687 -5.00553e-25)
(45.3503 -0.0615546 1.74264e-26)
(45.3932 -0.0770112 1.71507e-28)
(45.4698 -0.0797293 0)
(45.5424 -0.101403 7.48761e-24)
(45.666 -0.102292 -1.63011e-24)
(45.8432 -0.134062 -2.60034e-25)
(45.9124 -0.0928694 -4.28952e-25)
(45.4928 -0.0798269 -5.07668e-25)
(44.5982 0.0247361 1.95967e-26)
(44.8516 0.00216134 1.49957e-24)
(42.7121 -0.100544 3.51722e-25)
(43.1426 -0.248376 5.04353e-26)
(44.7013 -0.0507664 -8.65885e-25)
(45.2061 -0.0966762 -1.06292e-24)
(45.2409 0.0179418 1.46805e-26)
(45.1552 -0.0483291 -3.165e-26)
(45.0372 -0.0122896 0)
(44.9534 -0.0460929 -1.86326e-25)
(44.8754 -0.0305305 -7.20533e-25)
(44.8291 -0.0427773 0)
(44.7887 -0.0384339 2.82572e-25)
(44.7705 -0.0407515 -3.90918e-25)
(45.2965 -0.0509348 -4.79428e-25)
(45.3177 -0.0630615 4.85856e-25)
(45.3582 -0.0654626 -9.65002e-25)
(45.4018 -0.0782486 3.66541e-27)
(45.4804 -0.0827378 -4.57075e-25)
(45.5536 -0.0996065 6.77082e-24)
(45.6791 -0.104092 -9.60798e-25)
(45.8372 -0.126872 -2.16228e-25)
(45.8819 -0.0853705 -3.70073e-25)
(45.4371 -0.0606584 -4.86346e-25)
(44.561 0.0310746 3.31872e-25)
(44.9059 0.0133388 -1.3338e-25)
(42.8336 -0.0795049 -2.75296e-25)
(43.1208 -0.238975 0)
(44.6359 -0.0481255 -8.68654e-25)
(45.1661 -0.0908174 -7.67361e-25)
(45.2216 0.0265287 1.44181e-26)
(45.1636 -0.0355818 0)
(45.041 -0.0021162 5.35609e-26)
(44.9583 -0.0343827 4.93494e-26)
(44.8769 -0.0201523 -5.27018e-25)
(44.8312 -0.0325613 -5.7779e-26)
(44.7891 -0.0286779 1.72849e-25)
(44.7715 -0.0319251 0)
(45.3018 -0.0559268 -4.29738e-25)
(45.3236 -0.0661527 4.43548e-25)
(45.3648 -0.0694145 -4.33583e-25)
(45.4091 -0.0793336 0)
(45.4893 -0.0857616 0)
(45.5635 -0.0974556 -1.57414e-24)
(45.6903 -0.105555 5.13182e-25)
(45.829 -0.11874 -9.21601e-25)
(45.8509 -0.0770496 -6.09102e-25)
(45.3864 -0.0416708 -1.93468e-25)
(44.5295 0.0365504 -5.11342e-25)
(44.9505 0.0225865 0)
(42.9457 -0.058229 0)
(43.1068 -0.228893 0)
(44.5762 -0.0469012 0)
(45.1283 -0.0865642 1.24231e-25)
(45.2018 0.0325786 0)
(45.1719 -0.0239242 0)
(45.0447 0.0066069 5.88611e-26)
(44.9631 -0.0230601 0)
(44.8786 -0.0105445 0)
(44.8335 -0.0223427 0)
(44.7899 -0.0191519 1.69249e-25)
(44.7726 -0.0227803 0)
(45.3077 -0.060817 0)
(45.3314 -0.0691123 -1.97132e-26)
(45.3725 -0.0733046 -2.2916e-26)
(45.4188 -0.0800917 -5.10113e-27)
(45.499 -0.0882401 -1.44239e-25)
(45.5743 -0.0937536 -2.43563e-24)
(45.6982 -0.102115 -1.25807e-24)
(45.8061 -0.10398 1.55608e-29)
(45.7984 -0.0655147 -3.27155e-32)
(45.319 -0.0277461 6.30386e-30)
(44.4972 0.0312297 -3.36091e-24)
(44.9998 0.0161429 0)
(43.0916 -0.0357081 9.77797e-25)
(43.109 -0.199823 5.90486e-24)
(44.501 -0.0388417 -2.17289e-24)
(45.0744 -0.0846569 2.44374e-25)
(45.1636 0.0306553 0)
(45.1797 -0.0181056 0)
(45.0465 0.012818 0)
(44.97 -0.0126674 0)
(44.8806 -0.00186777 0)
(44.8373 -0.0122279 0)
(44.7914 -0.00990572 7.58282e-26)
(44.7744 -0.0133955 0)
(48.6753 -4.04558 9.08311e-25)
(49.6611 6.0282 3.36095e-24)
(45.0347 6.45625 1.61325e-23)
(50.3549 -1.14421 -1.57978e-24)
(52.148 2.22508 -7.12149e-25)
(50.1554 5.64568 -2.83157e-24)
(49.5407 1.69765 -7.69264e-25)
(51.4225 -1.89962 -6.90416e-24)
(52.2434 1.66898 -1.90723e-24)
(47.3141 2.93342 -3.2157e-24)
(48.783 -4.33662 1.16877e-23)
(51.1443 -2.31269 0)
(44.951 2.64531 3.11046e-28)
(45.3886 -4.89848 -6.43663e-24)
(48.3746 -4.5288 5.05648e-24)
(43.257 1.2209 0)
(39.2139 -0.560409 -1.16608e-24)
(34.8775 -1.35558 3.80863e-24)
(42.6103 -3.29391 4.19209e-23)
(44.9599 -4.80627 -9.66557e-24)
(44.6022 -4.55513 6.96325e-24)
(41.027 -0.273718 1.90758e-24)
(44.4154 6.07347 2.21198e-23)
(43.025 2.78091 4.58597e-23)
(47.1097 -2.03905 -5.37482e-24)
(48.4443 -3.61018 2.64493e-25)
(45.4575 -4.28565 -9.73096e-24)
(47.1903 10.6038 0)
(41.8459 9.68597 -1.27306e-23)
(49.4939 5.53246 0)
(48.15 3.1974 4.56595e-25)
(46.5395 3.47138 -6.06645e-23)
(48.0386 -0.789385 5.76981e-24)
(50.0557 -1.05158 -1.46548e-24)
(48.7651 -3.33153 3.01891e-25)
(49.8259 -2.68788 -2.74055e-25)
(50.6924 -3.09329 2.51683e-25)
(50.1832 -4.98036 -2.83944e-25)
(51.1726 5.03014 2.58677e-24)
(50.4052 7.67682 1.09625e-24)
(51.8895 2.10139 2.92143e-25)
(49.6339 1.51267 -1.69592e-23)
(48.6317 2.88327 6.95035e-24)
(47.9446 0.567132 1.1849e-23)
(49.4415 1.45152 6.80692e-25)
(50.1014 -0.689251 -6.45096e-27)
(50.233 0.426021 9.98806e-29)
(49.7009 1.16796 -1.53031e-24)
(50.4754 -0.760666 -2.82206e-26)
(49.4841 -1.7797 9.53334e-26)
(50.8295 1.51953 -2.13959e-24)
(51.336 -1.77977 -7.92653e-24)
(49.7151 -0.592474 1.72465e-24)
(49.7902 0.974156 -1.76135e-23)
(47.1456 1.33339 -1.20085e-23)
(47.4384 2.60342 8.94451e-25)
(49.2353 1.68708 0)
(48.5069 2.51667 0)
(46.2163 3.8956 -5.32698e-25)
(47.8986 3.08018 -6.18889e-26)
(44.8107 -5.21232 -2.15547e-25)
(46.9238 -3.79257 1.98931e-24)
(48.9378 -4.02286 5.56099e-28)
(48.6704 -2.09596 3.7086e-23)
(49.5336 -1.0508 2.92207e-23)
(41.7324 -6.63635 -9.18737e-25)
(43.4261 -6.19373 -9.8177e-26)
(45.8197 -4.44901 5.03043e-24)
(47.1884 -2.62499 0)
(48.3118 -2.32234 0)
(38.3231 -5.41952 1.0365e-24)
(39.6504 -6.39736 0)
(42.7853 0.235075 0)
(42.3085 -0.573726 9.40231e-24)
(39.5799 -0.643119 8.91685e-28)
(39.4407 -0.962838 9.40783e-24)
(41.4233 -1.85496 0)
(42.3941 -3.03473 0)
(50.0402 -5.25304 2.14616e-25)
(48.1692 -7.01776 1.35721e-24)
(47.3692 -4.77584 8.52453e-24)
(48.2902 -7.4362 3.59486e-25)
(50.0622 -5.42177 9.6079e-25)
(43.3701 -7.88564 1.5672e-23)
(47.8703 -7.71903 1.79684e-24)
(50.2974 7.85509 -1.39302e-25)
(47.5265 10.4314 -1.51198e-25)
(47.8457 6.86601 -2.53993e-24)
(47.7866 9.8402 -2.72178e-25)
(50.3433 7.69117 7.89601e-26)
(50.5258 -1.02602 2.15774e-25)
(50.6971 -2.827 0)
(50.0159 -2.31248 3.7759e-25)
(50.1055 -2.90137 1.02648e-26)
(49.2559 -0.815505 9.51246e-28)
(50.1765 -5.11911 -4.69651e-25)
(50.1481 -3.03844 1.07503e-26)
(50.8523 1.78 -3.05733e-24)
(51.1772 4.8422 5.75998e-24)
(51.573 3.81489 -3.37535e-25)
(51.1594 4.63241 -7.75549e-25)
(50.8277 2.17074 1.41945e-24)
(50.4376 7.51748 1.00357e-24)
(51.1542 4.82514 2.84792e-24)
(51.2924 4.3077 -4.62147e-25)
(48.1075 2.95033 0)
(49.5241 1.42984 -1.28942e-24)
(50.1045 0.785364 2.41683e-25)
(47.8847 1.7013 -1.03997e-25)
(46.83 3.15542 1.19969e-26)