/*--------------------------------*- C++ -*----------------------------------*\
| =========                 |                                                 |
| \\      /  F ield         | OpenFOAM: The Open Source CFD Toolbox           |
|  \\    /   O peration     | Version:  5.x                                   |
|   \\  /    A nd           | Web:      www.OpenFOAM.org                      |
|    \\/     M anipulation  |                                                 |
\*---------------------------------------------------------------------------*/
FoamFile
{
    version     2.0;
    format      ascii;
    class       volScalarField;
    location    "100";
    object      xf;
}
// * * * * * * * * * * * * * * * * * * * * * * * * * * * * * * * * * * * * * //

dimensions      [0 0 0 0 0 0 0];

internalField   nonuniform List<scalar> 
6584
(
0.0538899
0.0538899
0.0538899
0.0538899
0.0538899
0.0538899
0.0538899
0.0538899
0.0538899
0.0538899
0.0538899
0.0538899
0.0538899
0.0538899
0.0538899
0.0538899
0.0538899
0.0538899
0.0538899
0.0538899
0.0538899
0.0538899
0.0538899
0.0538899
0.0538886
0.0538886
0.0538886
0.0538886
0.0538886
0.0538886
0.0538886
0.0538886
0.0538886
0.0538886
0.0538886
0.0538886
0.0538886
0.0538886
0.0538886
0.0538886
0.0538886
0.0538886
0.0538886
0.0538886
0.0538886
0.0538886
0.0538886
0.0538886
0.0538873
0.0538873
0.0538873
0.0538873
0.0538873
0.0538873
0.0538873
0.0538873
0.0538873
0.0538879
0.0538879
0.0538879
0.0538879
0.0538879
0.0538879
0.0538873
0.0538873
0.0538873
0.0538873
0.0538873
0.0538873
0.0538873
0.0538873
0.0538873
0.053886
0.053886
0.053886
0.053886
0.053886
0.053886
0.053886
0.053886
0.053886
0.0538866
0.0538866
0.0538866
0.0538866
0.0538866
0.0538866
0.0538866
0.053886
0.053886
0.053886
0.053886
0.053886
0.053886
0.053886
0.053886
0.0538847
0.0538847
0.0538847
0.0538847
0.0538847
0.0538847
0.0538847
0.0538847
0.0538853
0.0538853
0.0538853
0.0538853
0.0538853
0.0538853
0.0538853
0.0538853
0.0538853
0.0538847
0.0538847
0.0538847
0.0538847
0.0538847
0.0538847
0.0538847
0.0538834
0.0538834
0.0538834
0.0538834
0.0538834
0.0538834
0.0538834
0.053884
0.053884
0.053884
0.0538843
0.0538843
0.0538843
0.0538843
0.053884
0.053884
0.053884
0.0538834
0.0538834
0.0538834
0.0538834
0.0538834
0.0538834
0.0538834
0.0538821
0.0538821
0.0538821
0.0538821
0.0538821
0.0538821
0.0538821
0.0538827
0.0538827
0.0538827
0.053883
0.0538831
0.0538831
0.053883
0.053883
0.0538827
0.0538827
0.0538821
0.0538821
0.0538821
0.0538821
0.0538821
0.0538821
0.0538821
0.0538808
0.0538808
0.0538808
0.0538808
0.0538808
0.0538808
0.0538808
0.0538814
0.0538814
0.0538814
0.0538817
0.0538817
0.0538817
0.0538817
0.0538814
0.0538815
0.0538808
0.0538808
0.0538808
0.0538808
0.0538808
0.0538808
0.0538808
0.0538795
0.0538795
0.0538795
0.0538795
0.0538795
0.0538795
0.0538795
0.0538801
0.0538802
0.0538802
0.0538804
0.0538805
0.0538805
0.0538805
0.0538802
0.0538802
0.0538795
0.0538795
0.0538795
0.0538795
0.0538795
0.0538795
0.0538795
0.0538782
0.0538782
0.0538782
0.0538782
0.0538782
0.0538782
0.0538782
0.0538789
0.0538789
0.0538789
0.0538792
0.0538793
0.0538793
0.0538792
0.0538789
0.0538789
0.0538783
0.0538782
0.0538782
0.0538782
0.0538782
0.0538782
0.0538782
0.0538769
0.0538769
0.0538769
0.0538769
0.0538769
0.0538769
0.053877
0.0538776
0.0538776
0.0538777
0.053878
0.0538781
0.0538781
0.053878
0.0538777
0.0538777
0.053877
0.0538769
0.0538769
0.0538769
0.0538769
0.0538769
0.0538769
0.0538756
0.0538756
0.0538756
0.0538756
0.0538756
0.0538756
0.0538757
0.0538763
0.0538763
0.0538764
0.0538767
0.0538768
0.0538769
0.0538768
0.0538765
0.0538764
0.0538757
0.0538757
0.0538756
0.0538756
0.0538756
0.0538756
0.0538756
0.0538743
0.0538743
0.0538743
0.0538743
0.0538743
0.0538743
0.0538744
0.053875
0.0538751
0.0538751
0.0538754
0.0538755
0.0538756
0.0538755
0.0538752
0.0538751
0.0538745
0.0538744
0.0538743
0.0538743
0.0538743
0.0538743
0.0538743
0.053873
0.053873
0.053873
0.053873
0.053873
0.053873
0.0538731
0.0538731
0.0538738
0.0538738
0.0538741
0.0538741
0.0487689
0.053874
0.0538742
0.0538739
0.0538739
0.0538732
0.0538731
0.0538731
0.053873
0.053873
0.053873
0.053873
0.0538717
0.0538717
0.0538717
0.0538717
0.0538717
0.0538718
0.0538718
0.0538718
0.0538725
0.0538725
0.0538728
0.0538725
0.0523346
0.0538726
0.0538726
0.0538726
0.0538719
0.0538719
0.0538718
0.0538718
0.0538717
0.0538717
0.0538717
0.0538717
0.0538704
0.0538704
0.0538704
0.0538704
0.0538704
0.0538705
0.0538705
0.0538705
0.0538712
0.0538712
0.0538711
0.0538712
0.0523846
0.053871
0.0538712
0.0538713
0.0538706
0.0538706
0.0538705
0.0538705
0.0538704
0.0538704
0.0538704
0.0538704
0.0538691
0.0538691
0.0538691
0.0538691
0.0538691
0.0538692
0.0538692
0.0538692
0.0538692
0.0538699
0.0538698
0.0538655
0.0530779
0.0538696
0.0538699
0.05387
0.0538693
0.0538693
0.0538692
0.0538692
0.0538691
0.0538691
0.0538691
0.0538691
0.0538678
0.0538678
0.0538678
0.0538678
0.0538678
0.0538679
0.0538679
0.0538679
0.0538679
0.0538679
0.0538685
0.0538609
0.0530822
0.0538682
0.053868
0.053868
0.053868
0.053868
0.0538679
0.0538679
0.0538678
0.0538678
0.0538678
0.0538678
0.0538665
0.0538665
0.0538665
0.0538665
0.0538665
0.0538666
0.0538666
0.0538666
0.0538666
0.0538666
0.053866
0.0535911
0.0534702
0.0538663
0.0538667
0.0538667
0.0538667
0.0538667
0.0538666
0.0538666
0.0538665
0.0538665
0.0538665
0.0538664
0.0538652
0.0538652
0.0538652
0.0538652
0.0538652
0.0538653
0.0538653
0.0538653
0.0538654
0.0538653
0.0538644
0.0535896
0.0534698
0.053865
0.0538654
0.0538654
0.0538654
0.0538654
0.0538653
0.0538653
0.0538652
0.0538652
0.0538652
0.0538651
0.0538639
0.0538639
0.0538639
0.0538639
0.0538639
0.053864
0.053864
0.053864
0.0538641
0.053864
0.0538628
0.0535881
0.0534693
0.0538636
0.053864
0.0538641
0.0538641
0.0538641
0.053864
0.0538639
0.0538639
0.0538639
0.0538639
0.0538638
0.0538626
0.0538626
0.0538626
0.0538626
0.0538627
0.0538627
0.0538627
0.0538627
0.0538628
0.0538627
0.0538613
0.0535866
0.0534685
0.0538621
0.0538627
0.0538628
0.0538628
0.0538628
0.0538627
0.0538626
0.0538626
0.0538626
0.0538625
0.0538625
0.0538613
0.0538613
0.0538613
0.0538613
0.0538614
0.0538614
0.0538614
0.0538614
0.0538615
0.0538614
0.0538598
0.0535852
0.0534677
0.0538607
0.0538614
0.0538615
0.0538614
0.0538615
0.0538614
0.0538613
0.0538613
0.0538613
0.0538612
0.0538612
0.05386
0.05386
0.05386
0.05386
0.0538601
0.0538601
0.0538601
0.0538601
0.0538602
0.0538601
0.0538584
0.0535837
0.0534668
0.0538592
0.0538601
0.0538602
0.0538601
0.0538602
0.0538601
0.05386
0.05386
0.05386
0.0538599
0.0538599
0.0538587
0.0538587
0.0538587
0.0538587
0.0538588
0.0538588
0.0538589
0.0538588
0.0538589
0.0538588
0.053857
0.0535823
0.0534657
0.0538577
0.0538587
0.0538588
0.0538588
0.0538589
0.0538588
0.0538587
0.0538587
0.0538586
0.0538586
0.0538586
0.0538574
0.0538574
0.0538574
0.0538574
0.0538575
0.0538575
0.0538576
0.0538575
0.0538576
0.0538575
0.0538556
0.0535809
0.0534647
0.0538563
0.0538574
0.0538575
0.0538575
0.0538576
0.0538575
0.0538574
0.0538574
0.0538573
0.0538573
0.0538573
0.0538561
0.0538561
0.0538561
0.0538561
0.0538562
0.0538562
0.0538563
0.0538563
0.0538563
0.0538562
0.0538542
0.0535793
0.0534637
0.0538549
0.0538561
0.0538562
0.0538562
0.0538563
0.0538562
0.0538561
0.0538561
0.053856
0.053856
0.053856
0.0538548
0.0538548
0.0538548
0.0538548
0.0538549
0.0538549
0.053855
0.053855
0.053855
0.0538548
0.0538527
0.0535778
0.0534626
0.0538535
0.0538548
0.0538549
0.0538549
0.053855
0.0538549
0.0538548
0.0538548
0.0538547
0.0538547
0.0538547
0.0538535
0.0538535
0.0538535
0.0538535
0.0538536
0.0538536
0.0538537
0.0538537
0.0538537
0.0538535
0.0538513
0.0535763
0.0534615
0.0538521
0.0538535
0.0538536
0.0538536
0.0538537
0.0538536
0.0538535
0.0538535
0.0538534
0.0538534
0.0538534
0.0538522
0.0538522
0.0538522
0.0538522
0.0538523
0.0538523
0.0538524
0.0538524
0.0538524
0.0538522
0.0538499
0.0535748
0.0534603
0.0538507
0.0538522
0.0538523
0.0538523
0.0538524
0.0538523
0.0538522
0.0538522
0.0538521
0.0538521
0.0538521
0.0538509
0.0538509
0.0538509
0.0538509
0.053851
0.053851
0.0538511
0.0538511
0.0538511
0.0538509
0.0538486
0.0535734
0.0534591
0.0538493
0.0538508
0.053851
0.053851
0.0538511
0.053851
0.0538509
0.0538509
0.0538508
0.0538508
0.0538508
0.0538496
0.0538496
0.0538496
0.0538496
0.0538497
0.0538497
0.0538498
0.0538498
0.0538498
0.0538496
0.0538472
0.0535719
0.0534579
0.0538478
0.0538495
0.0538497
0.0538497
0.0538498
0.0538497
0.0538496
0.0538496
0.0538495
0.0538495
0.0538495
0.0538483
0.0538483
0.0538483
0.0538483
0.0538484
0.0538484
0.0538485
0.0538485
0.0538485
0.0538483
0.0538458
0.0535704
0.0534566
0.0538464
0.0538482
0.0538484
0.0538484
0.0538485
0.0538484
0.0538483
0.0538482
0.0538482
0.0538482
0.0538482
0.053847
0.053847
0.053847
0.053847
0.0538471
0.0538471
0.0538472
0.0538472
0.0538472
0.053847
0.0538445
0.053569
0.0534554
0.053845
0.0538469
0.0538471
0.0538471
0.0538472
0.0538471
0.053847
0.0538469
0.0538469
0.0538469
0.0538468
0.0538457
0.0538457
0.0538457
0.0538457
0.0538458
0.0538458
0.0538459
0.0538459
0.0538459
0.0538457
0.0538431
0.0535675
0.0534541
0.0538436
0.0538456
0.0538457
0.0538458
0.0538459
0.0538458
0.0538457
0.0538456
0.0538456
0.0538456
0.0538455
0.0538444
0.0538444
0.0538444
0.0538444
0.0538445
0.0538445
0.0538446
0.0538446
0.0538446
0.0538444
0.0538417
0.053566
0.0534527
0.0538422
0.0538443
0.0538444
0.0538445
0.0538446
0.0538445
0.0538444
0.0538443
0.0538443
0.0538443
0.0538442
0.0538806
0.0538806
0.0538817
0.0538794
0.0538794
0.0538804
0.0538782
0.0538782
0.0538793
0.053877
0.053877
0.0538781
0.0538757
0.0538758
0.0538769
0.0538743
0.0514792
0.0486598
0.0538744
0.0538756
0.0538819
0.0538831
0.0538819
0.0538831
0.0538807
0.0538806
0.0538818
0.0538811
0.0538817
0.0538806
0.0538807
0.0538817
0.0538795
0.0538794
0.0538805
0.05388
0.0538799
0.0538804
0.0538797
0.0538803
0.0538794
0.0538795
0.0538804
0.0538783
0.0538782
0.0538793
0.0538788
0.0538787
0.0538792
0.0538767
0.0538787
0.0538783
0.0538783
0.0538792
0.053877
0.053877
0.0538781
0.0538776
0.0538775
0.053878
0.0538654
0.0538708
0.053877
0.0538771
0.053878
0.0538535
0.0538644
0.0538758
0.0538759
0.0538768
0.0538482
0.0538509
0.0538729
0.0521986
0.0514177
0.0511378
0.0538727
0.0538742
0.0538805
0.0538811
0.0538811
0.053881
0.0538805
0.0538817
0.0538811
0.0538804
0.053881
0.0538811
0.053881
0.0538804
0.0538793
0.0538798
0.0538799
0.0538798
0.0538792
0.0538804
0.0538799
0.0538788
0.0538797
0.0538798
0.0538797
0.0538791
0.0538804
0.0538798
0.05388
0.0538781
0.0538786
0.0538787
0.0538786
0.053878
0.0538792
0.0538786
0.0538715
0.0538765
0.0538787
0.0538784
0.0538773
0.0538791
0.0538784
0.0538788
0.0538773
0.0538768
0.053878
0.0538774
0.0538645
0.0538657
0.0538775
0.0538746
0.053875
0.0538771
0.0538746
0.0538776
0.053876
0.0538754
0.0538767
0.0538761
0.0538512
0.0538533
0.0538749
0.0538739
0.0538764
0.0538745
0.0538711
0.0538753
0.0538746
0.053837
0.0538478
0.0538812
0.0538811
0.0538817
0.0538813
0.0538816
0.0538758
0.0538757
0.0538768
0.0538763
0.0538762
0.0538767
0.0537186
0.0537164
0.0538744
0.0538746
0.0538755
0.0538817
0.0538813
0.0538817
0.0538811
0.0538812
0.0538768
0.0538774
0.0538775
0.0537797
0.0537774
0.0537774
0.0537764
0.0537759
0.0537779
0.0537157
0.0537107
0.0538762
0.0538737
0.0538723
0.0537766
0.0537763
0.0538721
0.0538703
0.0538751
0.0538824
0.0538824
0.0538818
0.0538818
0.0538824
0.0538824
0.0538812
0.0538813
0.0538812
0.0538816
0.0538813
0.0538814
0.05388
0.0538801
0.0538781
0.0538781
0.053869
0.0538686
0.0538539
0.0537241
0.0538637
0.0537206
0.053719
0.0537319
0.053733
0.0538497
0.053881
0.0538808
0.0538807
0.053881
0.0538807
0.0538807
0.053881
0.0538813
0.0538814
0.0538813
0.053881
0.0538807
0.0538807
0.0538796
0.0538795
0.0538802
0.0538801
0.0538792
0.0538793
0.0538794
0.0538796
0.0538798
0.0538793
0.0538795
0.0538794
0.0538801
0.0538802
0.0538804
0.0538799
0.0538801
0.05388
0.0538783
0.0538783
0.0538789
0.0538789
0.0538719
0.053873
0.0538778
0.0538784
0.0538786
0.0538781
0.0538783
0.0538777
0.0538788
0.053879
0.0538792
0.0538787
0.0538789
0.0538788
0.0537826
0.0538771
0.0538015
0.053804
0.0538018
0.0538
0.053877
0.0538777
0.0538069
0.0538776
0.0538653
0.0538652
0.0538758
0.0538778
0.053878
0.0538775
0.0538777
0.0538758
0.0537775
0.0537772
0.0538764
0.0538008
0.0538003
0.0538005
0.0538004
0.0538763
0.053777
0.0537779
0.0538521
0.0537286
0.0537316
0.0537239
0.0537277
0.0538524
0.0537088
0.0537654
0.0537641
0.0534768
0.0537763
0.0537657
0.052287
0.0537137
0.0537206
0.0538815
0.0538745
0.0538743
0.0538755
0.053875
0.0538748
0.0538753
0.0509542
0.0537973
0.0538135
0.0538816
0.0538755
0.0538761
0.0538762
0.0536995
0.0536976
0.0518101
0.0537555
0.0537513
0.0537001
0.0537015
0.0536697
0.0537109
0.0469625
0.053882
0.053882
0.0538817
0.0538817
0.053882
0.053882
0.0538801
0.0538802
0.05388
0.0538799
0.0538803
0.0538802
0.0538789
0.053879
0.0538788
0.0538793
0.0538791
0.053879
0.0538775
0.0538785
0.0538661
0.053868
0.0536464
0.0536383
0.0538493
0.0537332
0.0537402
0.0538661
0.0538648
0.052249
0.0538815
0.0538813
0.0538817
0.0538805
0.0538805
0.0538803
0.0538808
0.0538808
0.0538811
0.0538805
0.0538807
0.0538807
0.0538795
0.0538796
0.0538794
0.0538799
0.0538797
0.0538796
0.0538797
0.0538796
0.0538798
0.0538791
0.0538792
0.0538794
0.0538798
0.0538799
0.05388
0.053879
0.0538795
0.0538796
0.0538797
0.0538798
0.0538792
0.0538793
0.0538792
0.0538787
0.0538785
0.0538784
0.0538785
0.0538783
0.0538784
0.0538791
0.053879
0.0538791
0.0538785
0.0538786
0.0538787
0.0538711
0.0538751
0.0538782
0.0538785
0.0538786
0.053878
0.0538781
0.0538775
0.0538789
0.0538791
0.0538792
0.0538786
0.0538787
0.0538786
0.0538645
0.0537955
0.053799
0.053812
0.0538019
0.0538656
0.0538754
0.0538772
0.0538774
0.0538769
0.0538771
0.0538753
0.0538757
0.0537996
0.0538003
0.0538113
0.0538122
0.0538756
0.0537011
0.0537
0.053875
0.0538106
0.0538112
0.0537035
0.0537017
0.0536571
0.0536483
0.0538814
0.0538815
0.0538814
0.0536514
0.0537178
0.0536645
0.0536645
0.0536684
0.0537178
0.0538815
0.0538815
0.0538816
0.0538814
0.0538815
0.053774
0.0537769
0.0537061
0.0537011
0.0537766
0.0537162
0.0537183
0.0537168
0.0537154
0.0537762
0.0537733
0.0537747
0.0537138
0.0537124
0.0537769
0.0537199
0.0537185
0.0537006
0.0536994
0.0538811
0.0538811
0.0538813
0.053881
0.0538811
0.0538811
0.0538799
0.0538802
0.0538775
0.0538784
0.0538672
0.0538673
0.053732
0.0537775
0.0537764
0.0537779
0.053778
0.0537296
0.0537736
0.0537763
0.0537769
0.0537746
0.05372
0.0536728
0.0536754
0.0536672
0.0536707
0.0537198
0.0536324
0.0536464
0.0538808
0.0538809
0.0538807
0.053881
0.0538809
0.0538809
0.0538805
0.0538804
0.0538807
0.0538806
0.0538811
0.0538812
0.0538811
0.0538812
0.0538811
0.0538806
0.0538805
0.0538805
0.0538806
0.0538808
0.0538809
0.0538806
0.0538808
0.0538808
0.0538808
0.0538807
0.0538794
0.0538796
0.0538797
0.0538795
0.0538793
0.0538797
0.0538795
0.053879
0.0538788
0.0538793
0.0538791
0.0538794
0.0538793
0.0538794
0.0538802
0.0538801
0.0538804
0.0538803
0.0538799
0.0538798
0.0538801
0.0538799
0.05388
0.05388
0.0538801
0.053879
0.0538795
0.0538795
0.0538796
0.0538795
0.0538793
0.0538794
0.0538795
0.0538781
0.0538783
0.0538784
0.0538769
0.0538761
0.0538765
0.0538768
0.0538736
0.0538734
0.0538758
0.0538742
0.0538788
0.0538789
0.053879
0.0538785
0.0538782
0.0538788
0.0538785
0.0538775
0.0538769
0.0538781
0.0538778
0.0538788
0.0538787
0.0538788
0.0538701
0.0538746
0.0538783
0.0538784
0.0538781
0.0538775
0.0538782
0.0538783
0.0538789
0.053879
0.0538789
0.0538786
0.0538788
0.0538789
0.0537918
0.0538009
0.0538685
0.0538684
0.0538688
0.0538684
0.0537976
0.0538019
0.0538678
0.0538593
0.0538681
0.0538678
0.0538
0.0538727
0.0538702
0.0538737
0.0538734
0.0538171
0.0538702
0.0538694
0.0538697
0.05387
0.0538199
0.0537993
0.0537958
0.0538647
0.053776
0.0537865
0.0537769
0.0537734
0.053789
0.0538651
0.0537981
0.0537974
0.053776
0.0537142
0.0537196
0.0537182
0.0537127
0.053776
0.0537078
0.0537754
0.0537213
0.053776
0.0537264
0.0537786
0.0537781
0.0537788
0.0537785
0.0537257
0.0537084
0.053711
0.0537003
0.0536998
0.0537006
0.0537039
0.0536593
0.0536585
0.0538819
0.053882
0.053883
0.0538749
0.053872
0.0538683
0.0538818
0.0538818
0.0538816
0.0538816
0.0538818
0.0538818
0.0538824
0.0538824
0.0538818
0.0538805
0.0538803
0.0538802
0.0538798
0.0538797
0.0538797
0.0538769
0.0538786
0.0538781
0.0538778
0.0538778
0.0538596
0.0538568
0.0538699
0.0537986
0.0537963
0.0538639
0.0538807
0.0538808
0.0538806
0.0538804
0.0538806
0.0538806
0.0538809
0.0538808
0.0538809
0.0538803
0.0538803
0.0538804
0.0538789
0.0538796
0.0538796
0.0538797
0.0538791
0.0538792
0.0538791
0.0538798
0.0538799
0.0538799
0.0538783
0.0538784
0.0538782
0.0538772
0.0538774
0.0538781
0.053872
0.053864
0.0538623
0.0538764
0.0538784
0.0538785
0.0538785
0.053879
0.0538791
0.0538791
0.0538785
0.0538786
0.0538785
0.0538779
0.0538771
0.0538772
0.053876
0.0538779
0.0538779
0.0538745
0.0538766
0.0538768
0.0536536
0.0536524
0.0538099
0.0538105
0.0538749
0.0536558
0.0536547
0.0537402
0.053739
0.053846
0.0538813
0.0538813
0.0537771
0.0537597
0.0537627
0.0537786
0.0537745
0.0537541
0.0537568
0.0537549
0.0537552
0.0537778
0.0537
0.0536968
0.0537108
0.0537184
0.0537192
0.0537767
0.0538821
0.053882
0.0538817
0.0538812
0.0538812
0.0538812
0.0538812
0.053881
0.053881
0.0538813
0.0538815
0.0538814
0.05388
0.05388
0.05388
0.0538801
0.0538801
0.05388
0.0538778
0.0538782
0.0538511
0.0538506
0.053869
0.0538679
0.0538468
0.0538492
0.0537392
0.0537412
0.0537401
0.0537402
0.0537254
0.053743
0.0537452
0.0538638
0.0537967
0.0537981
0.0538809
0.0538807
0.0538807
0.0538807
0.053881
0.0538809
0.0538809
0.0538804
0.0538804
0.0538807
0.0538806
0.0538806
0.0538813
0.0538812
0.0538812
0.0538812
0.0538812
0.0538813
0.053881
0.0538809
0.0538809
0.0538801
0.0538802
0.0538803
0.0538803
0.0538803
0.0538792
0.0538794
0.0538801
0.0538802
0.0538802
0.0538799
0.05388
0.0538801
0.0538782
0.0538775
0.053878
0.0538711
0.0538736
0.0538788
0.0538789
0.0538788
0.0538787
0.0538788
0.0538788
0.0537857
0.0538029
0.0538295
0.0538284
0.0538266
0.0538252
0.0538009
0.0538762
0.0538769
0.0538778
0.0538346
0.0538316
0.053853
0.0538511
0.05381
0.0538299
0.0538282
0.0538289
0.0538265
0.0538777
0.0538778
0.0538758
0.0538753
0.0538776
0.0538776
0.0537988
0.053858
0.053858
0.0538585
0.0538581
0.0537981
0.0537297
0.05377
0.0537789
0.0537701
0.0537701
0.0537304
0.0537257
0.0537422
0.053741
0.0537064
0.0537021
0.053717
0.0536238
0.0536542
0.053653
0.0536659
0.0537763
0.053721
0.0537191
0.0537199
0.0537209
0.0537661
0.0535935
0.0535952
0.0536761
0.0536792
0.0537209
0.0538815
0.0538816
0.0538815
0.053698
0.0536969
0.0536594
0.0536199
0.0508653
0.0537022
0.0536929
0.053695
0.0536877
0.0536903
0.0537021
0.046937
0.0535168
0.0536536
0.0538819
0.0538818
0.0538816
0.0538798
0.0538798
0.0538798
0.0538803
0.0538803
0.0538803
0.0538802
0.0538802
0.0538772
0.0538785
0.0538211
0.0538251
0.0538177
0.053818
0.053869
0.0538541
0.0538516
0.0536451
0.0536201
0.0536199
0.0536304
0.0536266
0.0536432
0.0538804
0.0538804
0.0538805
0.0538803
0.0538804
0.0538804
0.0538789
0.0538796
0.0538795
0.0538795
0.0538792
0.0538792
0.0538793
0.053867
0.0538658
0.0538719
0.0538757
0.0538784
0.0538784
0.0538783
0.053879
0.053879
0.053879
0.0538785
0.0538786
0.0538787
0.0538093
0.0538231
0.0538209
0.0538211
0.0538225
0.0538062
0.0536514
0.0536506
0.05366
0.0536569
0.0537029
0.0536817
0.0536824
0.0536206
0.0536216
0.0536545
0.0536279
0.0536319
0.0536208
0.0536235
0.0536512
0.0538814
0.0538813
0.0538813
0.0538814
0.0538815
0.0538815
0.0538816
0.0538814
0.0538815
0.0538815
0.0536618
0.053685
0.0536848
0.0536876
0.0536861
0.0536611
0.0536777
0.0536838
0.0536817
0.0536851
0.0536852
0.053673
0.0538815
0.0538815
0.0538815
0.0538813
0.0538813
0.0538814
0.0538814
0.0537743
0.0537791
0.0537658
0.0537684
0.0537044
0.0537028
0.0537381
0.0537376
0.0537178
0.0537496
0.0537516
0.0537734
0.0537434
0.0537405
0.0537456
0.0537765
0.0537529
0.0537499
0.053696
0.0536978
0.0537149
0.0536859
0.0536881
0.0536821
0.0536837
0.0537112
0.0536946
0.0536938
0.0536998
0.0536825
0.0536851
0.0536774
0.0536801
0.0536991
0.0538811
0.0538811
0.0538811
0.053881
0.053881
0.0538811
0.05388
0.0538799
0.0538799
0.0538799
0.0538801
0.0538801
0.05388
0.0538801
0.0538776
0.0538783
0.0538341
0.0538375
0.053828
0.0538309
0.0538682
0.0538494
0.0538478
0.0538493
0.0538474
0.0538674
0.0538402
0.0537399
0.0537379
0.0537273
0.0537408
0.0537412
0.0537739
0.0537557
0.0537533
0.0537628
0.0537589
0.053775
0.0537771
0.0537567
0.0537564
0.0537526
0.053755
0.0537761
0.0537475
0.053668
0.0536891
0.0536887
0.053635
0.0536402
0.0538809
0.0538808
0.0538808
0.0538808
0.0538809
0.0538809
0.0538809
0.0538805
0.0538805
0.0538804
0.0538804
0.0538805
0.0538806
0.0538805
0.0538812
0.0538812
0.0538812
0.0538813
0.0538811
0.0538811
0.0538811
0.0538806
0.0538806
0.0538806
0.0538805
0.0538805
0.0538805
0.0538805
0.0538806
0.0538808
0.0538808
0.0538808
0.0538809
0.0538809
0.0538809
0.0538807
0.0538808
0.0538807
0.0538807
0.0538795
0.0538794
0.0538797
0.0538796
0.0538796
0.0538795
0.0538796
0.0538789
0.0538789
0.0538792
0.0538792
0.0538802
0.0538801
0.0538802
0.0538801
0.0538801
0.0538801
0.0538803
0.0538803
0.0538804
0.0538802
0.0538803
0.0538803
0.0538803
0.0538802
0.0538799
0.0538798
0.0538798
0.0538797
0.0538797
0.0538798
0.05388
0.05388
0.05388
0.0538799
0.0538799
0.05388
0.0538792
0.0538794
0.0538767
0.0538729
0.0538741
0.0538701
0.0538715
0.0538765
0.0538763
0.0538748
0.0538752
0.0538766
0.0538731
0.0538592
0.0538616
0.0538572
0.0538573
0.0538731
0.0538753
0.0538672
0.0538686
0.0538639
0.0538657
0.0538748
0.0538784
0.0538784
0.0538788
0.0538786
0.0538772
0.053877
0.053878
0.053878
0.0538705
0.0538741
0.0538789
0.0538789
0.053879
0.0538787
0.0538787
0.0538787
0.0537891
0.0538283
0.0538295
0.0538034
0.0537978
0.0538251
0.0538264
0.0538411
0.0538378
0.0538718
0.0538569
0.0538583
0.0538739
0.0538607
0.0538592
0.0538596
0.0538606
0.0538739
0.0538481
0.0538445
0.0538318
0.0538313
0.0538134
0.0538261
0.0538294
0.0537985
0.0538229
0.0538233
0.0538206
0.0538217
0.0537971
0.0537794
0.0537835
0.0537752
0.0537675
0.0537652
0.0537728
0.0537952
0.0538194
0.0538197
0.0538222
0.0538206
0.0537946
0.0537159
0.0537335
0.0537329
0.0537354
0.0537345
0.0537178
0.0537159
0.0537362
0.0537376
0.0537331
0.0537345
0.0537131
0.0537084
0.0537331
0.0537314
0.0537377
0.0537354
0.0537245
0.0537363
0.0537362
0.0537315
0.0537342
0.0537269
0.0537429
0.0537431
0.0537268
0.0537067
0.053714
0.0536509
0.0536512
0.0537021
0.0536797
0.0536766
0.0536828
0.0536824
0.0537034
0.0536648
0.0536634
0.0536052
0.0536114
0.0538847
0.0538847
0.0538853
0.0538846
0.0538846
0.0538853
0.0538846
0.0538846
0.0538853
0.0538846
0.0538847
0.0538853
0.0538834
0.0538833
0.053884
0.0538833
0.0538833
0.0538843
0.0538833
0.0538833
0.0538843
0.0538833
0.0538833
0.0538843
0.0538833
0.0538833
0.0538843
0.0538833
0.0538834
0.053884
0.0538821
0.053882
0.053883
0.053882
0.0538819
0.053883
0.0538826
0.0538826
0.0538831
0.0538825
0.0538825
0.0538831
0.0538826
0.0538826
0.053883
0.053882
0.0538821
0.0538827
0.0538808
0.0538808
0.0538817
0.0538814
0.0538814
0.0538817
0.0538816
0.0538816
0.0538817
0.0538812
0.0538813
0.0538818
0.0538808
0.0538808
0.0538814
0.0538795
0.0538795
0.0538804
0.0538801
0.0538801
0.0538804
0.0538803
0.0538803
0.0538805
0.05388
0.0538801
0.0538805
0.0538795
0.0538796
0.0538802
0.0538783
0.0538783
0.0538792
0.0538789
0.0538789
0.0538792
0.0538791
0.0538791
0.0538793
0.0538788
0.0538789
0.0538793
0.0538783
0.0538784
0.053879
0.053877
0.053877
0.053878
0.0538777
0.0538777
0.053878
0.0538779
0.0538779
0.0538781
0.0538777
0.0538777
0.0538781
0.0538771
0.0538771
0.0538778
0.0538758
0.0538758
0.0538767
0.0538767
0.0538767
0.0538768
0.0538764
0.0538764
0.0538769
0.0538759
0.0538759
0.0538765
0.0538745
0.0538745
0.0538754
0.0538751
0.0538752
0.0538755
0.0538746
0.0538746
0.0538753
0.0538732
0.0538731
0.0538738
0.0538731
0.053873
0.053874
0.0538736
0.0538729
0.0538736
0.0491164
0.0536009
0.053626
0.053873
0.0538732
0.0538742
0.0538732
0.0538733
0.053874
0.0538719
0.0538718
0.0538725
0.0538718
0.0538716
0.0538726
0.0538715
0.0528867
0.0528955
0.0523757
0.0538712
0.0538723
0.0538716
0.0538719
0.0538729
0.0538719
0.053872
0.0538727
0.0538705
0.0538704
0.053871
0.0538677
0.0533352
0.0528846
0.0530743
0.0538638
0.0538708
0.0538703
0.0538705
0.0538712
0.0538806
0.0538808
0.0538808
0.0538807
0.0538808
0.0538805
0.0538817
0.0538815
0.0538815
0.0538794
0.0538796
0.0538796
0.0538796
0.0538795
0.0538793
0.0538805
0.0538802
0.0538803
0.0538782
0.0538784
0.0538784
0.0538784
0.0538784
0.0538781
0.0538792
0.053879
0.0538791
0.053877
0.0538771
0.0538771
0.0538772
0.0538772
0.053877
0.0538781
0.0538778
0.0538779
0.0538759
0.0538759
0.0538757
0.0538768
0.0538766
0.0538767
0.0538738
0.0538747
0.0538748
0.0507246
0.05348
0.053442
0.0524191
0.0524234
0.0469296
0.0538755
0.0538754
0.0538754
0.0538818
0.0538824
0.0538824
0.0538817
0.0538817
0.0538816
0.0538831
0.0538826
0.0538825
0.0538816
0.0538817
0.0538821
0.053882
0.0538819
0.0538831
0.0538826
0.0538826
0.0538807
0.053881
0.053881
0.0538811
0.053881
0.0538807
0.0538817
0.0538813
0.0538813
0.0538811
0.0538811
0.053881
0.0538817
0.0538816
0.0538816
0.0538807
0.0538812
0.0538811
0.0538811
0.053881
0.0538807
0.0538817
0.0538814
0.0538814
0.0538795
0.0538798
0.0538798
0.0538799
0.0538798
0.0538795
0.0538804
0.0538801
0.05388
0.05388
0.0538802
0.0538802
0.05388
0.05388
0.0538799
0.0538805
0.0538804
0.0538804
0.0538803
0.0538803
0.0538803
0.0538795
0.0538799
0.0538799
0.0538798
0.0538798
0.0538795
0.0538804
0.0538801
0.0538801
0.0538783
0.0538786
0.0538786
0.0538787
0.0538786
0.0538783
0.0538792
0.0538789
0.0538788
0.0538788
0.053879
0.053879
0.0538788
0.0538788
0.0538787
0.0538792
0.0538792
0.0538791
0.0538783
0.0538787
0.0538787
0.0538786
0.0538786
0.0538784
0.0538792
0.0538789
0.0538789
0.0538771
0.0538774
0.0538773
0.0538775
0.0538774
0.0538771
0.053878
0.0538777
0.0538776
0.0538776
0.0538778
0.0538778
0.0538777
0.0538778
0.0538775
0.053878
0.053878
0.0538779
0.0538652
0.0538446
0.0538456
0.0538771
0.0538775
0.0538775
0.0538774
0.0538774
0.0538771
0.0538781
0.0538778
0.0538777
0.0538537
0.0537985
0.0537983
0.0538456
0.0538452
0.0538642
0.0538758
0.0538761
0.0538763
0.0538762
0.0538762
0.0538759
0.0538768
0.0538765
0.0538765
0.0538485
0.0538063
0.053806
0.0538081
0.0538078
0.0538505
0.0538724
0.0538727
0.0538732
0.0522329
0.0538643
0.053863
0.0537508
0.0537488
0.051278
0.0537974
0.0537972
0.0510112
0.053873
0.0538538
0.0538613
0.0538663
0.0538544
0.0538736
0.0538806
0.0538806
0.0538805
0.0538811
0.0538809
0.0538808
0.0538809
0.0538809
0.0538811
0.053881
0.0538809
0.0538811
0.0538816
0.0538816
0.0538817
0.0538811
0.0538812
0.0538812
0.0538804
0.0538804
0.0538804
0.053881
0.053881
0.053881
0.053881
0.0538809
0.0538809
0.0538809
0.0538809
0.053881
0.0538805
0.0538805
0.0538805
0.0538794
0.0538794
0.0538793
0.0538799
0.0538798
0.0538798
0.0538797
0.0538797
0.0538799
0.0538798
0.0538798
0.0538798
0.0538792
0.0538792
0.0538793
0.0538799
0.0538799
0.0538799
0.0538798
0.0538796
0.0538797
0.0538797
0.0538797
0.0538797
0.0538802
0.0538803
0.0538804
0.0538798
0.0538798
0.0538798
0.0538801
0.0538801
0.0538799
0.0538782
0.0538782
0.0538781
0.0538786
0.0538786
0.0538785
0.0538785
0.0538785
0.0538787
0.0538786
0.0538785
0.0538786
0.053878
0.053878
0.0538781
0.0538792
0.0538791
0.0538792
0.0538786
0.0538786
0.0538787
0.0538787
0.0538784
0.0538785
0.0538779
0.0538779
0.0538775
0.053879
0.0538789
0.0538787
0.0538772
0.0538754
0.0538756
0.0538756
0.0538757
0.0538768
0.053878
0.0538779
0.053878
0.0538757
0.053876
0.0538775
0.0538645
0.0538456
0.0538457
0.053847
0.053848
0.053866
0.0538775
0.0538772
0.0538773
0.0538745
0.0538773
0.0538773
0.0538768
0.0538769
0.0538751
0.0538767
0.0538778
0.0538778
0.0538774
0.0538775
0.053875
0.0538778
0.0538778
0.0538775
0.0538759
0.0538743
0.0538745
0.0538735
0.0538737
0.0538755
0.0538766
0.0538752
0.0538753
0.0538746
0.0538747
0.0538762
0.0538515
0.0538086
0.0538084
0.0537984
0.0537984
0.0538531
0.0538747
0.0538766
0.0538767
0.0538763
0.0538765
0.0538743
0.0538766
0.0538765
0.0538763
0.0538742
0.0538083
0.0538096
0.0537912
0.0538026
0.0538738
0.0538752
0.0538733
0.0538734
0.0538446
0.0537366
0.0537315
0.0538812
0.0538814
0.0538814
0.0538814
0.0538815
0.0538812
0.0538817
0.0538815
0.0538815
0.0538816
0.0538815
0.0538816
0.0538762
0.0538761
0.0538758
0.0538768
0.0538764
0.0538763
0.0538763
0.0538765
0.0538765
0.0538764
0.0538764
0.0538763
0.0538767
0.0538766
0.0538765
0.0537182
0.0537027
0.0537035
0.0536996
0.053701
0.0537171
0.0538745
0.0538748
0.0538749
0.0538816
0.0538816
0.0538817
0.0538813
0.0538814
0.0538814
0.0538814
0.0538815
0.0538818
0.0538812
0.0538814
0.0538813
0.0538814
0.0538814
0.0538812
0.0538771
0.0538772
0.0538769
0.0538775
0.0538772
0.0538771
0.0538773
0.0538773
0.0538775
0.0537772
0.0537567
0.0537569
0.0537555
0.0537551
0.0537761
0.0537153
0.0536981
0.0536985
0.0538762
0.053876
0.0538761
0.0538731
0.0538759
0.0538762
0.0538756
0.0538759
0.0538729
0.0537769
0.0537563
0.053756
0.0537558
0.0537558
0.0537763
0.0538713
0.0538753
0.0538754
0.0538749
0.0538751
0.0538711
0.0538752
0.0538752
0.053875
0.0538824
0.0538821
0.0538821
0.0538822
0.0538822
0.0538825
0.0538818
0.0538821
0.0538821
0.0538819
0.0538819
0.0538818
0.0538824
0.0538821
0.0538822
0.0538821
0.0538821
0.0538824
0.0538813
0.0538812
0.0538812
0.0538815
0.0538815
0.0538816
0.0538813
0.0538813
0.0538813
0.0538815
0.0538815
0.0538814
0.0537978
0.0537983
0.0538538
0.0538638
0.0538447
0.0538446
0.0537205
0.0537067
0.0537069
0.0537042
0.0537046
0.0537192
0.0537327
0.05377
0.0537701
0.0537698
0.0537699
0.0537327
0.0538501
0.0538075
0.0538072
0.0538808
0.0538809
0.0538809
0.0538807
0.0538806
0.0538807
0.053881
0.0538811
0.053881
0.0538813
0.0538813
0.0538813
0.0538813
0.0538813
0.0538814
0.0538806
0.0538806
0.0538806
0.0538808
0.0538807
0.0538807
0.0538795
0.0538796
0.0538796
0.0538795
0.0538794
0.0538795
0.0538802
0.0538802
0.0538802
0.0538801
0.0538801
0.0538801
0.0538795
0.0538795
0.0538795
0.0538797
0.0538796
0.0538796
0.0538798
0.0538797
0.0538797
0.0538794
0.0538793
0.0538793
0.0538795
0.0538794
0.0538794
0.0538793
0.0538794
0.0538794
0.0538801
0.0538801
0.0538801
0.0538803
0.0538802
0.0538802
0.0538804
0.0538803
0.0538803