/*--------------------------------*- C++ -*----------------------------------*\
| =========                 |                                                 |
| \\      /  F ield         | OpenFOAM: The Open Source CFD Toolbox           |
|  \\    /   O peration     | Version:  5.x                                   |
|   \\  /    A nd           | Web:      www.OpenFOAM.org                      |
|    \\/     M anipulation  |                                                 |
\*---------------------------------------------------------------------------*/
FoamFile
{
    version     2.0;
    format      ascii;
    class       volScalarField;
    location    "100";
    object      massFlux;
}
// * * * * * * * * * * * * * * * * * * * * * * * * * * * * * * * * * * * * * //

dimensions      [0 0 0 0 0 0 0];

internalField   nonuniform List<scalar> 
6584
(
0.0241652
0.0241651
0.0241651
0.0241652
0.0241652
0.0241652
0.0241652
0.0241652
0.0241652
0.0241652
0.0241652
0.0241652
0.0241652
0.0241652
0.0241652
0.0241652
0.0241652
0.0241652
0.0241652
0.0241652
0.0241651
0.0241651
0.0241651
0.0241651
0.0241388
0.0241388
0.0241388
0.0241388
0.0241388
0.0241389
0.0241389
0.024139
0.024139
0.024139
0.024139
0.024139
0.024139
0.024139
0.024139
0.024139
0.024139
0.0241389
0.0241389
0.0241389
0.0241388
0.0241388
0.0241388
0.0241387
0.0241124
0.0241124
0.0241124
0.0241124
0.0241125
0.0241125
0.0241126
0.0241127
0.0241128
0.0241259
0.0241259
0.0241259
0.0241259
0.0241259
0.0241259
0.0241128
0.0241127
0.0241126
0.0241126
0.0241125
0.0241125
0.0241125
0.0241124
0.0241124
0.024086
0.0240861
0.0240861
0.0240861
0.0240861
0.0240862
0.0240863
0.0240864
0.0240865
0.0240996
0.0240996
0.0240995
0.0240995
0.0240996
0.0240996
0.0240997
0.0240864
0.0240863
0.0240863
0.0240862
0.0240862
0.0240861
0.0240861
0.0240861
0.0240597
0.0240597
0.0240598
0.0240598
0.0240598
0.0240599
0.0240599
0.0240599
0.0240732
0.0240733
0.0240731
0.024073
0.024073
0.024073
0.0240732
0.0240733
0.0240733
0.0240601
0.02406
0.0240599
0.0240599
0.0240598
0.0240598
0.0240597
0.0240334
0.0240334
0.0240334
0.0240335
0.0240336
0.0240336
0.0240337
0.0240468
0.0240467
0.0240466
0.0240531
0.0240528
0.0240527
0.024053
0.0240468
0.024047
0.0240471
0.0240341
0.0240338
0.0240337
0.0240336
0.0240335
0.0240335
0.0240334
0.0240071
0.0240071
0.0240072
0.0240072
0.0240073
0.0240074
0.0240075
0.0240205
0.0240204
0.0240202
0.0240261
0.0240287
0.0240283
0.0240258
0.024027
0.024021
0.024021
0.0240081
0.0240078
0.0240076
0.0240074
0.0240073
0.0240072
0.0240072
0.0239808
0.0239808
0.0239809
0.023981
0.0239811
0.0239812
0.0239815
0.0239944
0.0239943
0.0239943
0.0239996
0.0240007
0.0240017
0.0240009
0.0239953
0.0239952
0.0239823
0.0239817
0.0239815
0.0239812
0.0239811
0.023981
0.0239809
0.0239545
0.0239546
0.0239546
0.0239548
0.0239549
0.0239551
0.0239555
0.0239684
0.0239685
0.0239688
0.023974
0.0239752
0.0239763
0.0239758
0.02397
0.0239697
0.0239566
0.0239558
0.0239554
0.0239551
0.0239549
0.0239547
0.0239546
0.0239282
0.0239283
0.0239284
0.0239286
0.0239288
0.023929
0.0239295
0.0239425
0.0239427
0.0239435
0.0239491
0.0239513
0.0239531
0.0239515
0.023945
0.0239442
0.0239309
0.0239299
0.0239293
0.023929
0.0239287
0.0239285
0.0239284
0.023902
0.0239021
0.0239022
0.0239024
0.0239026
0.0239029
0.0239036
0.0239166
0.0239171
0.0239182
0.0239244
0.0239275
0.0239301
0.0239274
0.0239201
0.0239189
0.0239052
0.023904
0.0239033
0.0239028
0.0239025
0.0239023
0.0239021
0.0238757
0.0238758
0.023876
0.0238762
0.0238765
0.0238769
0.0238776
0.0238907
0.0238914
0.0238927
0.0238994
0.023903
0.0239063
0.023903
0.0238951
0.0238935
0.0238794
0.0238781
0.0238773
0.0238767
0.0238763
0.023876
0.0238758
0.0238495
0.0238496
0.0238498
0.02385
0.0238503
0.0238508
0.0238516
0.0238648
0.0238656
0.023867
0.0238739
0.0238772
0.0238809
0.0238779
0.0238697
0.023868
0.0238536
0.0238521
0.0238512
0.0238505
0.02385
0.0238498
0.0238495
0.0238232
0.0238233
0.0238235
0.0238238
0.0238242
0.0238247
0.0238255
0.0238261
0.0238395
0.0238408
0.0238476
0.0238493
0.0147369
0.0238502
0.0238522
0.0238441
0.0238422
0.0238277
0.0238261
0.0238251
0.0238243
0.0238238
0.0238235
0.0238232
0.023797
0.0237971
0.0237973
0.0237976
0.023798
0.0237985
0.0237993
0.0237997
0.0238131
0.0238143
0.0238213
0.0238179
0.0213245
0.0238227
0.023819
0.0238181
0.0238026
0.0238015
0.0237998
0.0237989
0.0237982
0.0237976
0.0237972
0.0237969
0.0237707
0.0237709
0.0237711
0.0237714
0.0237718
0.0237723
0.023773
0.0237735
0.0237869
0.0237883
0.0237888
0.0237901
0.021457
0.0237895
0.0237928
0.023792
0.0237766
0.0237753
0.0237736
0.0237726
0.0237718
0.0237712
0.0237708
0.0237705
0.0237444
0.0237446
0.0237449
0.0237452
0.0237456
0.0237461
0.0237467
0.0237474
0.0237483
0.0237623
0.0237627
0.0236898
0.0226034
0.0237621
0.0237666
0.0237659
0.0237504
0.0237491
0.0237473
0.0237462
0.0237454
0.0237448
0.0237444
0.023744
0.0237182
0.0237184
0.0237186
0.023719
0.0237194
0.0237198
0.0237205
0.0237213
0.0237223
0.0237235
0.0237366
0.0236065
0.0225976
0.0237347
0.0237274
0.0237257
0.0237241
0.0237228
0.023721
0.0237199
0.023719
0.0237183
0.0237179
0.0237175
0.0236919
0.0236921
0.0236924
0.0236928
0.0236932
0.0236936
0.0236944
0.0236953
0.0236963
0.0236975
0.023685
0.0216159
0.0231279
0.0236967
0.0237012
0.0236995
0.0236979
0.0236965
0.0236947
0.0236935
0.0236926
0.0236919
0.0236915
0.023691
0.0236657
0.0236659
0.0236662
0.0236666
0.023667
0.0236674
0.0236683
0.0236693
0.0236704
0.0236715
0.0236498
0.0216009
0.0231033
0.0236695
0.0236749
0.0236734
0.0236717
0.0236702
0.0236683
0.0236671
0.0236662
0.0236655
0.023665
0.0236645
0.0236394
0.0236396
0.0236399
0.0236404
0.0236408
0.0236413
0.0236422
0.0236433
0.0236445
0.0236454
0.0236154
0.0215848
0.0230782
0.0236424
0.0236487
0.0236472
0.0236454
0.0236439
0.023642
0.0236407
0.0236398
0.023639
0.0236385
0.023638
0.0236132
0.0236134
0.0236137
0.0236142
0.0236147
0.0236152
0.0236161
0.0236173
0.0236186
0.0236194
0.0235818
0.021568
0.0230528
0.0236152
0.0236224
0.023621
0.0236192
0.0236175
0.0236156
0.0236143
0.0236133
0.0236125
0.0236121
0.0236115
0.0235869
0.0235872
0.0235875
0.023588
0.0235885
0.0235891
0.02359
0.0235914
0.0235927
0.0235933
0.0235489
0.0215506
0.0230271
0.0235879
0.0235962
0.0235948
0.023593
0.0235912
0.0235893
0.0235879
0.0235869
0.0235861
0.0235856
0.023585
0.0235607
0.0235609
0.0235613
0.0235618
0.0235623
0.023563
0.023564
0.0235654
0.0235669
0.0235672
0.0235166
0.0215325
0.0230013
0.0235606
0.0235699
0.0235687
0.0235667
0.0235649
0.0235629
0.0235615
0.0235604
0.0235596
0.0235591
0.0235585
0.0235344
0.0235347
0.0235351
0.0235356
0.0235362
0.0235369
0.023538
0.0235395
0.023541
0.0235411
0.023485
0.0215138
0.0229753
0.0235333
0.0235436
0.0235425
0.0235405
0.0235385
0.0235365
0.023535
0.023534
0.0235331
0.0235325
0.0235319
0.0235082
0.0235085
0.0235089
0.0235094
0.0235101
0.0235108
0.0235119
0.0235136
0.0235152
0.023515
0.0234531
0.0214952
0.0229494
0.023506
0.0235173
0.0235163
0.0235143
0.0235122
0.0235102
0.0235086
0.0235075
0.0235066
0.023506
0.0235054
0.023482
0.0234823
0.0234827
0.0234833
0.0234839
0.0234847
0.0234859
0.0234877
0.0234894
0.0234888
0.023421
0.0214767
0.0229238
0.0234787
0.0234909
0.0234902
0.0234881
0.023486
0.0234838
0.0234822
0.0234811
0.0234801
0.0234796
0.0234789
0.0234558
0.0234561
0.0234565
0.0234571
0.0234578
0.0234586
0.0234599
0.0234618
0.0234636
0.0234627
0.0233894
0.0214576
0.0228981
0.0234513
0.0234646
0.0234641
0.0234619
0.0234597
0.0234575
0.0234559
0.0234547
0.0234537
0.0234531
0.0234525
0.0234296
0.0234299
0.0234303
0.0234309
0.0234317
0.0234326
0.0234339
0.023436
0.0234378
0.0234365
0.0233584
0.0214379
0.0228725
0.0234239
0.0234382
0.0234379
0.0234357
0.0234334
0.0234312
0.0234295
0.0234283
0.0234273
0.0234266
0.023426
0.0234034
0.0234037
0.0234042
0.0234048
0.0234056
0.0234065
0.0234079
0.0234101
0.023412
0.0234103
0.0233278
0.0214177
0.0228467
0.0233965
0.0234118
0.0234117
0.0234095
0.0234071
0.0234048
0.0234031
0.0234018
0.0234008
0.0234002
0.0233995
0.0233772
0.0233775
0.023378
0.0233787
0.0233795
0.0233805
0.023382
0.0233843
0.0233862
0.0233841
0.0232977
0.0213969
0.022821
0.0233691
0.0233854
0.0233855
0.0233833
0.0233809
0.0233785
0.0233767
0.0233754
0.0233744
0.0233737
0.023373
0.023351
0.0233513
0.0233518
0.0233525
0.0233534
0.0233545
0.0233561
0.0233585
0.0233605
0.0233579
0.0232679
0.0213755
0.0227952
0.0233416
0.0233589
0.0233593
0.0233571
0.0233546
0.0233522
0.0233503
0.023349
0.0233479
0.0233472
0.0233466
0.0233248
0.0233252
0.0233257
0.0233264
0.0233273
0.0233285
0.0233302
0.0233326
0.0233346
0.0233316
0.0232384
0.0213536
0.0227695
0.0233141
0.0233324
0.0233331
0.0233309
0.0233283
0.0233258
0.023324
0.0233226
0.0233215
0.0233207
0.0233201
0.0232986
0.023299
0.0232995
0.0233003
0.0233013
0.0233025
0.0233043
0.0233068
0.0233088
0.0233054
0.0232092
0.0213312
0.0227437
0.0232866
0.0233058
0.0233068
0.0233047
0.0233021
0.0232995
0.0232976
0.0232962
0.023295
0.0232943
0.0232936
0.0232724
0.0232728
0.0232734
0.0232741
0.0232752
0.0232765
0.0232784
0.023281
0.023283
0.0232791
0.02318
0.0213083
0.0227179
0.0232591
0.0232792
0.0232806
0.0232785
0.0232758
0.0232732
0.0232712
0.0232697
0.0232685
0.0232678
0.0232671
0.0232463
0.0232467
0.0232473
0.023248
0.0232492
0.0232505
0.0232525
0.0232551
0.0232571
0.0232528
0.0231505
0.0212852
0.022692
0.0232316
0.0232525
0.0232542
0.0232522
0.0232496
0.0232469
0.0232448
0.0232433
0.0232421
0.0232413
0.0232407
0.0239783
0.023979
0.024001
0.0239543
0.0239558
0.0239761
0.0239305
0.0239329
0.023953
0.0239061
0.0239092
0.02393
0.0238805
0.023884
0.0239061
0.0238528
0.0090012
0.014455
0.0238568
0.0238807
0.0240041
0.0240283
0.0240044
0.0240289
0.0239803
0.0239787
0.0240014
0.0239879
0.0240002
0.0239793
0.0239816
0.0240004
0.0239553
0.0239544
0.0239756
0.0239662
0.0239545
0.0239733
0.0239521
0.0239726
0.0239559
0.0239574
0.0239754
0.0239306
0.0239306
0.0239514
0.0239424
0.0238934
0.0239123
0.023788
0.0238808
0.023933
0.0239335
0.0239514
0.0239056
0.0239061
0.0239276
0.0239184
0.0238819
0.0238846
0.0238241
0.0237649
0.0239093
0.0239094
0.0239275
0.0238693
0.0238752
0.0238841
0.0238845
0.0239032
0.0238583
0.0238664
0.0238248
0.0125487
0.00912948
0.0193102
0.0238275
0.0238531
0.0239753
0.0239871
0.0239876
0.0239866
0.0239722
0.0240004
0.0239882
0.0239736
0.0239871
0.0239881
0.0239868
0.0239751
0.0239164
0.0239503
0.0239632
0.0239197
0.0238152
0.0239687
0.0239256
0.0238855
0.0239509
0.0239644
0.0239567
0.0239316
0.0239741
0.0239577
0.0239673
0.0238851
0.0238919
0.0239395
0.0237698
0.0238018
0.02381
0.0237691
0.0237662
0.0237801
0.0239415
0.0239064
0.0238892
0.0239305
0.0239084
0.0239444
0.0237798
0.0238104
0.0238046
0.0237744
0.023874
0.02383
0.0239182
0.0238896
0.0238941
0.0238881
0.023889
0.0239212
0.0238317
0.0238372
0.0238137
0.0238302
0.0238672
0.0238696
0.0238933
0.0238862
0.0238968
0.0238358
0.0238093
0.0238376
0.0238365
0.0238447
0.0238568
0.0239908
0.0239887
0.024001
0.0239912
0.0239989
0.0238803
0.0238805
0.023903
0.0238935
0.0238735
0.0238784
0.0234777
0.0232898
0.0238571
0.023859
0.0238782
0.0239995
0.0239919
0.0240008
0.0239884
0.0239912
0.0238789
0.0238816
0.0239154
0.0147329
0.0155729
0.020086
0.0210622
0.0155795
0.017035
0.0232557
0.0229697
0.0238937
0.023885
0.0238755
0.0211839
0.0218123
0.023874
0.0238629
0.0238707
0.024015
0.0240137
0.0240022
0.0240021
0.0240137
0.024015
0.0239904
0.023993
0.0239907
0.0239994
0.0239916
0.0239946
0.0239608
0.0239639
0.0238407
0.0238461
0.0237994
0.0237899
0.0238671
0.0229944
0.0238801
0.02363
0.0234997
0.0235144
0.0236366
0.0238634
0.0239088
0.0239817
0.0237518
0.0239596
0.0237054
0.0239798
0.0239658
0.0239913
0.0239932
0.0239896
0.0239303
0.02398
0.0239809
0.0238632
0.0238566
0.0239559
0.023953
0.023914
0.0239177
0.0239394
0.0239593
0.0239637
0.0239534
0.0239578
0.0239385
0.0239669
0.0239711
0.0239757
0.0239652
0.0239696
0.0239653
0.0237842
0.0237859
0.023781
0.0237779
0.0236928
0.0237048
0.0238912
0.0239363
0.0239405
0.0239305
0.0239348
0.0238892
0.0239217
0.0239477
0.023952
0.023942
0.0239463
0.0239203
0.0149602
0.0237946
0.016581
0.0156579
0.0180166
0.0166077
0.0237988
0.0237514
0.0158762
0.023757
0.0238602
0.023857
0.0238863
0.0239247
0.023929
0.0239187
0.0239232
0.0238872
0.0187574
0.0198838
0.0238222
0.019452
0.0181105
0.0207002
0.0196092
0.0238245
0.0171823
0.018594
0.0238691
0.0232951
0.0234914
0.0230231
0.0232592
0.0238694
0.022906
0.0217011
0.0219217
0.0102755
0.0218846
0.0216121
0.0171532
0.0236279
0.0236419
0.0239972
0.0238544
0.0238534
0.0238772
0.0238673
0.0238574
0.0238667
0.0188364
0.0238163
0.0238366
0.0239974
0.0238653
0.0238726
0.0238903
0.0117344
0.0119648
0.00694066
0.0215365
0.0214609
0.0123058
0.0128834
0.0235504
0.0236241
0.0105573
0.0240065
0.024007
0.0240006
0.0240001
0.024007
0.0240065
0.0239641
0.0239697
0.0239651
0.0239547
0.0239606
0.0239688
0.0238995
0.0239451
0.0239406
0.0239512
0.0239466
0.0239022
0.0238126
0.023867
0.0238119
0.0237599
0.0222481
0.0220022
0.0238622
0.0236496
0.0237325
0.0237626
0.0237531
0.0120132
0.023995
0.0239926
0.0240001
0.0239763
0.0239689
0.0239629
0.0239819
0.0239835
0.0239884
0.0239772
0.0239819
0.0239803
0.0239302
0.0239574
0.0239527
0.0239636
0.0239589
0.023935
0.0238944
0.0232692
0.0235964
0.0229648
0.0230385
0.023832
0.0236375
0.0236948
0.023939
0.023898
0.0239303
0.0239476
0.0239603
0.0239619
0.0239504
0.0239529
0.0239347
0.0239391
0.0239346
0.0238883
0.0237772
0.022649
0.0224659
0.0237959
0.0228568
0.0229427
0.0224426
0.0225162
0.0237697
0.0237359
0.0237455
0.0239
0.0239341
0.0239365
0.0239232
0.0239276
0.0238891
0.023927
0.0239472
0.0239496
0.0239373
0.0239398
0.0239138
0.0238691
0.0235124
0.023578
0.023475
0.0234204
0.0238425
0.0238968
0.0239127
0.0239172
0.0239065
0.0239112
0.0238962
0.0238351
0.021588
0.0208262
0.0224609
0.0222218
0.0238358
0.0149678
0.0153458
0.023838
0.022726
0.022535
0.0145223
0.0148619
0.0225651
0.0223128
0.0239942
0.0239972
0.0239953
0.022066
0.0234065
0.0222381
0.0223482
0.022319
0.0233821
0.0239961
0.0239948
0.0239981
0.0239936
0.023995
0.0146837
0.0150361
0.0122039
0.0118446
0.020547
0.0133472
0.0132107
0.0139951
0.0133907
0.0206722
0.0158383
0.0161395
0.0231424
0.0230933
0.0214958
0.0150725
0.0143667
0.0129153
0.013207
0.0239877
0.0239894
0.0239923
0.0239856
0.0239885
0.0239866
0.0239557
0.0239678
0.0238191
0.023862
0.0238101
0.0237615
0.0230547
0.0236004
0.0235462
0.0236614
0.0236183
0.0230428
0.0234343
0.023399
0.0235304
0.0234591
0.0235845
0.0227049
0.0228576
0.0224455
0.022631
0.0235652
0.0218693
0.0219968
0.0238555
0.0239764
0.0239674
0.0239852
0.023979
0.0238819
0.0239127
0.0238875
0.023961
0.0239221
0.0239845
0.0239897
0.0239865
0.0239824
0.0239767
0.0239767
0.0239705
0.0239772
0.0239736
0.0239813
0.0239846
0.0239752
0.0239801
0.0239836
0.0239813
0.0239777
0.0231426
0.0232172
0.0238855
0.022759
0.0225029
0.0233058
0.0228035
0.0220994
0.0218108
0.0224212
0.0222231
0.0238381
0.0230639
0.0231222
0.0236502
0.0235554
0.023875
0.0237185
0.0234489
0.0233716
0.0235356
0.0234713
0.0239428
0.0237099
0.0237535
0.0239022
0.023928
0.023957
0.0239595
0.0239439
0.0239356
0.0239537
0.0239561
0.0226736
0.0226776
0.0237794
0.0208683
0.0208045
0.0198419
0.0207511
0.0205846
0.0208878
0.0207517
0.0206107
0.0227278
0.0228276
0.0237917
0.021302
0.0209429
0.0217414
0.0214061
0.0202129
0.0198204
0.0207992
0.0203989
0.0237718
0.0225676
0.0226881
0.0237117
0.0237354
0.0239311
0.0239333
0.0238978
0.0238879
0.0239283
0.0239303
0.0239439
0.0239463
0.0239257
0.0239155
0.0239406
0.0239431
0.0154861
0.0160071
0.0224454
0.0226528
0.0221856
0.0223725
0.0156253
0.017423
0.0229324
0.0224913
0.0227094
0.0228788
0.0171003
0.0214386
0.0215009
0.0210967
0.0214145
0.0165486
0.0219472
0.0221367
0.0215485
0.0218443
0.0166398
0.0234705
0.0234989
0.0238672
0.0232965
0.0233751
0.0233826
0.0232936
0.0233843
0.0238457
0.0233977
0.0234415
0.0191862
0.0120253
0.0124175
0.0130338
0.0120592
0.0193493
0.0122851
0.0176435
0.0125469
0.0178856
0.02314
0.0237126
0.0236751
0.023759
0.0237257
0.0231592
0.0228084
0.0228486
0.0155348
0.0159611
0.013493
0.0143684
0.0227375
0.022624
0.0240051
0.0240068
0.0240265
0.0238673
0.0238606
0.0238495
0.0240026
0.024003
0.023999
0.0239981
0.0240028
0.0240026
0.0240148
0.0240142
0.0240027
0.0239759
0.0239713
0.0239667
0.023953
0.0239353
0.023932
0.0237959
0.0238762
0.0239271
0.0239227
0.0238832
0.0236528
0.0236336
0.0237628
0.0235928
0.0236279
0.0238779
0.0239806
0.0239821
0.0239774
0.0239359
0.0239521
0.0239751
0.0239853
0.0239823
0.0239845
0.0239658
0.0238661
0.0239285
0.0238897
0.0239286
0.023925
0.0239486
0.023942
0.0239429
0.0239326
0.0239636
0.0239651
0.0239604
0.0238873
0.0239331
0.0239287
0.0227255
0.022649
0.0237937
0.0237649
0.0236842
0.0236706
0.0237719
0.0239045
0.0239236
0.0239247
0.0239294
0.0239402
0.0239411
0.0239258
0.0239269
0.0239102
0.0237409
0.0228662
0.0227722
0.0238849
0.0239205
0.0239219
0.0238906
0.0239003
0.0239049
0.0108698
0.0108162
0.0229254
0.0227825
0.0238377
0.0109893
0.0109274
0.0237399
0.0237553
0.0238523
0.023992
0.023992
0.0145571
0.0139625
0.0142058
0.0155327
0.0155951
0.0134794
0.0137143
0.0145287
0.0143555
0.016818
0.0227532
0.0227053
0.0230098
0.0156437
0.0151891
0.0215813
0.0240078
0.0240073
0.0240006
0.0239892
0.0239894
0.02399
0.0239911
0.0239838
0.0239848
0.0239934
0.0239964
0.0239947
0.0239516
0.0239497
0.0239584
0.0239657
0.0239617
0.0239589
0.0238319
0.0238514
0.0236529
0.0236616
0.0238051
0.0237779
0.0236065
0.0236305
0.0231081
0.0231125
0.0232716
0.023249
0.0229947
0.0231313
0.0231506
0.0238786
0.0236431
0.0236871
0.0238891
0.0238012
0.0239183
0.0239034
0.0239758
0.0239699
0.0239468
0.0235304
0.0234706
0.0238664
0.0237622
0.0236231
0.0239923
0.0239906
0.0239871
0.0239875
0.0239815
0.023985
0.0239471
0.0239804
0.0239825
0.023768
0.0238316
0.0239637
0.0233939
0.0233232
0.0239102
0.0239214
0.02397
0.0239716
0.0239701
0.0239613
0.0239667
0.0239683
0.0237916
0.0226481
0.0226656
0.0236867
0.0237153
0.0239344
0.0239354
0.0239231
0.0239187
0.0239323
0.0239334
0.0151937
0.0165323
0.0189528
0.0190634
0.0177469
0.0177977
0.0154649
0.0229284
0.022882
0.0237461
0.0169153
0.0166891
0.0181937
0.0181409
0.0161123
0.0177395
0.0177402
0.0165359
0.0165518
0.023918
0.0239193
0.0238844
0.0238879
0.0239156
0.0239168
0.0187578
0.0227306
0.0228064
0.0225715
0.0226507
0.0185229
0.0233819
0.0237379
0.0237679
0.0237601
0.0237496
0.0234125
0.0230702
0.0233376
0.023303
0.0228398
0.0227715
0.0229219
0.0112422
0.0115073
0.011546
0.0112433
0.0220777
0.0166356
0.0158922
0.0172608
0.016815
0.0215157
0.0215964
0.0216532
0.0228996
0.0230365
0.0236707
0.0239966
0.0239975
0.0239957
0.0116657
0.0117217
0.0152569
0.0150274
0.00746629
0.0126566
0.0119093
0.0119645
0.0116001
0.0117705
0.0128182
0.0104821
0.0225658
0.0227223
0.0240036
0.0240031
0.0239987
0.0239416
0.0239385
0.0239539
0.0239558
0.0239623
0.0239677
0.0239587
0.0239608
0.0238053
0.0238716
0.0234798
0.0235034
0.0234957
0.0234777
0.0237608
0.0236174
0.0236022
0.0221946
0.0217599
0.0217394
0.0218431
0.0218193
0.0221257
0.023967
0.0239719
0.0239728
0.0239698
0.023971
0.023965
0.0238938
0.0239433
0.0239211
0.0239126
0.0239337
0.0239438
0.0239447
0.0236974
0.0236948
0.0237572
0.0237569
0.0239213
0.0239224
0.0239022
0.0239383
0.0239392
0.0239282
0.0239121
0.023928
0.0239291
0.023467
0.0235526
0.0235249
0.0235706
0.0235648
0.0234504
0.0107784
0.0107879
0.0111423
0.011057
0.014644
0.0123966
0.0123369
0.0217898
0.0217996
0.022487
0.0219346
0.0220381
0.0217565
0.0218295
0.0223971
0.0239937
0.023993
0.0239932
0.0239938
0.0239963
0.0239966
0.0239978
0.0239946
0.0239954
0.0239955
0.0222052
0.0228064
0.0227698
0.0229147
0.0228577
0.0222445
0.0224767
0.0226393
0.0225703
0.0227417
0.0227054
0.022408
0.0239956
0.0239962
0.0239951
0.0239901
0.0239873
0.0239938
0.0239926
0.0144959
0.0153889
0.0144128
0.0145135
0.0120892
0.0119663
0.0154493
0.0156041
0.0132855
0.013306
0.0133039
0.015663
0.0134173
0.0132348
0.0134927
0.016501
0.0139587
0.0135588
0.0227789
0.0228448
0.0231866
0.0225868
0.0226094
0.0225353
0.0225483
0.0230474
0.0226849
0.0227127
0.0129527
0.0112564
0.0114228
0.0111329
0.0111346
0.0130339
0.0239882
0.0239891
0.0239886
0.023985
0.0239857
0.0239873
0.0239421
0.0239568
0.0239473
0.0239445
0.0239539
0.0239564
0.0239483
0.0239512
0.0238256
0.0238567
0.0235574
0.0235717
0.0235214
0.0235398
0.0238081
0.0236639
0.0236641
0.0235909
0.023591
0.0237675
0.0235764
0.0231681
0.0231263
0.023017
0.0232315
0.0232088
0.023418
0.0231804
0.0231749
0.0232537
0.0232114
0.0234082
0.0235118
0.0232854
0.0233078
0.0232015
0.0232444
0.0234871
0.0231568
0.0225055
0.0230072
0.022966
0.0218403
0.0218982
0.0238432
0.0239315
0.0239251
0.0238287
0.023904
0.0239548
0.023941
0.0236287
0.0235774
0.0237844
0.0238002
0.0238967
0.0237344
0.0236827
0.0239647
0.0239728
0.023985
0.0239784
0.0239547
0.0239245
0.0239532
0.0239752
0.023977
0.0239781
0.0239739
0.0239753
0.0239718
0.0239681
0.0239718
0.0239823
0.0239808
0.0239796
0.0239838
0.0239818
0.0239834
0.0239766
0.0239782
0.0239755
0.0239777
0.022699
0.0225952
0.0231604
0.022566
0.0226514
0.0224289
0.0228475
0.0219903
0.0218941
0.0223506
0.0222915
0.0236061
0.0233113
0.0233778
0.0231941
0.0232485
0.0235776
0.023854
0.0237194
0.0237613
0.023422
0.0236254
0.0238082
0.0232575
0.0231811
0.0234268
0.0228299
0.0228832
0.0227448
0.022787
0.0234034
0.0235164
0.0231018
0.0231482
0.0229461
0.0230189
0.023494
0.0239063
0.023925
0.0208879
0.019647
0.0198672
0.019185
0.0194063
0.0208549
0.0200711
0.0199917
0.0200295
0.0204294
0.0206092
0.0179608
0.0181593
0.0182269
0.0179626
0.0207082
0.0207017
0.0187904
0.0189801
0.0184066
0.0186132
0.0206555
0.0212144
0.0211071
0.021665
0.0215265
0.0200468
0.0198991
0.020674
0.0205657
0.0236922
0.0237254
0.0239244
0.0239364
0.0239373
0.0239302
0.0239313
0.0239171
0.0153937
0.0185159
0.0187801
0.0163802
0.0154123
0.0179457
0.0182066
0.0174125
0.0171575
0.021455
0.0190927
0.0191374
0.0212673
0.0190006
0.0186271
0.019166
0.0191404
0.0213666
0.0179652
0.0176823
0.017554
0.0177021
0.0163478
0.0167761
0.0171747
0.0234842
0.023658
0.0236454
0.0236761
0.0236672
0.0234913
0.0233216
0.0233564
0.023349
0.0232835
0.0232739
0.0233141
0.0233947
0.0235882
0.0235766
0.0236274
0.0236064
0.0234116
0.0121296
0.0139177
0.0140047
0.0138477
0.0138786
0.0122729
0.0126595
0.0148842
0.0152171
0.0141961
0.0145104
0.0122998
0.0122733
0.0126615
0.0126597
0.0130161
0.0128166
0.01272
0.013619
0.0137831
0.0128854
0.0132489
0.0127974
0.0233913
0.023368
0.0231151
0.0228007
0.0228937
0.0109226
0.0112088
0.0138353
0.0116911
0.0113352
0.012245
0.0120603
0.0141461
0.0112845
0.0112283
0.0216922
0.021717
0.0240598
0.0240597
0.0240731
0.0240596
0.0240595
0.0240729
0.0240595
0.0240595
0.024073
0.0240597
0.0240599
0.0240731
0.0240333
0.0240331
0.0240465
0.0240328
0.0240325
0.024053
0.0240322
0.0240319
0.0240527
0.0240319
0.0240323
0.0240528
0.0240327
0.0240332
0.0240532
0.0240336
0.0240338
0.0240468
0.0240072
0.0240066
0.0240264
0.0240061
0.0240048
0.0240256
0.0240181
0.0240178
0.0240287
0.024017
0.0240174
0.0240283
0.0240189
0.0240193
0.0240259
0.0240074
0.0240081
0.0240209
0.0239815
0.0239808
0.0240001
0.0239931
0.0239929
0.0239994
0.0239974
0.0239971
0.0240005
0.0239918
0.0239933
0.0240029
0.023982
0.0239829
0.0239954
0.0239561
0.0239556
0.0239744
0.0239677
0.0239677
0.023974
0.0239722
0.0239722
0.0239752
0.0239675
0.0239687
0.0239777
0.0239575
0.0239581
0.0239705
0.0239308
0.0239307
0.0239494
0.0239429
0.0239432
0.0239493
0.0239483
0.0239484
0.0239513
0.0239445
0.0239451
0.0239539
0.0239334
0.0239335
0.0239458
0.0239055
0.0239057
0.0239245
0.0239181
0.0239186
0.0239247
0.0239245
0.0239245
0.0239276
0.0239213
0.0239215
0.0239304
0.0239091
0.0239088
0.0239212
0.0238799
0.0238803
0.0238993
0.0238998
0.0238997
0.0239029
0.023897
0.0238968
0.0239061
0.0238842
0.0238837
0.0238963
0.023854
0.0238544
0.0238738
0.0238708
0.0238716
0.0238781
0.0238586
0.0238582
0.023871
0.0238274
0.0238275
0.0238406
0.0238278
0.0238264
0.0238465
0.0238389
0.023826
0.0238366
0.0156332
0.0233975
0.0234474
0.0238297
0.0238329
0.0238525
0.0238322
0.0238324
0.0238453
0.0238013
0.0238015
0.0238145
0.0238018
0.0237995
0.0238197
0.0237971
0.0162721
0.0160624
0.0214327
0.0237989
0.0238204
0.0238018
0.0238063
0.023826
0.0238058
0.0238062
0.0238193
0.0237758
0.023774
0.0237874
0.0237296
0.0196532
0.016331
0.0226033
0.0237665
0.0237916
0.0237758
0.0237799
0.0237931
0.0239783
0.0239813
0.0239814
0.023982
0.0239831
0.0239782
0.0240008
0.0239975
0.0239977
0.0239543
0.0239572
0.0239572
0.0239587
0.0239585
0.0239542
0.0239766
0.0239719
0.0239732
0.0239306
0.0239336
0.0239335
0.0239358
0.0239355
0.0239312
0.0239527
0.0239484
0.0239501
0.023906
0.0239092
0.0239092
0.0239122
0.0239119
0.0239077
0.0239298
0.0239254
0.0239271
0.0238872
0.023886
0.0238828
0.0239047
0.0239017
0.0239031
0.0238401
0.0238542
0.0238638
0.00754324
0.0138432
0.0138396
0.0208562
0.0208758
0.0104723
0.0238795
0.0238762
0.0238774
0.0240028
0.0240141
0.0240146
0.0239994
0.0239994
0.0239984
0.0240283
0.0240174
0.024017
0.0239991
0.0239993
0.0240078
0.0240076
0.0240041
0.0240287
0.0240179
0.0240183
0.0239802
0.0239865
0.0239867
0.0239882
0.0239863
0.0239801
0.0239991
0.0239927
0.0239914
0.0239896
0.0239892
0.0239863
0.0239998
0.0239979
0.0239983
0.0239808
0.0239901
0.0239886
0.0239878
0.0239878
0.0239816
0.0240002
0.0239939
0.023994
0.0239554
0.0239616
0.0239615
0.0239634
0.0239616
0.0239556
0.0239739
0.0239677
0.0239664
0.0239662
0.0239692
0.0239692
0.023958
0.0239639
0.0239619
0.0239747
0.023973
0.0239713
0.0239708
0.0239684
0.0239713
0.0239568
0.0239657
0.0239646
0.0239634
0.0239637
0.0239578
0.0239756
0.0239696
0.0239694
0.0239309
0.023937
0.0239367
0.0239395
0.0239374
0.0239313
0.0239495
0.0239434
0.0239425
0.0239425
0.0239454
0.0239454
0.0238952
0.0239295
0.0239279
0.0239408
0.0239386
0.0239085
0.0239334
0.0239422
0.0239416
0.0239395
0.0239401
0.0239342
0.0239519
0.023946
0.0239454
0.0239061
0.0239124
0.0239119
0.0239154
0.0239128
0.0239066
0.0239252
0.023919
0.0239185
0.0239184
0.0239215
0.0239215
0.0238828
0.0239211
0.0239166
0.0239152
0.0239139
0.0238841
0.0238187
0.0236759
0.0236904
0.0239093
0.0239184
0.0239183
0.0239154
0.0239162
0.0239101
0.0239282
0.0239222
0.0239215
0.0238687
0.0237439
0.0237705
0.0238275
0.0238317
0.0238763
0.0238844
0.0238907
0.0238938
0.0238908
0.0238916
0.0238852
0.023904
0.0238978
0.023897
0.0238596
0.0238455
0.0238452
0.0238425
0.0238437
0.0238655
0.0238164
0.0238224
0.0238317
0.0121572
0.0237493
0.0237301
0.0214749
0.0214661
0.00954606
0.0238036
0.0238131
0.0189746
0.0238346
0.0238302
0.0238217
0.0238457
0.0238339
0.0238424
0.0239772
0.023978
0.0239763
0.0239886
0.0239837
0.0239822
0.0239845
0.0239844
0.0239875
0.023985
0.0239829
0.0239867
0.0239985
0.0239982
0.0240001
0.0239878
0.0239895
0.0239899
0.0239745
0.0239732
0.0239722
0.0239869
0.0239859
0.0239862
0.0239879
0.0239847
0.023985
0.0239852
0.0239856
0.0239872
0.0239762
0.0239777
0.023977
0.0239208
0.0239454
0.0239431
0.0239597
0.0239574
0.0239452
0.0239602
0.0239602
0.0239632
0.0239124
0.023851
0.0238681
0.0236707
0.0236791
0.0238205
0.0238804
0.0238897
0.0239305
0.0239644
0.02396
0.0239616
0.0239553
0.0239587
0.0239598
0.023971
0.0239731
0.0239746
0.0239608
0.0239617
0.0239586
0.0239702
0.0239704
0.0239659
0.0238856
0.0239178
0.0239165
0.0239263
0.0239248
0.0238906
0.0239365
0.0239365
0.0239395
0.0237723
0.023593
0.0235883
0.0236485
0.0236418
0.0237988
0.0238051
0.0236548
0.0236627
0.0235859
0.0235856
0.0237681
0.0239413
0.023937
0.0239387
0.0239121
0.0239126
0.0238899
0.0239473
0.023947
0.0239427
0.0237849
0.0232632
0.0231869
0.0235769
0.0235602
0.0238068
0.0238074
0.0236624
0.0236555
0.0231635
0.023083
0.0237689
0.0238725
0.0238171
0.0238226
0.0237073
0.0237215
0.0238353
0.023918
0.0239135
0.0239152
0.023891
0.0239106
0.0239118
0.0239026
0.023904
0.0238948
0.0238869
0.0239108
0.0239114
0.0239131
0.0239143
0.0238879
0.0239241
0.0239239
0.0239195
0.023833
0.0237013
0.0236923
0.0237427
0.0237371
0.0238369
0.0238167
0.0236077
0.0235926
0.0236826
0.0236721
0.0238285
0.023868
0.0238391
0.023841
0.0237783
0.0237985
0.0238697
0.0238924
0.0238998
0.0239012
0.023894
0.0238986
0.0238896
0.0239
0.0238986
0.0238955
0.0238328
0.0230588
0.0229649
0.0227692
0.0229872
0.0238301
0.0238379
0.0237524
0.0237477
0.0238504
0.0237567
0.0237558
0.0239907
0.0239939
0.0239941
0.0239938
0.0239951
0.0239902
0.0240002
0.0239968
0.0239956
0.0239984
0.0239972
0.0239977
0.0238903
0.0238877
0.0238812
0.0239003
0.023894
0.0238935
0.0238933
0.0238965
0.0238966
0.0238759
0.023894
0.0238908
0.0239002
0.0238971
0.0238766
0.0234542
0.0232067
0.0232434
0.0229772
0.0230294
0.0233239
0.0238585
0.0238651
0.0238675
0.0239984
0.023998
0.0239992
0.0239906
0.0239922
0.023993
0.0239952
0.0239968
0.024002
0.02399
0.0239951
0.0239935
0.0239944
0.0239943
0.023991
0.0238803
0.023909
0.0239033
0.0239151
0.0239105
0.0238806
0.0239123
0.0239123
0.0239154
0.0202589
0.0180487
0.0178722
0.0190222
0.0188246
0.0209296
0.0232225
0.0228873
0.0229279
0.0238924
0.0238892
0.0238905
0.0238812
0.0238876
0.0238923
0.0238806
0.0238859
0.0238798
0.0213002
0.0194124
0.0192219
0.0202486
0.0201186
0.0217376
0.0238694
0.023874
0.0238773
0.0238673
0.0238707
0.0238678
0.023874
0.0238729
0.0238695
0.0240152
0.0240092
0.0240088
0.0240098
0.0240095
0.0240155
0.0240012
0.0240075
0.0240079
0.024004
0.0240038
0.0240018
0.0240154
0.0240094
0.0240098
0.0240088
0.0240091
0.0240151
0.0239932
0.0239901
0.0239913
0.0239959
0.0239974
0.0239994
0.0239921
0.0239931
0.0239925
0.0239965
0.0239961
0.0239942
0.0236986
0.0237332
0.023868
0.0238797
0.0238493
0.023852
0.0236168
0.0234431
0.0234646
0.0232777
0.0233081
0.0235198
0.0235752
0.0237775
0.0237694
0.0237907
0.0237845
0.0235919
0.0238645
0.0238446
0.0238452
0.023976
0.0239814
0.0239834
0.0239776
0.0239574
0.0239732
0.0239712
0.0239819
0.0239791
0.0239921
0.0239911
0.02399
0.0239915
0.0239912
0.0239928
0.0239792
0.0239782
0.0239791
0.0239818
0.0239811
0.0239802
0.0237458
0.023757
0.02387
0.0238504
0.0237255
0.0237354
0.0239364
0.0239422
0.0239588
0.0239498
0.0239244
0.0239304
0.0239493
0.0239503
0.0239404
0.0239607
0.02396
0.0239585
0.023963
0.0239615
0.0239622
0.0239549
0.0239541
0.0239526
0.023957
0.0239555
0.0239563
0.0239376
0.0239475
0.0239484
0.0239685
0.0239695
0.0239681
0.0239727
0.0239721