/*--------------------------------*- C++ -*----------------------------------*\
| =========                 |                                                 |
| \\      /  F ield         | OpenFOAM: The Open Source CFD Toolbox           |
|  \\    /   O peration     | Version:  5.x                                   |
|   \\  /    A nd           | Web:      www.OpenFOAM.org                      |
|    \\/     M anipulation  |                                                 |
\*---------------------------------------------------------------------------*/
FoamFile
{
    version     2.0;
    format      ascii;
    class       volScalarField;
    location    "100";
    object      p;
}
// * * * * * * * * * * * * * * * * * * * * * * * * * * * * * * * * * * * * * //

dimensions      [0 2 -2 0 0 0 0];

internalField   nonuniform List<scalar> 
6584
(
21.0007
19.1763
17.3514
15.5268
13.7024
11.878
10.0536
8.22987
6.40633
4.58275
2.75858
0.933223
-0.893728
-2.72217
-4.55153
-6.38113
-8.21045
-10.0393
-11.8679
-13.6961
-15.524
-17.3511
-19.1774
-21.0026
21.0022
19.1806
17.357
15.5328
13.7085
11.8832
10.0565
8.2312
6.40748
4.58417
2.7603
0.935139
-0.891858
-2.72059
-4.55036
-6.38077
-8.21145
-10.0419
-11.8723
-13.7017
-15.5299
-17.3572
-19.1822
-21.0039
21.0026
19.1838
17.3636
15.5409
13.7171
11.8917
10.0629
8.23413
6.40911
5.04148
3.219
1.395
-0.431502
-2.26066
-4.09151
-6.38441
-8.21966
-10.0522
-11.8826
-13.7113
-15.5383
-17.3636
-19.1851
-21.005
21.0025
19.1844
17.3658
15.546
13.7237
11.8996
10.0711
8.24087
6.4132
5.04376
3.22302
1.40085
-0.425329
-2.25698
-4.09643
-5.93528
-8.23558
-10.0663
-11.8942
-13.7208
-15.5454
-17.3671
-19.1866
-21.0058
21.002
19.1841
17.3659
15.5477
13.7279
11.9055
10.0802
8.25562
6.8782
5.0485
3.22859
1.40918
-0.416068
-2.26042
-4.11532
-5.95899
-7.79224
-10.0791
-11.9044
-13.7284
-15.5497
-17.3692
-19.1879
-21.0067
21.0016
19.1837
17.3656
15.5476
13.7293
11.9094
10.0886
8.72266
6.89958
5.07597
3.47374
1.65171
-0.168762
-2.0436
-4.13884
-5.97769
-7.80625
-10.0899
-11.913
-13.7336
-15.5525
-17.3709
-19.1891
-21.0075
21.001
19.1832
17.3651
15.547
13.7288
11.9101
10.0907
8.7248
6.90587
5.09049
3.50716
1.8053
-0.0079803
-2.06502
-3.93183
-5.99694
-7.82076
-10.0997
-11.9194
-13.7372
-15.5549
-17.3726
-19.1903
-21.0082
21.0005
19.1826
17.3644
15.5462
13.7277
11.9089
10.09
8.72496
6.90295
5.08215
3.49451
1.80936
-2.01665
-3.96848
-6.01699
-7.83393
-10.1063
-11.9237
-13.7402
-15.557
-17.374
-19.1913
-21.0088
21.0001
19.182
17.3638
15.5453
13.7266
11.9071
10.0873
8.72218
6.89641
5.06632
3.46105
1.72063
-2.1328
-4.00907
-6.03323
-7.8415
-10.1087
-11.9257
-13.7422
-15.5585
-17.375
-19.192
-21.0092
20.9997
19.1816
17.3632
15.5446
13.7256
11.9059
10.0854
8.7188
6.88967
5.05504
3.44107
1.68697
-2.1867
-4.03221
-6.04084
-7.84417
-10.1073
-11.9238
-13.7417
-15.5591
-17.3755
-19.1924
-21.0093
20.9995
19.1811
17.3627
15.544
13.725
11.9052
10.0845
8.71704
6.88739
5.05389
3.44251
1.70308
-2.16771
-4.02493
-6.03479
-7.83914
-10.1017
-11.9184
-13.7374
-15.5574
-17.3754
-19.1923
-21.0091
20.9994
19.1809
17.3625
15.5438
13.7249
11.9054
10.0848
8.71706
6.88934
5.06074
3.45862
1.74362
-2.10216
-3.99336
-6.01687
-7.82685
-10.0921
-11.9101
-13.7301
-15.5522
-17.3734
-19.1917
-21.0086
20.9993
19.1809
17.3625
15.5439
13.7252
11.9063
10.0861
8.71873
6.89362
5.07026
3.47742
1.78242
-2.02696
-3.95145
-5.99249
-7.80965
-10.0788
-11.8991
-13.7208
-15.5447
-17.3695
-19.1906
-21.0079
20.9994
19.1809
17.3626
15.5442
13.7257
11.9073
10.0874
8.26506
6.89731
5.0746
3.48216
1.77664
0.0617409
-2.07128
-3.91202
-5.9648
-7.78977
-10.0628
-11.8859
-13.7097
-15.5367
-17.3639
-19.1877
-21.0068
20.9994
19.181
17.3627
15.5443
13.726
11.9075
10.0866
8.26041
6.89257
5.05795
3.45977
1.64628
-0.176879
-2.03514
-4.10803
-5.94158
-8.22573
-10.0516
-11.8772
-13.7017
-15.5294
-17.3563
-19.1812
-21.0042
20.9995
19.181
17.3626
15.5442
13.7258
11.9068
10.0837
8.25199
6.87632
5.04928
3.22785
1.63495
-0.193483
-2.26081
-4.09915
-5.93319
-8.21909
-10.0459
-11.8716
-13.6994
-15.5252
-17.3508
-19.1759
-21.0015
20.9994
19.1809
17.3624
15.5438
13.7251
11.905
10.0792
8.24651
6.41598
5.04726
3.22424
1.40006
-0.428836
-2.26297
-4.0974
-5.92821
-8.21284
-10.0393
-11.8662
-13.694
-15.521
-17.3472
-19.1745
-21
20.9993
19.1807
17.362
15.5432
13.7239
11.9017
10.0737
8.24168
6.41435
4.58897
3.22167
1.39496
-0.433645
-2.26505
-4.55296
-6.38063
-8.20912
-10.0357
-11.8628
-13.69
-15.5167
-17.3435
-19.1707
-20.998
20.9992
19.1804
17.3615
15.5424
13.7227
11.8982
10.0684
8.23822
6.41268
4.58644
2.76223
0.934563
-0.893376
-2.72174
-4.55191
-6.37864
-8.2069
-10.0333
-11.8603
-13.6872
-15.5139
-17.3408
-19.1677
-20.996
20.999
19.18
17.3609
15.5415
13.7214
11.8954
10.0649
8.23634
6.41141
4.58495
2.76007
0.93301
-0.894247
-2.72188
-4.55071
-6.3772
-8.20516
-10.0314
-11.8583
-13.6849
-15.5118
-17.3387
-19.1653
-20.9945
20.9989
19.1796
17.3602
15.5405
13.7201
11.8934
10.0627
8.23501
6.4104
4.58395
2.75872
0.931858
-0.89499
-2.72194
-4.54991
-6.37618
-8.20383
-10.03
-11.8567
-13.6831
-15.5101
-17.3368
-19.1633
-20.9932
20.9986
19.1791
17.3594
15.5395
13.7188
11.8919
10.0613
8.23399
6.4093
4.58321
2.75782
0.93111
-0.895454
-2.72201
-4.54943
-6.37551
-8.20283
-10.0289
-11.8555
-13.6817
-15.5087
-17.3352
-19.1616
-20.9921
20.9984
19.1786
17.3587
15.5385
13.7175
11.8905
10.0601
8.23282
6.40835
4.58262
2.7572
0.930625
-0.895756
-2.72205
-4.54909
-6.37502
-8.20207
-10.028
-11.8545
-13.6807
-15.5075
-17.3339
-19.1602
-20.9911
20.9981
19.1781
17.3579
15.5375
13.7163
11.8893
10.059
8.23176
6.40748
4.58196
2.75671
0.930297
-0.895962
-2.7221
-4.54884
-6.37464
-8.20149
-10.0273
-11.8537
-13.6798
-15.5065
-17.3328
-19.159
-20.9903
20.9978
19.1776
17.3571
15.5364
13.7151
11.8881
10.058
8.23079
6.4065
4.58128
2.75633
0.930048
-0.896104
-2.72211
-4.54864
-6.37437
-8.20101
-10.0267
-11.853
-13.6791
-15.5057
-17.3318
-19.158
-20.9896
20.9975
19.1771
17.3564
15.5355
13.7139
11.887
10.0571
8.22988
6.40553
4.58062
2.75548
0.929457
-0.896581
-2.72238
-4.5487
-6.37435
-8.20086
-10.0265
-11.8528
-13.6788
-15.5052
-17.3311
-19.1571
-20.9889
20.9972
19.1766
17.3557
15.5346
13.7128
11.8859
10.0562
8.22908
6.40458
4.57929
2.75403
0.92816
-0.897725
-2.72343
-4.54962
-6.37521
-8.20159
-10.0272
-11.8535
-13.6793
-15.5054
-17.3312
-19.1572
-20.9888
20.9969
19.1761
17.3551
15.5337
13.7118
11.885
10.0553
8.22831
6.40329
4.57759
2.7523
0.926473
-0.899383
-2.72506
-4.55113
-6.37667
-8.20293
-10.0285
-11.8547
-13.6804
-15.5064
-17.3322
-19.1581
-20.9891
20.9966
19.1756
17.3544
15.5329
13.7108
11.884
10.0545
8.22714
6.40159
4.57594
2.75059
0.924817
-0.901019
-2.72666
-4.55264
-6.37814
-8.20428
-10.0298
-11.8559
-13.6815
-15.5075
-17.3332
-19.1591
-20.9894
20.9964
19.1752
17.3538
15.5322
13.7099
11.8831
10.0533
8.22548
6.39992
4.57429
2.74891
0.923185
-0.902631
-2.72823
-4.55415
-6.3796
-8.20566
-10.0312
-11.8572
-13.6827
-15.5086
-17.3343
-19.1601
-20.9898
20.9961
19.1748
17.3532
15.5314
13.7089
11.8817
10.0514
8.22382
6.39824
4.57265
2.74726
0.921574
-0.904225
-2.72979
-4.55565
-6.38108
-8.20706
-10.0325
-11.8585
-13.684
-15.5098
-17.3354
-19.1611
-20.9902
20.9958
19.1743
17.3526
15.5307
13.7074
11.8792
10.0493
8.22215
6.39658
4.57103
2.74561
0.919977
-0.905799
-2.73134
-4.55716
-6.38254
-8.20846
-10.0339
-11.8597
-13.6852
-15.511
-17.3365
-19.1623
-20.9907
20.9956
19.174
17.3521
15.5297
13.7049
11.8764
10.0473
8.22049
6.39493
4.56939
2.74399
0.918396
-0.907356
-2.73289
-4.55864
-6.38404
-8.20986
-10.0352
-11.861
-13.6865
-15.5122
-17.3377
-19.1634
-20.9912
20.9953
19.1736
17.3516
15.5281
13.7018
11.8735
10.0453
8.2188
6.39325
4.56775
2.74235
0.916843
-0.908861
-2.7344
-4.56016
-6.38554
-8.21129
-10.0366
-11.8624
-13.6878
-15.5135
-17.3389
-19.1645
-20.9917
20.9951
19.1732
17.3511
15.5265
13.699
11.8708
10.0432
8.21715
6.39159
4.56613
2.74071
0.915269
-0.910407
-2.73594
-4.56165
-6.387
-8.21269
-10.038
-11.8637
-13.6891
-15.5147
-17.3402
-19.1657
-20.9922
20.9949
19.1729
17.3507
15.5255
13.6971
11.8685
10.0412
8.21534
6.38973
4.56423
2.73902
0.913955
-0.911371
-2.73741
-4.5634
-6.38879
-8.21428
-10.0395
-11.865
-13.6904
-15.516
-17.3414
-19.1669
-20.9927
1.72894
-1.90356
-1.78433
1.68826
-1.97171
-1.91699
1.699
-1.95607
-1.97443
1.7383
-1.89201
-1.94991
1.77822
-1.80977
-1.88174
1.78961
0.190068
0.0705663
-1.73767
-1.79976
1.81897
0.221633
-1.76756
-1.70239
3.46901
1.96371
2.03243
-1.02129
-0.878671
-2.1209
-3.55276
-3.5134
3.44396
1.92439
1.95608
1.70162
0.924921
0.946912
-1.19032
-1.14932
-2.18377
-3.58847
-3.56439
3.44032
1.93164
1.92306
1.68783
0.913069
0.909496
-1.23112
-1.23506
-2.17387
-3.58791
-3.59192
3.45389
1.9666
1.93529
1.71716
0.968685
0.942252
-1.12994
-1.17441
-2.11126
-3.55594
-3.58217
-1.01154
-1.08419
-2.03634
-3.50951
-3.545
-0.909001
-0.953608
1.64984
0.170892
0.178435
-0.0590835
-1.56822
-1.72935
0.951474
1.00213
1.76022
0.882913
0.829237
0.992107
0.892821
-1.14593
-1.06208
-1.85691
-1.1432
-1.19903
0.910153
0.922313
1.69715
0.833462
0.819445
0.825177
0.834288
-1.23084
-1.19569
-1.95558
-1.25206
-1.26982
-1.20213
-1.24823
-1.94789
0.938605
0.915962
1.68977
0.824135
0.850668
0.819796
0.822014
-1.17966
-1.22737
-1.97047
-1.26572
-1.23908
-1.27286
-1.26914
-1.97353
0.856933
0.885528
0.853402
0.852992
-1.08728
-1.12881
-1.9188
-1.18383
-1.17124
-1.23498
-1.18525
-1.9273
0.918858
0.939482
0.889368
0.915482
-0.960162
-1.00531
-1.16553
-1.12326
-1.85082
0.964823
0.93921
0.941946
0.962502
-0.854563
-0.904136
1.77233
1.01244
1.10011
-0.524067
-0.374185
3.473
2.00332
1.9715
1.75936
1.02753
1.00248
-0.501005
-0.528404
-1.96946
-3.46389
-3.49739
0.611736
0.486399
-1.00143
-1.12885
-1.83892
0.998728
0.972491
1.72231
0.44327
0.46299
0.512342
0.520378
0.460758
0.478894
-0.532003
-0.553399
-1.84061
-1.11708
-1.07327
0.522463
0.534113
-1.06694
-1.02495
-1.77057
0.227166
0.956011
1.0047
-0.860654
-0.737971
0.100766
-0.551534
-0.964256
-0.601826
-0.445055
-0.583288
-0.943291
-1.17053
-1.1725
-1.2446
-1.24412
-1.15513
-1.15212
-1.02954
-0.638727
-1.06147
-0.473762
-0.497839
-0.586257
-0.560024
-0.933597
0.420064
0.854776
0.455966
0.477015
0.457625
0.84688
0.480178
0.539544
0.932515
0.471993
0.419085
-1.11212
-1.10771
0.821894
0.822029
0.841946
0.841481
-1.20404
-1.20093
-1.24226
-1.59674
-1.58607
-1.60887
-1.59994
-1.24543
-1.22254
-1.56187
-1.54245
-1.58195
-1.56728
-1.22325
0.837669
0.839497
0.818666
0.819285
-1.19176
-1.19628
-1.23643
-1.60136
-1.61047
-1.58452
-1.59752
-1.23247
-1.2819
-1.61535
-1.6111
-1.61269
-1.61556
-1.28211
0.446927
0.869037
0.499114
0.476968
0.518822
0.497453
0.873105
0.835752
0.480279
0.839519
-1.1076
-1.10953
-1.20954
-1.56474
-1.5792
-1.54484
-1.55994
-1.20841
0.498034
0.510082
0.90103
0.534724
0.51832
0.552351
0.536587
0.904784
0.47994
0.496367
-0.97954
-0.610281
-0.589636
-0.631718
-0.610188
-0.986009
-0.54874
0.525562
0.536798
0.203993
0.535876
0.521913
0.000476831
-0.417278
-0.470848
-0.0326126
3.48635
2.12984
2.00716
1.79372
1.12682
1.11112
-0.0332288
-0.743774
-0.789709
0.419261
1.04977
1.03078
1.76436
0.28603
0.281098
0.187149
0.528958
0.5035
0.289685
0.305806
-0.366989
-0.400933
0.0500362
0.313956
0.622233
0.624769
-0.353355
-0.264242
0.181778
0.931518
1.29329
1.28393
-1.1736
-1.01234
-1.15757
0.909291
1.27155
1.2734
1.27153
1.27018
0.908872
-1.23952
-1.24017
-1.14175
-1.15486
-0.231929
-0.237967
-0.927084
-0.556402
-0.562742
0.881875
0.870764
0.197681
0.947486
0.551737
0.663084
-1.12955
-0.972045
-1.00562
-1.18291
-1.49945
-1.46559
-1.53495
-1.50857
-1.19344
0.913108
1.27535
1.27114
1.28261
1.27582
0.914435
0.826446
0.634723
0.658818
0.630404
0.629453
0.820783
0.66094
0.659036
0.837782
-1.22144
-1.1898
-1.2475
-1.40642
-1.37895
-1.43041
-1.42399
-1.26083
1.27569
1.28026
0.925953
0.830817
0.654407
0.629288
0.818729
0.630002
0.630576
0.626421
0.62596
0.820289
-1.17687
-1.21569
-1.25433
-1.42396
-1.42916
-1.36567
-1.40127
-1.23673
-1.27839
-1.4356
-1.43094
-1.43175
-1.43476
-1.27719
-1.0957
-0.920288
-0.920763
-0.984277
-0.965521
-1.12204
-1.1953
-1.52426
-1.53969
-1.50317
-1.51892
-1.18988
0.928351
0.566792
0.554243
0.6044
0.597227
0.93129
0.328245
0.33005
0.950736
0.61729
0.607841
0.32521
0.327844
-0.223429
-0.225357
-0.46932
-0.140037
-0.445821
-0.280913
-0.513703
-0.342573
-0.31812
-0.355318
-0.518739
0.550625
0.372439
0.475381
0.349968
0.530804
0.438195
0.447669
0.300426
0.289922
0.515723
0.343615
0.349155
0.342944
0.340953
0.516254
0.457116
0.461381
-0.539661
-0.539907
0.528425
0.360892
0.349894
0.303546
0.299631
-0.647782
-0.802474
-0.762788
-0.845054
-0.814167
-0.668391
-1.16902
-1.1623
-1.24139
-1.24287
-1.147
-1.14969
-0.672646
-0.823795
-0.833131
-0.811131
-0.821794
-0.667458
-0.839803
-0.861308
-0.837393
-0.837215
-0.484136
-0.302853
-0.293557
-0.322303
-0.304063
-0.486884
-0.241368
-0.274586
0.447493
0.645295
0.635359
0.668974
0.650019
0.448474
0.612572
0.614426
0.630562
0.614113
0.50601
0.695036
0.67461
0.446872
0.441942
-0.953714
-0.965178
-1.12606
-0.912322
-0.875518
-0.854716
-0.901459
-0.882273
-1.08948
-0.934026
-0.946598
0.626446
0.628782
0.825177
0.567013
0.567447
0.602769
0.570446
0.571438
0.573145
0.568785
0.571714
0.820536
0.629315
0.627256
0.591709
0.587131
0.614679
0.599698
0.598702
0.603874
0.589371
0.596296
0.83793
0.657688
0.65377
-1.2186
-1.19419
-1.41361
-1.40726
-1.24275
-1.25771
-1.42288
-1.415
0.663708
0.660302
0.833587
0.603897
0.604526
0.565586
0.597632
0.598645
0.60633
0.603525
0.599894
0.628649
0.629895
0.819211
0.572485
0.570505
0.573447
0.572469
0.566717
0.565331
0.570038
0.567982
0.819441
0.626718
0.628185
-1.17889
-1.2099
-1.41425
-1.42095
-1.24938
-1.23081
-1.40396
-1.41118
-1.43793
-1.43542
-1.28022
-1.27904
-1.4367
-1.43691
0.446417
0.482445
0.661653
0.670154
0.652174
0.658027
0.472522
0.508123
0.681146
0.658912
0.67195
0.678262
0.500935
0.629736
0.628282
0.614986
0.629484
0.486869
0.644431
0.651347
0.6286
0.639359
0.481585
-0.943583
-0.92619
-1.09933
-0.879054
-0.905656
-0.865095
-0.869603
-0.910116
-1.11789
-0.956071
-0.938759
0.499825
0.324412
0.335594
0.345875
0.322168
0.501245
0.301341
0.480917
0.338328
0.484049
-0.628381
-0.799814
-0.807975
-0.78656
-0.796402
-0.62048
-0.569115
-0.580376
0.332715
0.348331
0.303683
0.323025
-0.195204
-0.22056
-2.00268
-3.50078
-3.47075
-1.76178
-1.07284
-1.03869
0.364056
0.491547
0.473673
-0.00526802
0.0314759
0.297528
-1.7334
-0.99238
-0.985348
1.30864
1.29564
0.934295
-1.18439
-1.14382
-1.15072
-1.23531
-1.2367
1.29324
1.30125
0.95321
-1.13615
-1.12835
-1.16806
-0.918586
-0.90278
-1.07422
0.968823
1.32993
1.31246
0.675077
0.677823
0.833786
-0.905306
-0.927725
-1.08392
0.849675
0.662442
0.674165
-1.22712
-1.15798
-1.16394
-1.19918
-1.32913
-1.32655
-1.26665
-1.37442
-1.36833
-1.23372
0.928963
1.28321
1.28985
0.668777
0.662183
0.845063
-1.1831
-1.14795
-1.14234
-1.224
-1.26237
-1.32456
-1.32722
-1.27486
-1.33338
-1.33145
-1.32987
-1.33228
-1.27257
0.82881
0.685737
0.674305
-1.21985
-1.3592
-1.36423
-1.14762
-1.48082
-1.49745
0.219426
0.217717
0.631966
0.620794
0.953341
0.220153
0.220221
-0.556269
-0.53578
-0.886688
-0.510634
-0.461114
0.439938
0.411472
0.414837
0.463812
0.458315
0.40347
0.407522
0.424149
0.42116
0.475216
-0.508516
-0.498915
-0.54916
0.359918
0.360262
0.529677
-0.820129
-0.409385
-0.425926
-0.571055
-0.614248
-0.668153
-0.653462
-0.747192
-0.730766
-0.749932
-0.710763
-0.526501
-1.11334
-1.11835
-1.16786
-1.17124
-1.11603
-1.1182
-1.24582
-1.24408
-1.09885
-1.09711
-1.15495
-1.14789
-1.09576
-1.09405
-0.714516
-0.72337
-0.692128
-0.698165
-0.648083
-0.732805
-0.741563
-1.071
-0.899381
-0.893068
0.421713
0.453995
0.511742
0.511793
0.541614
0.53505
0.472672
0.492064
0.495575
0.50847
0.491699
0.451986
0.694983
0.700845
0.513444
0.460098
0.394566
0.397484
0.421463
-0.77667
-0.765059
0.652712
0.65728
0.847969
0.498514
0.501614
-1.20833
-1.19811
-1.3527
-1.34699
-1.21401
-1.22933
-1.36235
-1.35741
0.843133
0.662374
0.663488
-1.18624
-1.20039
-1.33937
-1.3391
-1.28167
-1.28225
-1.33934
-1.33938
0.449995
0.499495
0.554726
0.556048
0.532334
0.531054
0.473629
0.688698
0.686927
0.832275
0.512576
0.50971
0.516954
0.52319
0.483533
0.535746
0.534187
0.50716
0.506027
-1.34823
-1.35317
-1.21523
-1.19922
-1.33824
-1.34379
0.521716
0.669682
0.675022
0.66166
0.664917
0.518418
-0.60046
-0.745842
-0.783549
-0.733925
-0.74044
-0.598376
-0.630319
-0.689875
-0.689343
-0.550672
-0.513474
-0.596815
0.190169
0.22642
0.24258
0.214928
0.542531
0.377094
0.363048
0.383983
0.379575
0.518695
-0.0548986
-0.0837847
-0.288586
-0.28235
-0.460282
0.389588
0.41807
0.355534
0.282479
0.280288
0.337354
0.328756
0.181306
0.303593
0.258608
0.254393
0.254158
0.25738
0.306658
0.115697
-0.152077
-0.184101
-0.318231
-0.0593158
-0.0967634
-1.1323
-1.13764
-1.17877
-1.01645
-1.04377
-1.04691
-1.05614
-1.04975
-1.2383
-1.23805
-1.02709
-1.03474
-1.01318
-1.01907
-1.16123
-1.11997
-1.11214
-0.239817
-0.18634
-0.174716
-0.19976
-0.195927
-0.244477
-0.982268
-1.02594
-1.01893
-1.0431
-1.03495
-0.994196
-1.22382
-1.19795
-1.16564
-1.1661
-1.2636
-1.32404
-1.32139
-1.16011
-1.15361
-1.18232
-1.22109
-1.31836
-1.32166
-1.2589
-1.3364
-1.33487
-1.27652
-1.27531
-1.33434
-1.33583
-0.979981
-1.01666
-1.01122
-1.00884
-1.01448
-0.973002
0.215436
0.213337
0.219974
0.21905
0.326273
0.271455
0.27135
-0.11946
-0.122088
-0.22311
-0.159712
-0.166785
-0.16499
-0.15874
-0.222497
-0.415519
-0.433285
-0.491535
-0.358809
-0.176721
-0.256657
-0.217862
-0.322037
-0.297277
-0.22825
-0.330553
-0.387717
-0.3961
-0.381187
-0.382672
-0.32119
-0.371731
-0.40773
-0.40985
-0.405316
-0.411623
-0.366527
0.38591
0.454829
0.424557
0.371105
0.366031
0.38731
0.380344
0.437403
0.46093
0.416268
0.411895
0.297428
0.293783
0.402252
0.403104
0.348518
0.397413
0.399718
0.456614
0.376128
0.374677
0.371839
0.468672
0.407625
0.398259
-0.478766
-0.483287
-0.539278
-0.43784
-0.442897
-0.417846
-0.427926
-0.543379
-0.488847
-0.480775
0.30108
0.246448
0.250337
0.240722
0.242973
0.299326
-0.697442
-0.682067
-0.626316
-0.686339
-0.720746
-0.712103
-1.08837
-1.16624
-1.12096
-1.12667
-1.07043
-1.06351
-1.08356
-1.07768
-1.24391
-1.24436
-1.05747
-1.0644
-1.04256
-1.05032
-1.15167
-1.09183
-1.08525
-1.10514
-1.09926
-1.147
-1.07012
-0.70537
-0.707607
-0.658137
-0.705147
-0.709538
-0.846151
-0.797596
-0.787608
-0.817578
-0.808348
-0.8542
-0.839463
-0.782682
-0.778934
-0.780355
-0.778057
-0.838497
-0.746509
-0.316353
-0.375765
-0.379867
-0.250896
-0.262923
0.41585
0.511119
0.51046
0.450051
0.456327
0.525208
0.516236
0.484159
0.487925
0.552195
0.549672
0.613593
0.484596
0.482218
0.39141
0.390337
0.451027
0.357978
0.426151
0.385901
0.392012
-0.959657
-1.01307
-1.00815
-1.01639
-1.01545
-0.959032
-0.931951
-0.922666
-0.868301
-0.817695
-0.831897
-0.804568
-0.808872
-0.862326
-0.891575
-0.843568
-0.851407
-0.88332
0.566346
0.566291
0.597396
0.550738
0.551682
0.54343
0.579967
0.572018
0.572705
0.56991
0.570909
0.586549
0.523802
0.52659
0.528307
0.525193
0.585652
0.613224
0.554762
0.554158
0.534866
0.551024
0.608451
0.502536
0.496941
0.600893
0.546493
0.543559
0.551463
0.549116
0.602733
0.59191
0.535189
0.531592
0.540264
0.537153
0.593984
-1.2131
-1.19468
0.605542
0.554005
0.555018
0.550792
0.552299
0.605308
0.568901
0.55339
0.546158
0.580757
0.598392
0.539145
0.541164
0.541346
0.53873
0.600516
0.602386
0.54751
0.549215
0.543739
0.545863
0.601213
0.572349
0.571871
0.573603
0.572593
0.566089
0.565452
0.569639
0.569339
-1.18135
-1.2049
-1.28139
-1.33872
-1.33769
-1.3373
-1.3385
-1.28092
0.45114
0.544077
0.550788
0.496174
0.471379
0.531832
0.536465
0.518186
0.515433
0.629285
0.569753
0.571507
0.622731
0.567793
0.552416
0.572735
0.572433
0.627636
0.5234
0.520857
0.531989
0.535782
0.486163
0.507256
0.51772
-0.940433
-0.997331
-0.998908
-0.987478
-0.992918
-0.933796
-0.889302
-0.898029
-0.860561
-0.830706
-0.825946
-0.862838
-0.94711
-0.996654
-1.00197
-0.997269
-0.995029
-0.940827
0.328
0.382469
0.380681
0.38698
0.38489
0.331887
0.331952
0.391909
0.398578
0.380942
0.384884
0.322978
0.296326
0.363727
0.361415
0.371217
0.367421
0.339934
0.38473
0.387588
0.362184
0.371382
0.335693
-0.686242
-0.689587
-0.633758
-0.558614
-0.590854
0.213111
0.216006
0.311
0.250976
0.241508
0.270273
0.265634
0.318243
0.220632
0.221259
-0.0982846
-0.110886
3.23475
2.09939
2.31872
1.64655
0.282799
0.49788
-0.174335
-1.56605
-1.33393
-2.03732
-3.20033
-3.18949
5.0885
3.95705
4.16529
3.503
2.1385
2.10501
1.68402
0.212272
0.288672
-0.0165294
-1.58048
-1.57332
-2.05453
-3.46403
-3.44071
-3.9255
-5.07126
-5.05998
5.08761
3.95269
3.959
3.50078
2.04057
2.14976
1.82993
1.16542
1.13161
0.0224222
-0.736557
-0.744325
-1.96475
-2.55064
-2.538
-3.95876
-5.09555
-5.08235
5.07465
3.92745
3.94778
3.48666
3.0311
3.04151
1.79808
1.57356
1.58737
-2.06285
-2.73944
-2.71127
-3.99975
-5.12046
-5.10791
5.05954
3.90615
3.92093
3.45405
2.9906
2.9989
1.71329
1.47665
1.48453
-2.16115
-2.80859
-2.78566
-4.02934
-5.13967
-5.13148
5.05316
3.90201
3.90358
3.43949
2.97503
2.97625
1.68639
1.44833
1.44895
-2.1884
-2.83059
-2.82747
-4.02966
-5.14248
-5.14355
5.05666
3.91236
3.90362
3.44563
2.98519
2.98085
1.70745
1.47446
1.46915
-2.14567
-2.80136
-2.81549
-4.00288
-5.12684
-5.13671
5.06548
3.92791
3.91617
1.74896
1.52169
1.5155
-2.07407
-2.74474
-2.76764
-3.96222
-5.09945
-5.11402
5.07425
3.94005
3.93162
-1.99957
-2.57468
-2.59007
-3.92131
-5.06826
-5.08394
5.06852
4.15211
4.1627
3.46113
2.10219
2.11734
1.76879
1.09513
1.1033
0.0332699
-0.315385
-0.352173
-2.03596
-3.42546
-3.45369
-4.1193
-5.0356
-5.05248
5.05147
4.14084
4.1441
3.23008
2.09034
2.09973
1.63719
0.26794
0.283722
-0.190898
-1.57064
-1.56911
-2.03368
-3.18209
-3.41985
-4.10164
-5.0213
-5.02565
3.22591
2.31399
2.31733
1.40306
0.488869
0.265042
-0.426806
-1.34274
-1.57108
-2.26162
-3.18008
-3.17978
1.49369
1.50429
1.73843
-1.88834
-1.61708
-1.64118
-1.54898
-1.56936
-1.80208
1.45041
1.45272
1.69048
-1.96758
-1.70392
-1.71104
-1.64816
-1.66713
-1.9287
1.46415
1.4596
1.69542
-1.96157
-1.69821
-1.68904
-1.71233
-1.71465
-1.97567
1.50926
1.50345
1.733
-1.90089
-1.62924
-1.67045
-1.68512
-1.67213
-1.94301
-1.81991
-1.59552
-1.58475
-1.66073
-1.64979
-1.87135
1.10777
1.13174
1.7964
0.17221
0.300441
0.29102
-0.0641072
-0.0862737
0.111918
-1.57365
-1.56246
-1.78969
1.11096
1.17477
1.83046
0.422786
0.448901
0.471815
0.903663
0.94309
0.268089
0.266589
0.357962
-1.75388
-1.51386
-1.52926
-0.986936
-0.985763
-1.72522
3.00872
3.01971
3.47777
1.99188
2.56271
2.54886
2.59067
2.57722
2.00218
-1.00425
-0.866811
-0.896408
-0.752696
-0.776818
-0.898938
-2.77808
-2.74898
-2.0784
-3.53999
-3.0893
-3.10553
-3.05618
-3.07236
-3.52665
2.97923
2.98403
3.44836
1.93349
2.51883
2.51336
2.53663
2.52658
1.93774
1.46436
1.46999
1.70705
0.927086
1.0473
1.04482
1.06787
1.06349
0.942965
-1.10014
-1.10008
-1.15175
-2.82669
-2.81287
-2.16835
-3.58249
-3.14286
-3.1502
-3.12027
-3.13288
-3.5745
2.97753
2.9755
3.43931
1.92418
2.50994
2.5128
2.5101
2.509
1.92267
1.45003
1.44869
1.68675
0.911208
1.03383
1.03529
1.03152
1.03116
0.909032
-2.82078
-2.82789
-2.18643
-3.59156
-3.1544
-3.15008
-3.15458
-3.15598
-3.59304
2.99592
2.99032
3.44953
1.95238
2.5297
2.53687
2.51727
2.52303
1.9477
1.48587
1.48009
1.71222
0.956967
1.30482
1.31376
1.05933
1.06257
0.945787
-1.13249
-1.06805
-1.06722
-2.77537
-2.79452
-2.13748
-3.56597
-3.12383
-3.11186
-3.14329
-3.13448
-3.57485
-1.01767
-0.878453
-0.869315
-1.02837
-1.02518
-1.08102
-2.60654
-2.62164
-2.06477
-3.52156
-3.07181
-3.05767
-3.09893
-3.08544
-3.53346
-0.914724
-0.799899
-0.793869
-0.840458
-0.833631
-0.946932
1.19863
1.09186
1.65291
0.188927
0.866518
0.855911
0.499886
0.488423
0.14909
-0.751531
-0.742947
-0.0414623
-1.57334
-0.98023
-1.1
-1.02675
-0.987952
-1.70236
0.956474
1.07787
1.07258
1.35753
1.33556
0.976081
1.74877
1.51619
1.52956
0.872302
0.714037
0.73021
0.977924
0.867742
0.885477
0.771894
0.784585
0.90451
-1.14112
-1.09068
-1.09698
-1.00969
-1.01826
-1.0708
-1.63542
-1.65456
-1.87365
-1.15806
-1.26418
-1.25049
-1.32476
-1.3168
-1.21175
0.910978
1.03282
1.03202
1.04247
1.04003
0.919108
1.69335
1.45579
1.45968
0.830912
0.771047
0.773991
0.756653
0.756875
0.820232
0.775695
0.776811
0.836039
-1.6904
-1.70119
-1.96217
-1.25433
-1.3011
-1.29787
-1.21071
-1.34044
-1.33328
-1.29553
-1.29133
-1.24338
-1.93897
-1.67232
-1.68659
0.935119
1.05279
1.05592
1.03729
1.03954
0.91956
1.69226
1.45563
1.45241
0.825759
0.763616
0.760447
0.791117
0.788861
0.848711
0.819036
0.756343
0.75659
0.758167
0.756971
0.821461
-1.70877
-1.70139
-1.96643
-1.28871
-1.2923
-1.24195
-1.97533
-1.71414
-1.71096
0.860959
0.717356
0.711382
0.77179
0.767587
0.88153
0.856615
0.79507
0.793667
0.709822
0.702756
0.848752
-1.08988
-1.03294
-1.03093
-1.07044
-1.07313
-1.12767
-1.64869
-1.63418
-1.91
-1.17952
-1.31632
-1.32112
-1.28209
-1.28782
-1.17709
-1.2302
-1.28042
-1.28459
-1.32603
-1.33189
-1.1948
-1.93542
-1.66747
-1.6536
0.922132
0.810288
0.806934
0.827956
0.825247
0.93683
0.893227
0.779522
0.775606
0.803394
0.799648
0.911982
-0.966696
-0.853774
-0.847156
-0.866165
-0.856643
-0.998945
-1.15951
-1.27037
-1.27629
-1.45817
-1.47496
-1.14162
-1.86107
-1.63891
-1.62812
0.972382
0.645687
0.63552
0.611443
0.643063
0.968989
0.945041
0.833766
0.830772
-0.881568
-0.525368
-0.497991
1.54399
1.55891
1.78516
1.04855
1.38921
1.36496
1.36796
1.35096
1.06181
-0.297355
-0.327172
-0.397667
1.99049
2.55901
2.56583
2.5443
2.55174
1.98592
1.53326
1.52759
1.75422
1.01724
1.30085
1.30706
1.28729
1.29429
1.01365
-0.504488
-0.444572
-0.441439
-0.468876
-0.467956
-0.525707
-2.5467
-2.56038
-1.99129
0.591489
0.540225
0.564489
0.415747
0.427144
0.49929
-1.05755
-1.40322
-1.36889
-1.45398
-1.41614
-1.077
-1.82044
-1.5915
-1.61381
0.987556
1.33061
1.28094
1.31738
1.32697
0.983894
1.72755
1.49758
1.49173
0.514082
0.458367
0.456866
0.462341
0.460078
0.51844
-0.536292
-0.478684
-0.472626
-1.61726
-1.6064
-1.8303
-1.09831
-1.4348
-1.45236
-1.35832
-1.42894
-1.09213
0.524804
0.468393
0.465329
0.477299
0.475689
0.532364
-1.04758
-1.33518
-1.3472
-1.31294
-1.32369
-1.04145
-1.77992
-1.55174
-1.5416
0.574044
0.610124
0.288793
1.02385
0.712184
0.679307
0.703343
0.719952
1.02349
-0.845337
-0.71292
-0.731219
-0.418957
-0.405513
-0.811022
0.158823
-0.26556
-0.290866
-0.819385
-0.855987
-0.984797
-0.506056
-0.650187
-0.622475
-0.637429
-0.620995
-0.565429
-0.921456
-0.802737
-0.826328
-0.889497
-0.88069
-1.02374
-1.06506
-1.00962
-1.00711
-0.477692
-0.418452
-0.414727
-0.438657
-0.434943
-0.494136
-0.576252
-0.72014
-0.727084
-0.70564
-0.71291
-0.572103
-0.940261
-0.82671
-0.819767
0.698129
0.709621
0.863012
0.839561
0.680054
0.693761
0.486641
0.55326
0.546902
0.606028
0.595152
0.528914
0.917937
0.79959
0.814156
-1.0598
-1.06454
-1.11786
-1.10123
-1.04895
-1.05458
0.75787
0.758418
0.823
0.821151
0.757525
0.757724
0.780096
0.781265
0.844105
0.839724
0.778877
0.779501
-1.30472
-1.30175
-1.2398
-1.59329
-1.48805
-1.49134
-1.48092
-1.48382
-1.5897
-1.60612
-1.49974
-1.50194
-1.49431
-1.49717
-1.60322
-1.24935
-1.31154
-1.30797
-1.27623
-1.27319
-1.22053
-1.55587
-1.45155
-1.45741
-1.43811
-1.44514
-1.5495
-1.5773
-1.47231
-1.47683
-1.46266
-1.46758
-1.5725
-1.22415
-1.27881
-1.27673
0.779774
0.778632
0.836832
0.840351
0.781953
0.780978
0.755536
0.755725
0.819172
0.81895
0.755517
0.755572
-1.30393
-1.30751
-1.24051
-1.60475
-1.49167
-1.48807
-1.49827
-1.49515
-1.6079
-1.58903
-1.4802
-1.48049
-1.48467
-1.48209
-1.59354
-1.22911
-1.29674
-1.30026
-1.61439
-1.50594
-1.50622
-1.50375
-1.50513
-1.61307
-1.6142
-1.50315
-1.50101
-1.50578
-1.50481
-1.61528
0.755124
0.720023
0.865137
0.517943
0.573055
0.57461
0.556134
0.556274
0.496133
0.877284
0.762895
0.758655
0.844018
0.698951
0.689935
-1.05307
-1.05042
-1.10567
-1.11126
-1.05627
-1.05478
-1.2633
-1.26366
-1.21011
-1.56945
-1.46126
-1.45604
-1.4742
-1.46736
-1.57427
-1.54995
-1.44142
-1.43624
-1.45132
-1.44653
-1.55506
-1.20654
-1.26135
-1.2621
0.498763
0.44181
0.442253
0.453796
0.449228
0.506879
0.788047
0.78374
0.897145
0.531343
0.588458
0.591461
0.575239
0.575722
0.5175
0.54299
0.687079
0.691368
0.679298
0.682971
0.540355
0.908409
0.795857
0.792082
0.479812
0.4215
0.423408
0.441307
0.437788
0.493205
-0.866705
-0.860184
-0.973069
-0.607645
-0.664996
-0.667962
-0.647203
-0.650644
-0.593271
-0.669928
-0.672096
-0.61005
-0.992425
-0.879285
-0.87321
0.52933
0.389252
0.385076
0.40284
0.391847
0.533635
0.538168
0.482143
0.47943
-0.42577
-0.279705
-0.261592
-0.411242
-0.407752
-0.466976
2.13302
2.58201
2.58264
2.57207
2.57759
2.0165
1.12152
1.34397
1.34853
1.33414
1.33912
1.11603
-0.267697
-0.262172
-0.025873
-0.753227
-0.502686
-0.503039
-0.48931
-0.516762
-0.771427
1.04281
1.32413
1.32924
1.31304
1.31873
1.03999
1.7692
1.54403
1.53875
0.230803
0.247291
0.233879
0.51858
0.406666
0.39245
0.39782
0.40295
0.509028
-0.376646
-0.241248
-0.221836
-0.250176
-0.257894
-0.38668
0.147195
-0.01192
-0.0428541
0.424769
0.485065
0.337107
0.630678
0.537513
0.523488
0.504802
0.531122
0.628695
-0.335704
-0.253822
-0.272809
-0.11668
-0.0603691
-0.268826
0.27139
0.0251041
0.0346362
1.05264
1.0498
0.929171
1.28926
1.16969
1.17282
1.1645
1.16716
1.28749
-1.15409
-1.09957
-1.10065
1.03189
1.03266
0.910001
1.27129
1.15131
1.15074
1.15374
1.1525
1.27312
1.27016
1.15028
1.15089
1.15019
1.15025
1.27102
0.908832
1.03116
1.03132
-1.07852
-1.07246
-1.13672
-0.812891
-0.80616
-0.920702
-0.575431
-0.691303
-0.698425
-0.678532
-0.684869
-0.56938
0.879526
0.658799
0.608957
0.648237
0.654292
0.875262
0.206599
0.427514
0.421391
0.830868
0.849127
0.962848
0.594385
0.737124
0.714443
0.781046
0.760293
0.611348
-1.07649
-1.08329
-1.13579
-1.28785
-1.27649
-1.17118
-1.48799
-1.38196
-1.39314
-1.3577
-1.37035
-1.47781
-1.52694
-1.42204
-1.43028
-1.4034
-1.41317
-1.51839
-1.20286
-1.3078
-1.29821
1.03491
1.03372
0.911952
1.27305
1.15344
1.15491
1.15141
1.15249
1.273
1.27945
1.15997
1.16234
1.15625
1.15816
1.27854
0.916324
1.03798
1.03623
0.763867
0.7675
0.829235
0.643602
0.705335
0.699857
0.715032
0.711
0.653179
0.630137
0.694673
0.694725
0.694484
0.694538
0.629753
0.819943
0.75694
0.757194
0.661011
0.717835
0.717076
0.7177
0.717873
0.660207
0.836278
0.777294
0.777823
-1.30054
-1.30206
-1.25286
-1.40427
-1.35579
-1.35518
-1.4277
-1.37192
-1.3739
-1.36817
-1.37023
-1.42689
1.27645
1.15746
1.15561
1.16201
1.15979
1.27908
0.922917
1.04201
1.04446
0.771516
0.767727
0.828883