/*--------------------------------*- C++ -*----------------------------------*\
| =========                 |                                                 |
| \\      /  F ield         | OpenFOAM: The Open Source CFD Toolbox           |
|  \\    /   O peration     | Version:  5.x                                   |
|   \\  /    A nd           | Web:      www.OpenFOAM.org                      |
|    \\/     M anipulation  |                                                 |
\*---------------------------------------------------------------------------*/
FoamFile
{
    version     2.0;
    format      ascii;
    class       volScalarField;
    location    "100";
    object      p_rgh;
}
// * * * * * * * * * * * * * * * * * * * * * * * * * * * * * * * * * * * * * //

dimensions      [0 2 -2 0 0 0 0];

internalField   nonuniform List<scalar> 
6584
(
0.00703908
0.00750167
0.0080513
0.00886733
0.00989958
0.0112155
0.0127933
0.0146432
0.0165719
0.0184488
0.0197402
0.0198739
0.0184354
0.0155102
0.0116669
0.00760854
0.00389015
0.000681714
-0.00191492
-0.00396011
-0.0055071
-0.00667978
-0.00745147
-0.00807945
0.006877
0.00738541
0.00790414
0.00871574
0.00972689
0.0110455
0.0126447
0.014588
0.0166594
0.0187745
0.0203111
0.0206161
0.0191363
0.0159623
0.0118228
0.00745507
0.00358508
0.000316318
-0.00226462
-0.00427133
-0.00576357
-0.00690803
-0.0076249
-0.00830319
0.00652897
0.00705225
0.00751441
0.00829059
0.00924801
0.0105571
0.0122102
0.0144137
0.0168053
0.0190204
0.0218644
0.0232438
0.0222135
0.0186068
0.0135308
0.00687844
0.00265176
-0.000744608
-0.0032613
-0.00513509
-0.00647655
-0.00751203
-0.00811626
-0.00878254
0.00607033
0.00656567
0.00694531
0.00764056
0.00849371
0.0097291
0.0114133
0.0138853
0.0171532
0.0202904
0.0247996
0.0279376
0.0272179
0.0218823
0.0145897
0.00787113
0.00101964
-0.00250589
-0.00484254
-0.00645059
-0.00754096
-0.0083798
-0.00882092
-0.00940021
0.00553415
0.00595929
0.00622572
0.00677573
0.007445
0.00846806
0.0100204
0.0125387
0.0155864
0.0212044
0.0282897
0.0351185
0.0353396
0.026218
0.0146307
0.00569898
-0.000105118
-0.00527221
-0.00714375
-0.00821178
-0.00891436
-0.00944859
-0.00967542
-0.0100975
0.00494847
0.00526135
0.00538171
0.0057083
0.00608411
0.00663106
0.00774767
0.0093623
0.0134071
0.0196004
0.0297531
0.0468477
0.0537283
0.0353381
0.0120593
0.000555178
-0.00501046
-0.00893884
-0.010053
-0.0103465
-0.0105279
-0.0106528
-0.0106197
-0.0108191
0.00435473
0.00452064
0.00447289
0.00451258
0.00451269
0.00441023
0.00480034
0.00577372
0.00776858
0.0127061
0.0257566
0.0572056
0.100254
0.0381553
0.00466819
-0.00964321
-0.0122557
-0.0137194
-0.0134742
-0.0127296
-0.0122592
-0.0118891
-0.011567
-0.0114925
0.00380021
0.00380097
0.00358471
0.0033113
0.00288882
0.00204219
0.00131974
0.00116073
-0.000286813
-0.00122192
0.00270634
0.0221185
-0.00330177
-0.0238923
-0.0257956
-0.0218834
-0.0190778
-0.0170381
-0.0151056
-0.0139172
-0.0130197
-0.0124116
-0.0120389
0.00332914
0.00317036
0.00281401
0.00226082
0.00145319
-5.31784e-05
-0.0019179
-0.00357981
-0.00883897
-0.0179961
-0.0318628
-0.0699156
-0.115551
-0.0642194
-0.0435936
-0.0316157
-0.0239074
-0.0200724
-0.0170843
-0.0152525
-0.0138872
-0.0130425
-0.0123857
0.00297489
0.00268823
0.00224984
0.00151698
0.000473569
-0.00137757
-0.00395732
-0.00673973
-0.0141011
-0.0276394
-0.0505343
-0.103319
-0.169341
-0.0896108
-0.0544987
-0.0378823
-0.026853
-0.0218385
-0.0182564
-0.0160225
-0.0143492
-0.0133633
-0.012478
0.00275217
0.00238897
0.00194289
0.00116948
0.000104127
-0.00166863
-0.00427507
-0.00731142
-0.0140916
-0.0259753
-0.0459258
-0.0844859
-0.153908
-0.0877603
-0.053961
-0.0384451
-0.0270648
-0.0219154
-0.0183817
-0.0160812
-0.0143226
-0.0133179
-0.012292
0.0026535
0.00227153
0.00188682
0.00120465
0.000314136
-0.00103115
-0.00304567
-0.00548915
-0.00969096
-0.0159668
-0.025913
-0.0395293
-0.0956247
-0.0648366
-0.0437859
-0.0336876
-0.0246786
-0.0203923
-0.0174827
-0.0154406
-0.0138095
-0.0129057
-0.0118391
0.00265251
0.00230186
0.002024
0.00151848
0.000920969
0.00015801
-0.000952775
-0.00236677
-0.00352944
-0.00384559
-0.00338305
0.00431309
-0.032267
-0.0350659
-0.0296219
-0.0260016
-0.020642
-0.0177902
-0.0158066
-0.0142489
-0.0129032
-0.0121803
-0.0111629
0.00271275
0.00242673
0.00227079
0.00196864
0.00168746
0.00146924
0.00123911
0.00169932
0.00175964
0.00519657
0.0111151
0.0311909
0.0886605
0.00918751
-0.0117151
-0.0169523
-0.0181058
-0.0161415
-0.0147768
-0.0137199
-0.012726
-0.0117324
-0.0112304
-0.0103274
0.00279735
0.00259031
0.00254514
0.0024239
0.00240379
0.0025648
0.00292038
0.00389796
0.0049865
0.00912739
0.0157142
0.0279754
0.034531
0.0157497
-0.00142455
-0.00857359
-0.0111461
-0.0120332
-0.0118755
-0.0115636
-0.0110872
-0.0104343
-0.0101531
-0.00939856
0.00287607
0.00274705
0.00278663
0.00280081
0.00295712
0.00333716
0.0039676
0.00528861
0.00650087
0.00963522
0.0142643
0.019595
0.0200069
0.0100746
0.00235065
-0.00396098
-0.0076405
-0.00887328
-0.00940651
-0.00956541
-0.00949403
-0.00913198
-0.0090392
-0.00844528
0.00292853
0.00286705
0.0029613
0.00306247
0.00331367
0.00378362
0.00448115
0.00575909
0.00755958
0.00861557
0.0116798
0.0141913
0.0127975
0.00765594
0.00254952
-0.00159789
-0.00493574
-0.00647309
-0.00739472
-0.0078281
-0.00803932
-0.00789124
-0.00794593
-0.00750499
0.00294379
0.00293507
0.00305669
0.00320193
0.00348425
0.00393571
0.00459052
0.00545964
0.00711532
0.00762253
0.00961508
0.00961274
0.00855799
0.00489146
0.000752389
-0.000528409
-0.00322318
-0.00473639
-0.00581641
-0.00637576
-0.00676483
-0.00676284
-0.00691973
-0.00661088
0.00291858
0.00294732
0.00307577
0.00323278
0.00350865
0.00388075
0.00446493
0.00494669
0.00625865
0.0060113
0.00795878
0.00673898
0.00577702
0.00408
0.00039342
-0.000123836
-0.00250336
-0.00356489
-0.00464297
-0.00519978
-0.0056813
-0.00576654
-0.00598564
-0.00578481
0.00285491
0.0029076
0.00303015
0.00317879
0.00343262
0.00370819
0.00422296
0.00443336
0.0054926
0.00507463
0.0063536
0.00547381
0.00476916
0.00334456
0.000631927
0.000140449
-0.00195963
-0.00270105
-0.00375489
-0.00424927
-0.00477175
-0.00490097
-0.00515269
-0.00503552
0.00275759
0.00282338
0.00293338
0.00306249
0.00328873
0.00347099
0.00391962
0.00394504
0.00479205
0.00430388
0.00509183
0.00420908
0.00368635
0.00268865
0.000662181
0.000274289
-0.00152513
-0.00205342
-0.00306425
-0.00347693
-0.00401111
-0.00415586
-0.00441975
-0.00436436
0.00263248
0.0027032
0.00279784
0.00290249
0.00310004
0.00320111
0.00358743
0.00348849
0.00415975
0.00363916
0.0041889
0.00330134
0.00288805
0.00215357
0.000569076
0.000306466
-0.00121895
-0.00158061
-0.00252452
-0.00285077
-0.00337664
-0.00351825
-0.00378075
-0.00376855
0.00248545
0.00255548
0.00263441
0.00271398
0.00288414
0.00292001
0.00325035
0.00307354
0.00360971
0.00308959
0.00349047
0.0026622
0.00232413
0.00173797
0.000469461
0.00030079
-0.000999141
-0.00123183
-0.00209891
-0.00234327
-0.00284752
-0.00297456
-0.00322693
-0.00324284
0.00232182
0.00238774
0.00245198
0.00250863
0.00265378
0.00264086
0.0029221
0.00270149
0.00313352
0.00263567
0.00292948
0.0021717
0.0018889
0.00140711
0.000377579
0.000279465
-0.000834187
-0.000968871
-0.00175823
-0.00193001
-0.00240506
-0.00251154
-0.00274858
-0.00278085
0.00214623
0.00220624
0.00225737
0.00229476
0.00241746
0.00237055
0.00260922
0.0023694
0.00271942
0.00226074
0.0024762
0.00178881
0.0015413
0.00113871
0.000292862
0.000250017
-0.000707914
-0.000767787
-0.00148192
-0.00159179
-0.00203336
-0.00211683
-0.00233578
-0.00237558
0.0019625
0.0020161
0.00205585
0.00207818
0.00218101
0.00211264
0.00231396
0.00207226
0.00235546
0.00194166
0.00209787
0.00147874
0.00125733
0.00092355
0.000220453
0.000219035
-0.000609494
-0.000612405
-0.00125549
-0.00131342
-0.00171941
-0.00177971
-0.00197937
-0.00202041
0.00177359
0.00182124
0.00185123
0.00186281
0.00194784
0.00186844
0.0020366
0.0018053
0.00203364
0.00166699
0.00178163
0.00122447
0.00103418
0.000756956
0.000160667
0.000189002
-0.000531818
-0.000491213
-0.00106776
-0.00108296
-0.00145313
-0.00149135
-0.00167144
-0.00170904
0.00158183
0.00162458
0.00164617
0.00165103
0.00171988
0.00163786
0.00177618
0.00156446
0.00174815
0.00143107
0.0015158
0.00101869
0.000855171
0.000610545
9.8791e-05
0.00015754
-0.000468754
-0.000393967
-0.000909002
-0.000889893
-0.00122458
-0.00124279
-0.00140373
-0.00143519
0.00138914
0.00142821
0.00144248
0.00144418
0.00149827
0.00142003
0.00153169
0.00134515
0.00149145
0.0012253
0.00128588
0.000844357
0.000701735
0.000487896
4.66296e-05
0.000129517
-0.000416709
-0.000315387
-0.000773656
-0.000726867
-0.00102705
-0.00102752
-0.00117003
-0.00119385
0.00119711
0.00123373
0.0012416
0.00124303
0.0012834
0.00121348
0.00130166
0.0011422
0.00125617
0.00104063
0.00108272
0.00069425
0.000569259
0.000385625
2.61449e-06
0.000104531
-0.000372941
-0.000250841
-0.000656606
-0.000587572
-0.000854574
-0.000839583
-0.000964472
-0.000980024
0.00100699
0.00104213
0.00104431
0.00104765
0.00107511
0.00101685
0.00108332
0.000951514
0.00103771
0.000871354
0.000900356
0.000564119
0.000455356
0.000299114
-3.61523e-05
8.11012e-05
-0.000335518
-0.000196858
-0.000553437
-0.000466802
-0.00070195
-0.000673856
-0.000782127
-0.000789356
0.000819862
0.000854082
0.000851364
0.000857606
0.000873849
0.000827422
0.000873057
0.000767875
0.000829626
0.000710666
0.000733566
0.00045141
0.00036082
0.00022622
-7.14364e-05
5.6971e-05
-0.000304091
-0.000151441
-0.000460965
-0.000360661
-0.000564803
-0.00052596
-0.000618517
-0.000617961
0.000636305
0.000669386
0.000662797
0.000672433
0.000679223
0.000643778
0.000671128
0.000589142
0.000629096
0.000553619
0.000577017
0.000352384
0.00028369
0.000163282
-0.000102854
3.2195e-05
-0.000274941
-0.000111514
-0.00037437
-0.000264944
-0.000438514
-0.000391889
-0.000469517
-0.00046227
0.00045879
0.000490252
0.000480996
0.000493826
0.000491783
0.000465418
0.000473113
0.000399604
0.000413824
0.000377887
0.000424742
0.000280967
0.000261025
0.000116856
-0.000145693
-1.50662e-05
-0.000262309
-8.09094e-05
-0.000292215
-0.000177709
-0.000319377
-0.000268866
-0.000331848
-0.000320104
0.000280131
0.000305331
0.000296136
0.00030895
0.00030404
0.000287902
0.000288293
0.000234146
0.000233539
0.000220277
0.000267685
0.000191919
0.00019797
5.89667e-05
-0.000148747
-2.81673e-05
-0.00020416
-4.08815e-05
-0.000196373
-9.5058e-05
-0.000199818
-0.000153469
-0.000199753
-0.000186195
0.000137177
0.000162541
0.000155453
0.000174107
0.000164388
0.000152536
0.000112196
-6.3819e-05
-0.000184281
-0.00019708
5.21751e-05
0.000361394
0.000714076
6.69167e-05
-0.000434731
-0.000338234
-0.000357027
-3.79549e-05
-0.000111674
-1.53274e-05
-8.19977e-05
-4.60128e-05
-7.69986e-05
-6.83409e-05
-0.0615262
-0.113131
0.00159661
-0.10218
-0.180359
-0.126216
-0.0890431
-0.167381
-0.183172
-0.045472
-0.109738
-0.161829
-0.000504902
-0.0381951
-0.100538
0.0297217
0.100536
0.0967102
0.0129102
-0.0299519
0.0329964
0.100395
0.016574
0.0491614
-0.0239346
-0.0535367
0.0181358
-0.0832893
0.0534766
-0.103935
-0.0617614
-0.0235021
-0.0481429
-0.0926261
-0.0612193
-0.0890894
-0.130029
-0.107155
-0.217796
-0.181257
-0.166269
-0.0986728
-0.0734185
-0.0490435
-0.0828301
-0.0937793
-0.101754
-0.139027
-0.144051
-0.25242
-0.25568
-0.159414
-0.102473
-0.102858
-0.0316502
-0.0435919
-0.0786993
-0.0689356
-0.0825857
-0.110413
-0.169036
-0.202669
-0.103588
-0.0782101
-0.0983315
-0.0767545
-0.118188
-0.0398465
-0.0432069
-0.0697692
0.014561
-0.0242777
0.0304164
0.0370123
0.0902991
0.0363664
0.0226492
0.015259
-0.102362
-0.0505912
-0.0296151
-0.0563811
-0.111094
0.0577876
-0.0461944
-0.177494
-0.0951398
-0.067692
-0.0910321
-0.173575
-0.143317
-0.132239
-0.0935344
-0.136635
-0.147877
-0.115628
-0.136213
-0.253284
-0.219796
-0.164255
-0.221898
-0.239194
-0.176918
-0.220004
-0.156648
-0.11399
-0.13648
-0.0994962
-0.141236
-0.116587
-0.147651
-0.142941
-0.20478
-0.250537
-0.180272
-0.235756
-0.209943
-0.240675
-0.237564
-0.182945
-0.0809788
-0.0507174
-0.11414
-0.0853065
-0.121305
-0.165405
-0.133617
-0.16188
-0.12069
-0.207645
-0.164506
-0.141293
-0.0148575
0.00802138
-0.0465094
-0.0185111
-0.0301477
-0.0710037
-0.115201
-0.0761809
-0.0732937
0.036365
0.0539708
0.0108124
0.0337439
0.0435287
0.018619
-0.0171131
-0.0399844
0.0517854
-0.0315776
0.124704
-0.00861427
-0.00194487
-0.0380765
-0.0218956
-0.0191863
-0.0463109
0.00375692
-0.0216542
0.00624203
-0.0133373
-0.0346343
0.107594
-0.0194029
0.0446106
-0.0771347
-0.0503462
-0.0503669
-0.0785259
-0.0632304
-0.0687032
-0.0519563
0.00220965
0.0131912
-0.0494616
-0.0321403
-0.025026
-0.0465528
-0.0644008
-0.0705189
-0.0313192
0.0145969
0.0264852
-0.025743
0.0101117
-0.00722443
0.162521
0.10768
0.0720523
0.0696488
0.107161
0.163524
-0.0498353
-0.0279354
-0.0462565
0.112931
-0.0286977
-0.00787537
-0.20837
-0.205566
-0.258565
-0.258305
-0.186939
-0.189039
-0.0937907
-0.079771
-0.0969176
0.0311937
0.00732765
-0.0219688
0.00239096
-0.0066763
-0.0947853
-0.0850238
-0.120568
-0.090784
-0.123011
-0.0926906
-0.0851357
-0.0247253
-0.00522391
-0.0331786
-0.0892301
-0.145964
-0.141417
-0.143517
-0.143648
-0.126439
-0.127199
-0.244927
-0.244957
-0.229486
-0.201676
-0.190725
-0.213029
-0.204727
-0.230256
-0.198796
-0.167139
-0.148041
-0.186713
-0.17256
-0.202266
-0.131615
-0.129434
-0.148451
-0.147591
-0.23674
-0.238023
-0.222258
-0.20721
-0.215243
-0.190848
-0.203668
-0.220768
-0.244228
-0.219229
-0.215113
-0.217177
-0.219503
-0.244336
-0.0708863
-0.0683181
-0.0713171
-0.0878218
-0.0512168
-0.0688068
-0.0638873
-0.102583
-0.0900795
-0.0981875
-0.140831
-0.143757
-0.188372
-0.172313
-0.185793
-0.153527
-0.167687
-0.184336
-0.0125085
0.000750107
-0.0340416
-0.032454
-0.0487869
-0.0150338
-0.0302081
-0.0300489
-0.0298024
-0.0145599
-0.0476513
-0.0481273
-0.0252374
-0.0765855
-0.0508908
-0.0535514
-0.0509354
0.0474305
0.0614108
0.0831861
0.0282639
0.04284
0.105592
0.0555126
0.0338601
0.225569
0.00888237
0.0220555
0.00245862
0.0174032
0.0287964
0.0111084
0.0571761
0.0415297
0.0456491
0.154474
0.00562326
-0.0156406
-0.0162813
0.0111139
0.0149893
0.0907539
0.0674693
0.072785
0.0165559
0.0206308
0.0660335
0.0612872
0.0983351
0.242093
0.171659
0.122372
0.1438
0.182586
0.246888
-0.122694
-0.100881
-0.110346
-0.213478
-0.20085
-0.193433
-0.143788
-0.122221
-0.119977
-0.122558
-0.123689
-0.144456
-0.256156
-0.256677
-0.177976
-0.195017
0.0413614
0.0320774
-0.00101962
0.00600183
0.0263453
0.0549615
0.0470526
0.0588564
0.0103455
-0.0126655
0.10096
-0.165239
-0.188172
-0.199307
-0.130499
-0.106146
-0.0733277
-0.140758
-0.115059
-0.141251
-0.139679
-0.118851
-0.122998
-0.111664
-0.118404
-0.138134
-0.140386
-0.151177
-0.146508
-0.159553
-0.15849
-0.146031
-0.145381
-0.143014
-0.132313
-0.250717
-0.229417
-0.226521
-0.210572
-0.209651
-0.23191
-0.22692
-0.23593
-0.11756
-0.112542
-0.127951
-0.137665
-0.145406
-0.151712
-0.148832
-0.161107
-0.159949
-0.153564
-0.157906
-0.145248
-0.217673
-0.245949
-0.230423
-0.22757
-0.231104
-0.197497
-0.206488
-0.216955
-0.242703
-0.235824
-0.232037
-0.233247
-0.235184
-0.241678
-0.130067
-0.13037
-0.123729
-0.17711
-0.165625
-0.155443
-0.144304
-0.134396
-0.148709
-0.115058
-0.129462
-0.138345
-0.00443748
0.000518959
-0.0130336
0.0115806
0.00256278
-0.00118465
0.0507198
0.0577609
0.0207076
0.0248555
0.014702
0.0391142
0.048054
0.0538235
0.0447861
0.0306318
0.172168
0.055056
0.00671131
-0.00724623
-0.00623301
0.00799826
-0.0101587
-0.0108885
0.0462468
0.0420192
0.146837
0.015164
0.0272759
-0.062055
-0.0584932
0.00544196
0.00978052
0.00707949
0.00894733
0.00420382
0.0148723
0.0104158
0.0085275
-0.0415829
-0.0387496
-0.0343824
-0.0371834
0.0194822
0.0206179
0.0163335
0.022204
0.0275145
-0.0871092
-0.0670449
-0.0283668
-0.107548
-0.0780213
-0.0974832
-0.212289
-0.19687
-0.25714
-0.25832
-0.180331
-0.193003
-0.0937473
-0.0887073
-0.0978141
-0.0758782
-0.0852727
-0.0884655
-0.109949
-0.118252
-0.100479
-0.10732
0.0207964
0.0282117
0.0382325
0.0119255
0.0244399
0.0179267
0.0255706
0.0117514
-0.109658
-0.0919763
-0.104269
-0.0705896
-0.0873201
-0.105703
-0.121002
-0.127573
-0.108026
-0.11845
-0.0624721
-0.0446737
-0.0650105
-0.0642694
-0.071866
-0.162004
-0.185204
-0.161982
-0.174356
-0.139366
-0.116676
-0.170708
-0.145543
-0.122575
-0.141046
-0.157832
-0.155384
-0.152602
-0.140691
-0.154441
-0.157497
-0.15085
-0.153173
-0.161014
-0.16165
-0.157786
-0.159614
-0.14603
-0.157681
-0.155865
-0.139323
-0.143848
-0.129603
-0.137209
-0.147843
-0.149767
-0.144774
-0.147394
-0.131836
-0.142311
-0.139461
-0.250266
-0.242029
-0.219384
-0.212388
-0.228233
-0.234916
-0.226379
-0.220304
-0.137897
-0.143475
-0.135683
-0.14808
-0.142075
-0.156048
-0.150284
-0.131892
-0.12374
-0.139978
-0.133896
-0.161059
-0.161074
-0.148304
-0.163623
-0.164258
-0.16207
-0.163787
-0.161232
-0.156888
-0.163647
-0.161883
-0.146491
-0.158722
-0.160635
-0.227881
-0.242973
-0.2204
-0.225198
-0.227851
-0.217502
-0.210118
-0.217852
-0.237679
-0.235434
-0.24368
-0.242717
-0.236871
-0.236664
-0.0772095
-0.0778582
-0.0757178
-0.0691346
-0.0851502
-0.07806
-0.0814764
-0.0579219
-0.0571712
-0.0516302
-0.066768
-0.0596058
-0.0606046
-0.112467
-0.105553
-0.121137
-0.114794
-0.0965285
-0.0941942
-0.0874687
-0.103233
-0.0962909
-0.0985598
-0.14164
-0.133121
-0.133156
-0.141324
-0.149599
-0.121289
-0.137688
-0.15569
-0.152433
-0.162604
-0.147548
-0.00655799
-0.00469372
-0.0103064
0.00259899
-0.00295898
-0.00465882
0.0038309
-0.0228778
-0.0128063
-0.0206441
-0.062771
-0.0638723
-0.0729086
-0.0518397
-0.0610265
-0.0595647
-0.0633508
-0.0665509
0.0604043
0.0742073
0.0296394
0.0364503
0.0744613
0.0574772
0.00928517
-0.0118786
0.0102113
-0.000951026
0.0166888
0.0339923
0.322032
0.244101
0.209011
0.244364
0.271315
0.330527
0.0429493
0.0879857
0.0589706
-0.0852913
-0.0984849
-0.11967
-0.215944
-0.229404
-0.231193
-0.254797
-0.255885
-0.098593
-0.0898552
-0.0986952
-0.217239
-0.214328
-0.200203
-0.121284
-0.112674
-0.109309
-0.0845174
-0.0636476
-0.0813958
-0.123584
-0.116074
-0.10574
-0.11011
-0.134018
-0.116841
-0.119016
-0.132493
-0.125669
-0.251785
-0.233728
-0.23605
-0.221773
-0.242782
-0.241488
-0.237839
-0.205812
-0.201455
-0.213905
-0.1246
-0.109417
-0.102183
-0.121804
-0.128184
-0.1223
-0.206889
-0.22129
-0.21907
-0.249118
-0.234139
-0.240068
-0.241428
-0.241398
-0.244952
-0.243982
-0.2429
-0.244212
-0.239477
-0.110886
-0.113613
-0.119694
-0.200579
-0.193472
-0.196772
-0.0985965
-0.0947501
-0.109816
0.054318
0.0562251
0.0405429
0.0285992
0.0236569
0.0477309
0.0514707
0.0323376
0.0487313
0.0324389
-0.0197333
-0.0148656
-0.0663845
-0.051264
-0.0535393
-0.0544614
-0.046943
-0.0466742
-0.0489606
-0.0324267
-0.0346613
-0.0343184
-0.0493979
-0.0460662
-0.0433609
0.0274513
0.0222209
0.0210323
0.100618
0.157857
0.130286
-0.0636751
-0.0639352
-0.0538922
-0.0385498
-0.12255
-0.113777
-0.0156159
0.0234545
0.0320265
-0.212412
-0.223869
-0.21077
-0.202716
-0.202447
-0.205346
-0.260044
-0.258557
-0.183833
-0.180711
-0.184834
-0.190117
-0.199956
-0.191482
-0.098164
-0.100711
-0.0752366
-0.0777769
-0.0825015
-0.103086
-0.106367
-0.106281
-0.109349
-0.0992464
-0.0989445
-0.116103
-0.112226
-0.115817
-0.082729
-0.088485
-0.0957063
-0.134731
-0.13697
-0.118787
-0.124077
-0.126561
-0.0146858
-0.0387151
-0.0542057
-0.0444746
-0.0480323
-0.045468
-0.0822351
-0.140451
-0.131984
-0.138452
-0.134354
-0.120431
-0.139233
-0.140419
-0.246016
-0.24493
-0.185305
-0.17932
-0.190008
-0.211623
-0.196636
-0.191222
-0.124598
-0.13014
-0.135957
-0.234261
-0.239151
-0.247934
-0.247821
-0.244224
-0.244694
-0.248031
-0.247904
-0.0730959
-0.0738475
-0.0725103
-0.0700435
-0.0875548
-0.085061
-0.0858455
-0.104725
-0.111382
-0.106973
-0.111129
-0.108942
-0.123274
-0.121374
-0.0922686
-0.0924654
-0.0900167
-0.106811
-0.104591
-0.183129
-0.188577
-0.197906
-0.175201
-0.171947
-0.177534
-0.0390917
-0.038129
-0.0337897
-0.0474345
-0.042713
-0.0415052
-0.0386981
-0.0399583
-0.048631
-0.0281055
-0.0345693
-0.0354057
-0.0716215
-0.0705138
-0.0727232
-0.0563362
-0.0539371
-0.0759692
0.0670753
0.0682996
0.0794136
0.0313926
0.034586
0.0363092
0.0294173
0.0467887
0.0387494
0.0388843
0.0924151
0.0740926
0.0416972
0.0516369
0.0440096
0.11647
0.20607
0.0720589
0.0123925
0.0136266
0.0777494
0.0947624
0.115844
0.0177261
0.0182427
0.0174465
0.0210375
0.0196315
0.019115
0.112921
0.090424
0.0774062
0.171673
0.244395
0.217212
-0.228172
-0.228398
-0.21456
-0.205999
-0.195922
-0.188858
-0.210497
-0.206705
-0.256153
-0.255873
-0.18285
-0.184737
-0.175164
-0.179407
-0.197467
-0.210956
-0.208059
0.0376399
0.0391802
0.043367
0.0323156
0.035848
0.0344703
-0.191491
-0.17878
-0.175707
-0.185808
-0.182272
-0.195324
-0.250773
-0.223419
-0.236435
-0.241613
-0.23671
-0.240349
-0.239151
-0.236818
-0.22564
-0.209017
-0.248583
-0.236979
-0.238642
-0.232697
-0.246388
-0.245603
-0.241893
-0.240867
-0.245305
-0.246014
-0.170425
-0.1609
-0.167161
-0.155683
-0.158059
-0.167179
0.0574667
0.0585244
0.0391536
0.0425976
0.0419762
0.0424113
0.0391797
0.0566849
0.0534933
0.0507072
0.0533094
0.0561394
0.046931
0.0499233
0.0478663
0.0229771
0.00780262
0.00673265
0.0353591
0.143949
0.124543
0.160116
0.0637642
0.0825657
0.104821
-0.00211789
-0.00124682
-0.00507486
0.00627867
0.00264541
0.0022545
-0.0181336
-0.0165728
-0.0215116
-0.00888487
-0.012605
-0.0140678
0.0582059
0.0662791
0.0377609
-0.0173839
-0.032302
0.00867536
0.000914269
-0.0645093
-0.0567601
-0.0557647
-0.0577419
0.00691037
0.00836917
0.00367387
0.00530342
0.00585324
-0.0421932
-0.04445
-0.0443353
-0.0334789
-0.0313202
-0.035313
-0.0362206
-0.0364273
-0.0397246
-0.0340015
-0.0299108
-0.0314986
-0.0317446
-0.036111
-0.0250348
-0.0282343
-0.0403069
-0.0428335
-0.0391508
0.0238514
0.02394
0.0224728
0.0269308
0.025486
0.0256247
-0.0799353
-0.0675701
-0.0745349
-0.110332
-0.10428
-0.0908703
-0.224409
-0.211066
-0.225396
-0.227349
-0.213657
-0.212829
-0.217162
-0.215122
-0.258836
-0.259192
-0.19116
-0.19517
-0.186762
-0.188938
-0.182549
-0.17807
-0.175621
-0.205594
-0.202912
-0.191498
-0.204013
-0.0888034
-0.0949124
-0.0850811
-0.0805527
-0.0836881
-0.112742
-0.119931
-0.116289
-0.125031
-0.123045
-0.115601
-0.102982
-0.100572
-0.0976222
-0.112405
-0.105784
-0.10526
-0.111877
0.0160809
0.0137953
0.00980532
0.0209084
0.0163551
-0.104669
-0.105139
-0.108899
-0.112974
-0.102307
-0.0949648
-0.100411
-0.131246
-0.13299
-0.133585
-0.131565
-0.125415
-0.125229
-0.129042
-0.0666712
-0.0589532
-0.0557046
-0.0446787
-0.080058
-0.0818997
-0.0740665
-0.166723
-0.164127
-0.158778
-0.173475
-0.169485
-0.175271
-0.186778
-0.178032
-0.132776
-0.142884
-0.151169
-0.122204
-0.13306
-0.125484
-0.165619
-0.156242
-0.16235
-0.154795
-0.155582
-0.157072
-0.151717
-0.153896
-0.153388
-0.154856
-0.153364
-0.161259
-0.161341
-0.158294
-0.158912
-0.14155
-0.144903
-0.142409
-0.146434
-0.145862
-0.14291
-0.131698
-0.136972
-0.135462
-0.141675
-0.138679
-0.134065
-0.141707
-0.143475
-0.1484
-0.150432
-0.150045
-0.15166
-0.151054
-0.149072
-0.145597
-0.147771
-0.147226
-0.149974
-0.149641
-0.146735
-0.247581
-0.243205
-0.146093
-0.146917
-0.148171
-0.143267
-0.145369
-0.144155
-0.154478
-0.149814
-0.151133
-0.151844
-0.129504
-0.131767
-0.133704
-0.127059
-0.129529
-0.126696
-0.137934
-0.139134
-0.141153
-0.135241
-0.137018
-0.135873
-0.163555
-0.163675
-0.162523
-0.163756
-0.159807
-0.158443
-0.162903
-0.161997
-0.2311
-0.240806
-0.244285
-0.247694
-0.247085
-0.246864
-0.24756
-0.243911
-0.0752456
-0.0767193
-0.0747894
-0.0761581
-0.0839604
-0.0823874
-0.0794147
-0.115742
-0.113402
-0.110164
-0.112828
-0.115204
-0.119305
-0.121954
-0.123721
-0.117546
-0.11972
-0.117077
-0.119417
-0.117954
-0.0972773
-0.094973
-0.094442
-0.102641
-0.0989724
-0.138674
-0.141713
-0.143994
-0.136332
-0.13916
-0.135999
-0.14449
-0.146526
-0.12685
-0.134048
-0.128268
-0.13381
-0.158846
-0.150264
-0.152953
-0.146087
-0.147807
-0.154872
-0.0064895
-0.00731297
-0.00529385
-0.0114726
-0.0093365
-0.00834544
0.00122849
0.000630529
0.00211452
-0.00325558
-0.00118713
-0.00109139
0.00209959
-0.0248048
-0.022682
-0.0292003
-0.0269204
-0.0146418
-0.0157685
-0.013797
-0.0203884
-0.0173066
-0.0163316
-0.0647417
-0.0677621
-0.0663447
-0.0600179
-0.07049
0.0602098
0.0626912
0.0318153
0.0314368
0.0286337
0.0362651
0.0335438
0.033915
0.0336925
0.0365169
0.0658351
0.0597924
0.0298935
0.0396265
0.0319433
0.0434589
0.0488726
0.0364965
0.0481623
0.0386209
0.0317343
0.0334133
0.0208543
0.0203953
0.0168151
0.0235187
0.024597
0.0282338
0.0482365
0.0420811
0.0585205
0.0911917
0.0544644
0.090972
0.0518467
0.04157
0.0392547
0.0141859
0.0188572
0.00850659
0.000648981
0.00540069
0.00663253
0.0079219
0.0211134
0.0105423
0.0273436
0.0481958
0.0567791
0.0898242
0.0785682
0.142179
0.10283
0.0835334
0.037934
0.0211454
0.026823
-0.0147173
-0.0150279
-0.00583833
-0.00991191
-0.0200614
0.00152867
-0.00608316
-0.00714556
0.00415532
0.00980732
0.0123319
0.0272245
-0.0473665
-0.0431475
-0.0164586
-0.0547365
-0.0392535
-0.0265792
-0.0241691
-0.0403798
-0.0264955
-0.0387226
-0.0478893
-0.0396822
-0.077342
-0.0873653
-0.079381
-0.143565
-0.111474
-0.0884867
-0.0859291
-0.0606587
-0.0511994
-0.0281698
-0.0418079
-0.0424376
-0.0514846
-0.0618003
-0.0612008
-0.103714
-0.115359
-0.114906
-0.171874
-0.135485
-0.1312
-0.0908709
-0.0679284
-0.0664075
-0.0216388
-0.0278178
-0.0392926
-0.0418804
-0.0480917
-0.053418
-0.079626
-0.0863621
-0.0921576
-0.134078
-0.111998
-0.123667
-0.0718875
-0.0593673
-0.0653621
-0.00978864
-0.00864074
-0.0230713
-0.0335649
-0.0345899
-0.0413937
-0.0713838
-0.0649959
-0.0838483
-0.04242
-0.0413401
-0.0509746
0.00127565
0.00665275
-0.00420876
-0.011302
-0.0212596
-0.032612
-0.0163228
-0.022618
-0.0315699
0.00769086
0.0115347
0.00901965
0.0158209
0.0264412
0.0256506
0.0334163
0.043443
0.0484158
0.0630836
0.0601836
0.0651418
0.0162854
0.00134558
-0.00830505
-0.00503912
-0.00943154
-0.0152114
0.0097154
0.0131284
0.0128035
0.0156782
0.0176717
0.0249003
0.0213177
0.0234898
0.0366616
0.0225228
0.0160591
0.0211195
0.0103286
0.0053737
0.00258158
0.00138646
-0.00302291
-0.00558887
0.0129226
0.0143071
0.0170349
0.0169524
0.0164659
0.0208812
0.015099
0.0130404
0.0146776
0.00875686
0.00585098
0.00581127
-0.0700955
-0.0593364
-0.0519192
-0.0982071
-0.110226
-0.133742
0.00947855
-0.00948366
-0.0150448
-0.113561
-0.111327
-0.100073
-0.176186
-0.195324
-0.202234
-0.140507
-0.15908
-0.137699
-0.0976185
-0.102581
-0.0930619
-0.172329
-0.191118
-0.182532
-0.20349
-0.205856
-0.184558
-0.0482659
-0.0546813
-0.0513615
-0.117612
-0.127242
-0.11334
-0.178888
-0.166803
-0.155546
-0.0467192
-0.0470326
-0.0378405
-0.104638
-0.0947731
-0.0912771
0.0464455
0.0342636
0.0206548
0.108336
0.0957039
0.0877535
0.0889515
0.086543
0.106708
-0.0284928
-0.0193241
-0.0218933
0.063984
0.0909031
0.0537698
0.376472
0.326925
0.332881
0.0862547
0.104125
0.141581
0.376252
0.392149
0.0280048
0.0397026
0.0269058
0.0748025
0.0865832
0.0471948
-0.0298638
-0.0187922
-0.0151387
-0.0248667
-0.0216
-0.0356497
0.00790051
-0.00660846
-0.0142003
-0.0667364
-0.0726084
-0.101318
0.0651033
0.0425121
0.0344959
-0.0809909
-0.0523502
-0.0623801
-0.0490598
-0.0522512
-0.0682689
-0.0206761
-0.035972
-0.0361714
-0.0587031
-0.0542445
-0.044132
-0.0838342
-0.0654817
-0.0706769
-0.0478894
-0.0578882
-0.0796359
-0.099778
-0.0941073
-0.0836317
-0.12778
-0.120599
-0.123101
-0.0994962
-0.103942
-0.111077
-0.188324
-0.191638
-0.185437
-0.130149
-0.115859
-0.150733
-0.092163
-0.105993
-0.113741
-0.0829474
-0.0956759
-0.0837557
-0.0576803
-0.0605545
-0.0509007
-0.0915707
-0.072322
-0.0686006
-0.0735029
-0.0740213
-0.0934275
-0.113152
-0.114772
-0.103107
-0.141108
-0.132845
-0.131259
-0.135896
-0.136238
-0.144543
-0.128199
-0.133323
-0.170342
-0.104683
-0.120578
-0.117625
-0.118741
-0.121027
-0.104944
-0.0352891
-0.0419563
-0.0370213
-0.0595779
-0.0486896
-0.0403964
-0.0631614
-0.0563971
-0.0648018
-0.0739821
-0.0802569
-0.0743757
-0.0946021
-0.0860467
-0.0763774
-0.106427
-0.103017
-0.106821
-0.172434
-0.169234
-0.166988
-0.0903304
-0.106121
-0.126759
-0.0859257
-0.0966113
-0.0869024
-0.112379
-0.105249
-0.0927773
-0.0825108
-0.0847761
-0.076182
-0.118855
-0.116133
-0.115296
-0.0453783
-0.0570912
-0.0634348
-0.0520089
-0.0550889
-0.0442921
-0.0764873
-0.0656999
-0.0609207
0.00965603
0.012939
0.01826
-0.0230133
-0.0168715
-0.0183735
0.0357292
0.0410512
0.0323446
0.0515962
0.0438577
0.0360091
0.0703701
0.0614153
0.0642883
0.0324214
0.038873
0.050498
0.0225942
0.0339386
0.0289796
0.0370298
0.0353036
0.0222435
-0.0970499
-0.0891823
-0.0946365
-0.0353196
-0.0578661
-0.0772478
-0.0413159
-0.0471272
-0.0334579
-0.0671472
-0.0821166
-0.066771
0.0424506
0.0461166
0.0652093
-0.0534066
-0.0404995
-0.0341629
-0.173768
-0.180922
-0.18489
-0.0997953
-0.108348
-0.103756
-0.0729405
-0.0914324
-0.0839288
-0.105621
-0.0982519
-0.0849337
-0.157235
-0.14989
-0.159557
-0.142313
-0.134543
-0.135391
-0.125317
-0.127463
-0.134472
-0.0972773
-0.108315
-0.104456
-0.138355
-0.14139
-0.140084
-0.152023
-0.151536
-0.146949
-0.139086
-0.137961
-0.134498
-0.181901
-0.19266
-0.17078
-0.223995
-0.216025
-0.212517
-0.187318
-0.172974
-0.165683
-0.211192
-0.208591
-0.21787
-0.147817
-0.164212
-0.17817
-0.117603
-0.113275
-0.109972
-0.129306
-0.127215
-0.133781
-0.0966357
-0.106934
-0.110482
-0.140455
-0.143416
-0.144933
-0.118371
-0.120165
-0.118378
-0.148493
-0.152725
-0.152313
-0.14649
-0.147709
-0.14348
-0.200703
-0.194051
-0.176678
-0.204388
-0.208304
-0.21275
-0.184448
-0.205428
-0.202683
-0.0766575
-0.0774045
-0.0841139
-0.0515629
-0.0559029
-0.0549634
-0.111175
-0.115917
-0.116587
-0.0864205
-0.0930912
-0.0895457
-0.124163
-0.124336
-0.121598
-0.165497
-0.163636
-0.161754
-0.145027
-0.131732
-0.125725
-0.155807
-0.151029
-0.155864
-0.118928
-0.124305
-0.12641
-0.205455
-0.198589
-0.201208
-0.160963
-0.166368
-0.172413
-0.148635
-0.162408
-0.149568
-0.0112833
-0.010456
-0.0141181
0.00914016
0.00609936
0.0050318
-0.0422921
-0.0426514
-0.0471509
-0.0178765
-0.0217459
-0.022263
-0.0360285
-0.0352648
-0.0291394
-0.0732216
-0.0637586
-0.0651455
-0.109728
-0.108059
-0.113515
-0.0743874
-0.0894436
-0.0930938
-0.0822495
-0.085077
-0.075495
0.0456111
0.0568951
0.0445933
0.066919
0.0609876
0.04719
0.0142755
0.0155662
0.012244
0.0350756
0.0532575
0.0583597
-0.0185768
-0.00305214
-0.00376081
-0.0026968
-0.00244654
-0.0276763
0.0349628
0.0168257
0.011108
0.141495
0.113626
0.102491