/*--------------------------------*- C++ -*----------------------------------*\
| =========                 |                                                 |
| \\      /  F ield         | OpenFOAM: The Open Source CFD Toolbox           |
|  \\    /   O peration     | Version:  5.x                                   |
|   \\  /    A nd           | Web:      www.OpenFOAM.org                      |
|    \\/     M anipulation  |                                                 |
\*---------------------------------------------------------------------------*/
FoamFile
{
    version     2.0;
    format      ascii;
    class       surfaceScalarField;
    location    "100";
    object      phi;
}
// * * * * * * * * * * * * * * * * * * * * * * * * * * * * * * * * * * * * * //

dimensions      [0 3 -1 0 0 0 0];

internalField   nonuniform List<scalar> 
13181
(
8.3099e-06
0.00915689
7.83076e-06
0.00916748
6.51567e-06
0.00916782
5.11901e-06
0.0091679
2.97425e-06
0.00916914
-4.66024e-06
0.00917413
-9.44182e-06
0.00917143
-1.01971e-05
0.00916746
-8.90823e-06
0.00916536
-3.87726e-06
0.00916162
5.43524e-06
0.00915739
1.73064e-05
0.00915478
2.83977e-05
0.00915556
3.53617e-05
0.00915974
3.69837e-05
0.00916503
3.41577e-05
0.00916948
2.85108e-05
0.00917235
2.14122e-05
0.00917375
9.99529e-06
0.00917792
1.04932e-07
0.00917689
-1.26016e-05
0.00917921
-1.79208e-05
0.00917182
-1.91227e-05
0.0091682
0.0091456
1.16059e-05
0.00914196
3.4117e-05
0.00914497
3.41014e-05
0.00916783
3.32334e-05
0.00916876
2.68708e-05
0.00917551
7.37459e-06
0.00919363
-1.79781e-05
0.00919678
-2.60646e-05
0.00917554
-2.49157e-05
0.00916421
-1.51021e-05
0.0045758
0.00457601
3.74751e-06
0.00456922
0.00456932
2.87172e-05
0.0045647
0.00456511
5.21085e-05
0.00456561
0.00456656
6.66332e-05
0.00457202
0.00457319
6.97465e-05
0.00458038
0.00458153
5.61896e-05
0.00918303
3.46361e-05
0.0091939
1.28723e-05
0.00919551
-1.02042e-05
0.00920099
-1.85178e-05
0.0091852
-1.94598e-05
0.00918015
-2.08925e-05
0.00917325
7.0777e-07
0.0091466
0.00914182
-5.02268e-06
0.00914155
-2.37681e-06
0.00914232
1.70395e-05
0.00914841
1.4648e-05
0.00917116
1.5264e-05
0.00917489
1.61519e-05
0.00919274
-1.7034e-05
0.00922997
-3.89136e-05
0.00919742
-2.02673e-05
0.00917077
-2.52072e-05
0.00457249
-1.69596e-05
0.00456379
-7.29712e-06
1.27318e-05
5.61146e-08
0.00455631
8.3371e-06
-1.75759e-05
0.00455676
2.64283e-05
-3.4145e-05
0.00456608
4.00831e-05
-4.34231e-05
0.00457986
4.39463e-05
4.65765e-05
0.00460915
-3.4824e-05
-4.58222e-05
0.00460795
8.93593e-06
0.00923154
-3.79474e-06
0.00920824
-2.76866e-06
0.00919997
-4.67896e-06
0.00918711
-6.76203e-06
0.00918223
1.0017e-05
0.00915647
1.02322e-05
0.00914639
0.00914482
-1.13414e-05
0.00914539
-1.48225e-05
0.0091458
-1.58338e-05
0.00914943
-2.66747e-06
0.00915799
-7.79649e-06
0.00918002
-8.07104e-06
0.00919302
-1.29238e-05
0.00923482
-3.3578e-05
0.00921808
-3.65983e-05
0.00461547
-3.98737e-05
0.00459819
0.00456721
-3.28451e-05
-0.00457096
0.00454927
-2.00312e-05
-0.00455713
2.78929e-05
8.22444e-06
0.00452952
7.13359e-06
-0.00454488
-2.4649e-05
0.00452737
4.1688e-05
-0.00454441
-5.4681e-05
0.00455979
5.44472e-05
-0.00455956
-3.83041e-05
0.00460894
1.79011e-05
-0.00458854
-4.52048e-06
0.00461173
1.94144e-06
3.90049e-05
0.00461187
-1.69622e-05
-5.08786e-06
0.00460271
3.21407e-05
0.00921511
2.32544e-05
0.00920885
1.17643e-05
0.0091986
2.23974e-05
0.0091716
2.07503e-05
0.00915812
1.45328e-05
0.0091526
0.00914961
-1.36254e-05
0.00914967
-1.89267e-05
0.0091511
-2.5046e-05
0.00915554
-2.76749e-05
0.00916062
-2.19137e-05
0.00917426
-2.60855e-05
0.00919719
6.49043e-06
0.00920225
1.75884e-05
0.00459087
5.16033e-06
0.00461095
0.00464292
-9.85646e-06
0.00457499
-3.63748e-05
-0.00456817
2.9556e-05
0.00454688
-4.39741e-05
-0.00454264
3.973e-05
2.78373e-05
-8.01854e-07
-0.00450915
0.00224076
0.00224135
-3.28727e-05
6.6391e-05
-0.00450406
0.00223529
0.00223525
-7.8475e-05
4.41953e-05
-0.0045763
0.00229919
0.00231139
-5.60971e-05
0.00460718
5.84725e-05
-0.00460956
-5.0863e-05
0.00461847
5.15035e-05
-0.00461912
-4.97379e-05
0.00461286
4.87521e-05
6.02293e-05
0.00924351
-4.7501e-05
-4.1128e-05
3.93752e-05
0.00922971
4.01742e-05
0.0091978
3.36213e-05
0.00917815
2.4247e-05
0.00916749
1.7226e-05
0.00915963
0.00915513
-1.51329e-05
0.00915402
-2.08051e-05
0.00915678
-2.79811e-05
0.00916272
-3.7717e-05
0.00917035
-4.3767e-05
0.00918031
-4.751e-05
0.00920093
-2.94155e-05
0.00922233
-3.8177e-05
0.00460006
-3.86147e-05
0.0046054
-1.87752e-06
-0.00463719
3.36616e-05
0.00458211
1.66164e-05
-0.00458452
-1.41972e-05
-0.00228275
1.39754e-06
0.00228806
-6.70295e-06
-0.00222793
1.65266e-05
0.00222982
-1.84115e-05
-0.00221138
-1.95873e-05
0.00219788
3.30896e-05
-0.00228754
-2.89198e-05
0.00225852
5.79359e-05
-4.41375e-05
0.000111187
-0.00461292
-4.83841e-05
0.00229292
0.00230133
-0.000107897
0.00463358
9.40039e-05
-0.00461968
-7.82054e-05
-0.00462316
0.00463671
6.46617e-05
7.7047e-05
0.00928119
-5.99259e-05
-5.48078e-05
6.2032e-05
0.00924472
4.91584e-05
0.00921068
3.5609e-05
0.0091917
2.59887e-05
0.00917711
1.84565e-05
0.00916716
0.00916071
-1.61831e-05
0.00915853
-2.21601e-05
0.00916275
-2.9127e-05
0.00916969
-3.83569e-05
0.00917958
-5.13354e-05
0.00919329
-6.37124e-05
0.00921331
-4.11091e-05
0.00924107
-4.13477e-05
-0.00460927
0.00461923
-5.10699e-05
-0.00460729
0.00462262
-7.89343e-05
6.36041e-05
-0.00459313
0.00461804
9.86801e-05
-5.84234e-05
-6.51669e-05
-0.00227636
6.00146e-05
0.0022776
-6.12586e-05
-0.00111129
2.19017e-05
0.00110741
-1.80231e-05
-9.98533e-06
-0.00105367
0.00104779
1.58594e-05
-4.78353e-05
-0.00227426
9.53519e-05
-3.43556e-05
0.0011176
0.0011435
-0.000109546
-0.00230649
0.00231827
9.77716e-05
-0.000150325
-0.00465727
0.00468647
0.000121122
-9.71606e-05
-0.00465249
0.00467206
7.7592e-05
8.94146e-05
0.00931499
-6.15979e-05
-6.16141e-05
6.76306e-05
0.00926651
4.75048e-05
0.0092308
3.3712e-05
0.00920549
2.40608e-05
0.00918677
1.6952e-05
0.00917427
0.00916467
-1.57053e-05
0.00916231
-2.13998e-05
0.00916845
-2.78216e-05
0.00917611
-3.71847e-05
0.00918895
-4.93744e-05
0.00920548
-6.66133e-05
0.00923055
-4.04394e-05
0.00926049
-4.55894e-05
-0.00462989
0.00464103
-5.15783e-05
-0.00464235
0.00466166
-8.55553e-05
6.62472e-05
-0.00465262
0.00469065
0.00011228
-7.36608e-05
-7.66518e-05
-0.00231415
0.000102302
0.00233482
-0.000122971
-0.00112813
0.000107708
0.00114219
-0.00012177
-0.000146983
-0.00115282
0.00116635
0.000133447
-0.000154728
-0.00236355
0.00238538
0.000132897
-0.000177835
-0.00472511
0.00476357
0.000139373
-0.000110423
-0.00469563
0.0047169
8.91582e-05
8.74519e-05
0.00936491
-6.58524e-05
-7.15169e-05
5.49307e-05
0.00929903
3.85116e-05
0.00924722
2.71548e-05
0.00921685
1.98571e-05
0.00919406
1.51451e-05
0.00917898
0.00916789
-1.47905e-05
0.00916558
-1.86902e-05
0.00917235
-2.38147e-05
0.00918123
-3.00013e-05
0.00919513
-3.82018e-05
0.00921368
-4.92787e-05
0.00924163
-3.60033e-05
0.00927773
-3.0517e-05
-0.00464429
0.00465343
-4.51487e-05
-0.00468439
0.00469955
-7.59506e-05
6.07859e-05
-0.00472765
0.00475461
9.53899e-05
-6.42082e-05
-5.81388e-05
-0.00239409
8.90761e-05
0.00240955
-0.000104529
-0.00123296
9.13538e-05
0.00124171
-0.000100101
-0.000127635
-0.00126549
0.00127605
0.000117077
-0.000124799
-0.00244747
0.002466
0.000106274
-0.000132209
-0.00480029
0.00482902
0.000103475
-8.12199e-05
-0.0047363
0.00475154
6.59771e-05
6.89446e-05
0.0093895
-4.1354e-05
-5.21818e-05
4.03257e-05
0.00932765
2.38435e-05
0.0092637
1.74391e-05
0.00922325
1.31961e-05
0.00919831
1.01924e-05
0.00918198
0.00916838
-1.26961e-05
0.00916771
-1.60293e-05
0.00917568
-1.895e-05
0.00918415
-2.277e-05
0.00919895
-2.58051e-05
0.00921671
-2.92517e-05
0.00924507
-1.95428e-05
0.0092811
-1.30793e-05
-0.00466173
0.00467003
-2.78451e-05
-0.00470926
0.00471321
-3.56016e-05
3.16561e-05
-0.00477049
0.00477403
3.92032e-05
-2.53586e-05
-1.73853e-05
-0.00243803
3.23578e-05
0.00244097
-3.5306e-05
-0.00127255
2.51057e-05
0.00127301
-2.55697e-05
-3.46275e-05
-0.00131646
0.00131764
3.34459e-05
-4.17892e-05
-0.0025008
0.00250529
3.72969e-05
-4.45797e-05
-0.00484712
0.00485293
3.87739e-05
-3.40757e-05
-0.00476218
0.00476718
2.9078e-05
3.39148e-05
0.00939196
-1.28528e-05
-2.35249e-05
3.18958e-05
0.00932966
1.22128e-05
0.00928339
4.85205e-06
0.00923061
5.35951e-06
0.0091978
5.04117e-06
0.0091823
0.00916694
-1.07965e-05
0.00916929
-1.25744e-05
0.00917746
-1.38575e-05
0.00918544
-1.39285e-05
0.00919903
-1.40945e-05
0.00921688
-9.80227e-06
0.00924078
-3.67066e-06
0.00927515
-1.83693e-07
-0.0046732
0.00467438
-4.84941e-06
-0.00471157
0.00470483
5.85293e-06
8.87858e-07
-0.00476607
0.00474942
-1.68878e-05
1.33884e-05
2.01485e-05
-0.00243203
-2.29857e-05
0.00242431
3.06997e-05
-0.001251
-3.43289e-05
0.00124537
3.99497e-05
5.6341e-05
-0.00129277
0.00128535
-4.89185e-05
4.4293e-05
-0.00249602
0.00248713
-3.54049e-05
4.37399e-05
-0.0048469
0.00483135
-2.819e-05
1.56468e-05
-0.00476543
0.00475848
-8.69963e-06
-1.96059e-06
0.00937564
1.31139e-05
5.16629e-06
8.97779e-06
0.00931873
1.43025e-05
0.00927806
-7.75722e-06
0.00925267
-4.05946e-06
0.0091941
-6.87651e-07
0.00917893
0.00916367
-8.46769e-06
0.00917002
-8.47138e-06
0.00917746
-8.09314e-06
0.00918506
-6.28116e-06
0.00919721
-1.54951e-06
0.00921215
7.94086e-06
0.00923129
7.62954e-06
0.00926476
1.07071e-05
-0.00466961
0.00466438
1.28641e-05
-0.00469484
0.00468305
3.30161e-05
-2.12329e-05
-0.00472676
0.00470221
-5.01234e-05
3.6403e-05
3.82752e-05
-0.00239327
-5.35035e-05
0.00238168
6.50948e-05
-0.00119799
-6.10164e-05
0.0011906
6.84039e-05
0.000101943
-0.00122291
0.00121343
-9.24654e-05
9.57029e-05
-0.00244695
0.00243146
-8.02124e-05
0.00010194
-0.00480647
0.00477595
-7.14243e-05
5.13627e-05
-0.00474686
0.00473268
-3.71859e-05
-2.69806e-05
0.00934494
3.08455e-05
2.68381e-05
-8.89077e-06
0.00930064
2.61938e-06
0.00926655
7.08482e-06
0.00924821
-1.24453e-05
0.00921363
-6.83718e-06
0.00917332
0.00915844
-6.51472e-06
0.00917022
-5.70065e-06
0.00917665
-4.36844e-06
0.00918373
-8.58415e-07
0.0091937
4.77608e-06
0.00920651
1.54296e-05
0.00922064
1.52092e-05
0.00924905
1.59247e-05
-0.00465769
0.00465131
2.15855e-05
-0.00467066
0.00465924
4.09103e-05
-2.94893e-05
-0.00467807
0.00465762
-5.63768e-05
3.93764e-05
3.74565e-05
-0.00234832
-5.50442e-05
0.00233885
6.4516e-05
-0.00114019
-5.697e-05
0.00113393
6.32256e-05
0.000102355
-0.00114081
0.00113039
-9.19365e-05
0.000100811
-0.0023843
0.00237016
-8.66679e-05
0.000111883
-0.00474194
0.00471364
-8.35783e-05
6.3053e-05
-0.00471776
0.00470318
-4.84738e-05
-3.78249e-05
0.00931245
3.52244e-05
3.50939e-05
-1.74182e-05
0.00928023
-3.75282e-06
0.00925289
-2.85556e-06
0.00924731
-1.59662e-05
0.00922674
-1.2373e-05
0.00916973
0.00915179
-4.59638e-06
0.0091697
-3.94742e-06
0.009176
-1.85941e-06
0.00918164
1.23473e-06
0.00919061
6.53669e-06
0.00920121
1.45975e-05
0.00921258
2.53482e-05
0.0092383
2.59957e-05
0.00927894
1.67376e-05
-0.00464611
-0.00465022
-0.00465001
0.00464469
3.13168e-05
-0.00464277
0.00465213
2.22437e-05
-3.16106e-05
-0.00232601
2.36178e-06
0.0023517
-2.80484e-05
-0.00112333
3.67565e-05
0.00110269
-1.61135e-05
-0.000396599
1.08667e-05
0.000404033
-1.83008e-05
4.13223e-05
-0.00108189
0.00217707
-7.79846e-05
3.59649e-05
-0.00109448
-0.00233889
7.04907e-05
0.00233386
-6.54582e-05
8.3643e-05
-0.0046919
0.00467552
-6.72583e-05
5.36536e-05
-0.00469231
0.00468891
-5.02597e-05
-3.60743e-05
0.00928806
2.81515e-05
3.2308e-05
-1.82691e-05
0.00926242
-5.77706e-06
0.0092404
-1.88794e-05
0.00926041
6.89208e-06
0.00920097
-1.44511e-05
0.00919107
0.0091468
-4.24638e-06
0.00916975
-3.65841e-06
0.00917541
-2.35199e-06
0.00918033
-4.11173e-07
0.00918867
3.54378e-06
0.00919726
6.91821e-06
0.0092092
-1.46111e-06
0.00924668
-1.62693e-05
0.00933214
-3.83902e-05
-0.00465624
0.00467619
-3.62278e-05
-0.00466486
0.00464709
-1.84764e-05
3.62549e-05
-0.0023168
-8.38114e-06
0.0023125
1.26847e-05
-0.00217711
-8.32289e-06
0.00217942
6.01883e-06
-0.000983369
3.81876e-05
0.00201009
-5.79912e-05
-0.00100692
-0.00218901
7.08816e-05
0.00218023
-6.21083e-05
-0.00463866
6.70487e-05
0.00464707
-0.000119304
4.3841e-05
0.000110822
-0.00466676
0.0046553
-9.9361e-05
-0.000119091
0.00928902
5.96067e-05
9.09255e-05
-0.00470476
-0.0046157
-9.26912e-05
0.00926166
-7.33299e-05
0.00924306
-5.59451e-05
0.00922301
-2.32631e-06
0.00920679
6.45971e-06
0.00919218
1.31078e-05
0.00918442
0.00917258
-3.88967e-06
0.00917004
-4.13453e-06
0.00917565
-3.924e-06
0.00918012
-2.99688e-06
0.00918774
-2.28038e-06
0.00919654
-5.85701e-06
0.00921278
-3.2107e-05
0.00927293
-3.83438e-05
0.00933851
-1.3238e-07
-0.00467448
0.00464701
-1.08757e-05
-0.00463661
0.00463815
1.28738e-06
-2.83053e-06
-0.00462896
0.00463285
-6.18054e-06
2.2905e-06
-0.00218227
6.75889e-06
0.00218035
-4.84142e-06
-0.00204864
2.81445e-05
0.00205731
-3.68106e-05
-0.00218058
4.45398e-05
0.00440803
-9.22533e-05
-0.00222287
4.31406e-05
-0.00463594
9.39934e-05
0.00462736
-8.54085e-05
-0.00464831
8.06522e-05
0.00464237
-7.47097e-05
-8.76226e-05
0.00925304
5.75181e-05
6.60827e-05
-5.88138e-05
0.00923285
-4.93181e-05
0.00923357
-4.42432e-05
0.00921794
-3.89709e-05
0.00920152
-3.25875e-05
0.0091858
-2.34184e-05
0.00917525
0.0091644
-4.41743e-06
0.00917118
-4.63374e-06
0.00917587
-5.14333e-06
0.00918063
-5.82055e-06
0.00918842
-7.29187e-06
0.00919801
-2.00886e-05
0.00922557
-3.81636e-05
0.00929101
-1.13857e-05
0.00931173
-6.54815e-06
0.00929373
-0.00464703
-0.00464235
-9.19539e-06
-0.00464277
0.00464653
-1.03053e-05
-0.00463535
0.00463654
-1.44453e-05
1.32569e-05
-0.00433969
1.59554e-05
0.00435045
-2.67139e-05
-0.00414094
4.66016e-05
0.00416185
-6.75063e-05
-0.00441001
7.55125e-05
0.00440654
-7.2043e-05
-0.00462023
6.35387e-05
0.00461626
-5.95663e-05
-0.00463838
5.77772e-05
0.00463517
-5.45616e-05
-8.71897e-05
0.00924293
4.74481e-05
4.98483e-05
-7.0926e-05
0.00921659
-5.49416e-05
0.00921758
-3.81097e-05
0.0092011
-2.33855e-05
0.0091868
-1.74358e-05
0.00917985
-1.60499e-05
0.00917387
0.0091656
-4.70326e-06
0.0091727
-5.93634e-06
0.0091771
-7.65584e-06
0.00918235
-9.33067e-06
0.00919009
-1.46905e-05
0.00920337
-3.84922e-05
0.00924938
-3.90539e-05
0.00929157
-2.0925e-05
0.0092936
-2.90677e-05
0.00930188
-2.06379e-05
0.0093218
-0.0046517
-0.00465647
-2.20598e-05
-0.00463545
0.00463109
-1.62703e-05
-0.00436259
1.86613e-05
0.0043741
-3.01698e-05
-0.00417698
4.24194e-05
0.00418946
-5.4896e-05
-0.00440425
5.987e-05
0.00440448
-6.01005e-05
-8.81334e-05
0.00924512
-0.00461709
-0.00462994
4.45049e-05
4.55426e-05
-8.22411e-05
0.00925588
-0.00463189
-0.00462988
-7.57007e-05
0.00923639
-6.82091e-05
0.0092091
-5.42202e-05
0.00920359
-4.17695e-05
0.00918865
-3.17068e-05
0.00917673
-2.34628e-05
0.00917161
-1.18322e-05
0.00916224
0.00917239
-5.14255e-06
0.00917459
-7.36284e-06
0.00917932
-9.19451e-06
0.00918418
-1.16678e-05
0.00919257
-1.60004e-05
0.0092077
-3.44275e-05
0.0092678
-2.74367e-05
0.00928458
-2.2842e-05
0.00928901
-3.38588e-05
0.00931289
-4.25779e-05
0.00933052
-4.32444e-05
0.00918346
-0.00461871
-0.00456408
-7.15902e-05
0.00885588
-0.00439143
-0.00443611
-9.57048e-05
0.00842262
-0.00419795
-0.00420055
-8.32772e-05
0.00893307
-0.00441912
-0.00452638
-7.48036e-05
0.00923664
-7.12721e-05
0.00925235
-6.64889e-05
0.00923161
-6.02715e-05
0.00920288
-5.02892e-05
0.00919361
-4.13512e-05
0.00917971
-3.53224e-05
0.00917071
-2.52817e-05
0.00916157
-1.70409e-05
0.009154
0.00917489
-5.65526e-06
0.0091768
-7.79309e-06
0.00918146
-1.06246e-05
0.00918701
-1.36984e-05
0.00919564
-1.82165e-05
0.00921222
-2.92585e-05
0.00927884
-2.59361e-05
0.00928126
-2.6528e-05
0.0092896
-3.59778e-05
0.00932234
-4.04789e-05
0.00933502
-3.84034e-05
0.00918139
-6.24292e-05
0.00887991
-8.26425e-05
0.00844284
-7.1096e-05
0.00892153
-6.43258e-05
0.00922987
-6.23667e-05
0.00925039
-5.89204e-05
0.00922817
-5.37234e-05
0.00919768
-4.65732e-05
0.00918646
-3.9278e-05
0.00917242
-3.31086e-05
0.00916454
-2.56647e-05
0.00915412
-1.88338e-05
0.00914716
0.00917612
-6.18845e-06
0.00917929
-9.16996e-06
0.00918444
-1.23859e-05
0.00919023
-1.58852e-05
0.00919914
-1.93581e-05
0.0092157
-2.41978e-05
0.00928368
-2.51783e-05
0.00928224
-2.85514e-05
0.00929297
-3.71022e-05
0.0093309
-3.9087e-05
0.009337
-3.5127e-05
0.00917743
-5.70712e-05
0.00890185
-7.52599e-05
0.00846102
-6.28972e-05
0.00890916
-5.61802e-05
0.00922316
-5.4758e-05
0.00924897
-5.22006e-05
0.00922561
-4.84577e-05
0.00919394
-4.3188e-05
0.00918119
-3.72418e-05
0.00916647
-3.17398e-05
0.00915903
-2.52928e-05
0.00914768
-1.9331e-05
0.0091412
0.00917707
-6.71105e-06
0.009182
-9.95325e-06
0.00918768
-1.29476e-05
0.00919322
-1.67287e-05
0.00920292
-2.05019e-05
0.00921947
-2.29671e-05
0.00928615
-2.61715e-05
0.00928544
-3.29318e-05
0.00929973
-3.73813e-05
0.00933535
-3.75464e-05
0.00933717
-3.19646e-05
0.00917185
-5.29297e-05
0.00892282
-7.00655e-05
0.00847816
-5.69098e-05
0.00889601
-4.95538e-05
0.0092158
-4.82598e-05
0.00924767
-4.64615e-05
0.00922381
-4.39336e-05
0.00919141
-3.92063e-05
0.00917646
-3.53688e-05
0.00916264
-2.98448e-05
0.00915351
-2.47861e-05
0.00914262
-2.01194e-05
0.00913654
0.00917722
-7.71232e-06
0.00918538
-1.01354e-05
0.00919011
-1.38299e-05
0.00919692
-1.72759e-05
0.00920637
-2.12317e-05
0.00922343
-2.37183e-05
0.00928863
-2.72027e-05
0.00928893
-3.35536e-05
0.00930608
-3.69333e-05
0.00933873
-3.54842e-05
0.00933572
-2.88088e-05
0.00916517
-4.92969e-05
0.0089433
-6.60889e-05
0.00849495
-5.23067e-05
0.00888223
-4.41953e-05
0.00920769
-4.26643e-05
0.00924614
-4.13259e-05
0.00922247
-3.90642e-05
0.00918915
-3.6135e-05
0.00917353
-3.2715e-05
0.00915922
-2.79957e-05
0.00914879
-2.37188e-05
0.00913834
-1.927e-05
0.00913209
0.00917801
-7.68371e-06
0.00918838
-1.12339e-05
0.00919366
-1.45532e-05
0.00920024
-1.80851e-05
0.0092099
-2.21397e-05
0.00922748
-2.40721e-05
0.00929057
-2.77722e-05
0.00929262
-3.36728e-05
0.00931198
-3.85347e-05
0.00934359
-3.32575e-05
0.00933044
-2.57747e-05
0.00915769
-4.59529e-05
0.00896348
-6.28484e-05
0.00851185
-4.87833e-05
0.00886816
-3.97913e-05
0.0091987
-3.78415e-05
0.00924419
-3.67768e-05
0.00922141
-3.52455e-05
0.00918762
-3.24384e-05
0.00917073
-2.97729e-05
0.00915655
-2.67252e-05
0.00914574
-2.31254e-05
0.00913474
-1.98116e-05
0.00912877
0.00917789
-8.14156e-06
0.00919146
-1.12576e-05
0.00919677
-1.51536e-05
0.00920413
-1.87108e-05
0.00921346
-2.23037e-05
0.00923107
-2.41482e-05
0.00929241
-2.80839e-05
0.00929656
-3.35012e-05
0.0093174
-3.84128e-05
0.0093485
-3.07532e-05
0.00932278
-2.28323e-05
0.00914977
-4.25311e-05
0.00898318
-6.01212e-05
0.00852944
-4.57459e-05
0.00885378
-3.60546e-05
0.00918901
-3.35571e-05
0.00924169
-3.27512e-05
0.0092206
-3.1866e-05
0.00918673
-3.00555e-05
0.00916892
-2.80254e-05
0.00915452
-2.45431e-05
0.00914226
-2.15353e-05
0.00913173
-1.87756e-05
0.00912601
0.0091783
-8.59752e-06
0.00919457
-1.17384e-05
0.00919991
-1.51602e-05
0.00920756
-1.87009e-05
0.009217
-2.28018e-05
0.00923517
-2.45452e-05
0.00929415
-2.81428e-05
0.00930016
-3.30864e-05
0.00932235
-3.68923e-05
0.0093523
-3.38972e-05
0.00931979
-2.41951e-05
0.00914007
-4.29127e-05
0.0090019
-6.01974e-05
0.00854672
-4.61494e-05
0.00883974
-3.51829e-05
0.00917804
-3.19888e-05
0.0092385
-3.13983e-05
0.00922001
-3.13178e-05
0.00918665
-3.09204e-05
0.00916852
-2.69332e-05
0.00915053
-2.39321e-05
0.00913926
-2.09386e-05
0.00912874
-1.81649e-05
0.00912324
0.00917869
-9.06899e-06
0.0091977
-1.2199e-05
0.00920305
-1.51135e-05
0.00921047
-1.91136e-05
0.009221
-2.26847e-05
0.00923874
-2.48282e-05
0.0092963
-2.81311e-05
0.00930346
-3.2539e-05
0.00932675
-3.76785e-05
0.00935744
-3.32159e-05
0.00931532
-2.49277e-05
0.00913178
-4.40806e-05
0.00902105
-6.3076e-05
0.00856572
-5.00257e-05
0.00882669
-3.85194e-05
0.00916653
-3.45826e-05
0.00923456
-3.36256e-05
0.00921905
-3.3043e-05
0.00918607
-3.19974e-05
0.00916747
-3.09383e-05
0.00914947
-2.88242e-05
0.00913714
-2.72592e-05
0.00912717
-2.49005e-05
0.00912088
0.00917153
-9.57122e-06
0.0092008
-1.26637e-05
0.00920614
-1.60497e-05
0.00921386
-1.89791e-05
0.00922393
-2.25046e-05
0.00924227
-2.45469e-05
0.00929834
-2.80988e-05
0.00930701
-3.43354e-05
0.00933299
-3.77949e-05
0.0093609
-3.06118e-05
0.00930814
-2.21916e-05
0.00912336
-4.09389e-05
0.0090398
-6.0891e-05
0.00858567
-4.84319e-05
0.00881423
-3.62028e-05
0.00915431
-3.1489e-05
0.00922985
-3.02954e-05
0.00921786
-3.05129e-05
0.00918629
-2.92807e-05
0.00916624
-2.86071e-05
0.0091488
-2.73342e-05
0.00913587
-2.56484e-05
0.00912549
-2.41441e-05
0.00911938
0.00916424
-1.01191e-05
0.00920385
-1.26483e-05
0.00920867
-1.59779e-05
0.00921719
-1.8834e-05
0.00922678
-2.27973e-05
0.00924623
-2.47492e-05
0.00930029
-3.03979e-05
0.00931266
-3.60152e-05
0.00933861
-3.60177e-05
0.00936091
-2.78939e-05
0.00930002
-1.96794e-05
0.00911514
-3.77682e-05
0.00905788
-5.86899e-05
0.00860659
-4.72234e-05
0.00880276
-3.43329e-05
0.00914142
-2.87528e-05
0.00922427
-2.71888e-05
0.0092163
-2.76582e-05
0.00918676
-2.71964e-05
0.00916578
-2.63511e-05
0.00914796
-2.48764e-05
0.0091344
-2.45046e-05
0.00912512
-2.28104e-05
0.00911768
0.00915726
-1.02179e-05
0.00920633
-1.36778e-05
0.00921213
-1.64251e-05
0.00921993
-1.97045e-05
0.00923006
-2.25764e-05
0.00924911
-2.7473e-05
0.00930519
-3.34204e-05
0.00931861
-3.53592e-05
0.00934055
-3.41264e-05
0.00935967
-2.52921e-05
0.00929118
-1.7209e-05
0.00910706
-3.45801e-05
0.00907525
-5.64382e-05
0.00862845
-4.6139e-05
0.00879246
-3.28058e-05
0.00912808
-2.62887e-05
0.00921775
-2.42798e-05
0.00921429
-2.49473e-05
0.00918742
-2.47251e-05
0.00916556
-2.41524e-05
0.00914738
-2.34281e-05
0.00913367
-2.23276e-05
0.00912402
-2.13905e-05
0.00911674
0.00915053
-1.13801e-05
0.0092092
-1.37429e-05
0.00921449
-1.63926e-05
0.00922258
-1.95857e-05
0.00923325
-2.58906e-05
0.00925541
-3.32236e-05
0.00931252
-3.34142e-05
0.0093188
-3.45288e-05
0.00934166
-3.20338e-05
0.00935718
-2.26812e-05
0.00928183
-1.50057e-05
0.00909939
-3.13981e-05
0.00909165
-5.42422e-05
0.0086513
-4.53271e-05
0.00878354
-3.14865e-05
0.00911424
-2.4192e-05
0.00921046
-2.15705e-05
0.00921166
-2.23751e-05
0.00918823
-2.18539e-05
0.00916504
-2.24972e-05
0.00914803
-2.14871e-05
0.00913266
-2.11031e-05
0.00912363
-2.03831e-05
0.00911602
0.00914352
-1.15858e-05
0.00921145
-1.43541e-05
0.00921726
-1.73875e-05
0.00922562
-1.94837e-05
0.00923535
-3.57642e-05
0.00927169
-3.28869e-05
0.00930964
-3.33864e-05
0.0093193
-3.36213e-05
0.0093419
-2.99644e-05
0.00935352
-2.01522e-05
0.00927202
-1.29677e-05
0.0090922
-2.82671e-05
0.00910695
-5.18742e-05
0.00867491
-4.45752e-05
0.00877624
-3.05414e-05
0.00910021
-2.23624e-05
0.00920228
-1.90282e-05
0.00920833
-1.99522e-05
0.00918915
-2.00833e-05
0.00916517
-1.98935e-05
0.00914784
-2.00516e-05
0.00913282
-1.93399e-05
0.00912292
-1.87979e-05
0.00911548
0.00913667
-1.2833e-05
0.00921405
-1.44894e-05
0.00921892
-1.73823e-05
0.00922851
-2.84765e-05
0.00924644
-3.65053e-05
0.00927972
-3.35101e-05
0.00930665
-3.31898e-05
0.00931898
-3.25073e-05
0.00934121
-2.77692e-05
0.00934878
-1.77458e-05
0.00926199
-1.11502e-05
0.00908561
-2.52406e-05
0.00912104
-4.94962e-05
0.00869916
-4.38807e-05
0.00877063
-2.9781e-05
0.00908611
-2.09177e-05
0.00919341
-1.67876e-05
0.0092042
-1.77049e-05
0.00919007
-1.7927e-05
0.00916539
-1.83452e-05
0.00914825
-1.76338e-05
0.00913211
-1.75473e-05
0.00912284
-1.66486e-05
0.00911458
0.00913042
-1.30824e-05
0.00921597
-1.564e-05
0.00922147
-1.78662e-05
0.00923074
-3.13791e-05
0.00925996
-3.5648e-05
0.00928399
-3.29869e-05
0.00930399
-3.28111e-05
0.0093188
-3.11744e-05
0.00933958
-2.55404e-05
0.00934315
-1.5618e-05
0.00925207
-9.91152e-06
0.0090799
-2.24877e-05
0.00913361
-4.67935e-05
0.00872347
-4.29983e-05
0.00876683
-2.91559e-05
0.00907227
-1.97964e-05
0.00918406
-1.48577e-05
0.00919926
-1.57081e-05
0.00919092
-1.5918e-05
0.0091656
-1.63844e-05
0.00914872
-1.62427e-05
0.00913197
-1.57431e-05
0.00912234
-1.54422e-05
0.00911428
0.00912376
-1.37949e-05
0.00921771
-1.57583e-05
0.00922344
-1.77964e-05
0.00923278
-2.81791e-05
0.00927034
-3.42011e-05
0.00929001
-3.33722e-05
0.00930316
-3.22152e-05
0.00931764
-2.96995e-05
0.00933706
-2.32559e-05
0.00933671
-1.3609e-05
0.00924242
-8.97894e-06
0.00907527
-1.99208e-05
0.00914455
-4.40802e-05
0.00874763
-4.22759e-05
0.00876503
-2.87678e-05
0.00905876
-1.9065e-05
0.00917435
-1.32315e-05
0.00919343
-1.44605e-05
0.00919215
-1.40285e-05
0.00916517
-1.45371e-05
0.00914923
-1.38983e-05
0.00913133
-1.44565e-05
0.00912289
-1.37187e-05
0.00911354
0.00911713
-1.49733e-05
-1.6833e-05
-1.81643e-05
-2.33362e-05
-2.69545e-05
-3.26719e-05
-3.05081e-05
-2.72422e-05
-2.09376e-05
-1.32346e-05
-1.07504e-05
-1.90941e-05
-3.86282e-05
-3.87734e-05
-2.78623e-05
-1.92887e-05
-1.29938e-05
-1.29058e-05
-1.24403e-05
-1.28501e-05
-1.26286e-05
-1.22091e-05
-1.24839e-05
9.86623e-05
-0.000108529
-0.0012231
0.00127024
0.000136444
-0.00125718
-7.36234e-05
-7.58803e-05
-0.00114222
-0.00016205
0.00115729
3.39092e-05
-3.52606e-05
-0.0012712
0.001321
4.73601e-05
-0.00131939
-2.32e-05
-2.57681e-05
0.0012815
-6.84454e-05
-7.04524e-05
-2.84682e-05
3.37204e-05
-0.00125625
0.00129044
-4.71637e-05
-0.00129726
2.80081e-05
2.59744e-05
0.00132121
-1.61491e-05
-1.86908e-05
-5.94509e-05
6.66906e-05
-0.00120523
0.00121772
-9.92431e-05
-0.00122853
0.000110054
0.001283
3.28323e-05
3.09478e-05
-5.86962e-05
6.56003e-05
-0.00114709
0.00112797
-0.000104855
-0.00113937
0.000116257
0.000113298
0.00120637
3.87615e-05
-5.00831e-05
-0.00111201
-1.19286e-05
0.000455097
1.96186e-06
-0.000230227
-0.000214903
-2.32954e-05
-0.000179011
-0.00020622
0.00106205
-5.91902e-05
-0.00106433
6.14701e-05
0.000112417
0.00111791
0.000101513
-0.000112327
-0.00111732
-0.00104811
2.49899e-06
0.00103562
0.000135993
-0.00112949
-0.000148732
-0.00110834
-5.3238e-05
0.00111374
9.89803e-05
-0.000117566
-0.00237551
0.0012272
-0.00121837
8.98341e-05
-0.00113947
9.67703e-05
0.00115041
0.000303961
0.000123695
-0.000600813
0.000305052
-6.51715e-05
-6.67233e-05
0.000111617
-0.000531745
-0.000120818
0.000540947
0.000124542
-0.00125359
0.00246057
0.000139687
-0.00243581
-0.000164447
-0.0023564
-0.000180621
0.0023823
4.79338e-05
-5.40863e-05
-0.00243187
0.00126583
-0.0012642
3.22837e-05
8.32232e-05
0.00123533
0.00126095
6.80561e-05
-7.33532e-05
-0.00125566
0.000637746
-2.10125e-05
-0.00063758
4.0729e-05
-1.98827e-05
-0.000633478
-6.48834e-05
6.30013e-05
0.00063536
0.000311586
9.10036e-06
-0.000320054
-6.32245e-07
-0.000320013
4.97269e-05
-5.43557e-05
0.000324642
4.50178e-05
-0.00131411
0.00252267
6.50157e-05
-0.002514
-7.36885e-05
-0.000146919
0.00248269
-1.08238e-05
1.66471e-05
-0.00243785
0.00124985
-0.00125438
-2.39309e-05
2.40678e-05
0.00126686
0.0012685
-2.32055e-07
2.54943e-06
-0.00127082
0.000635413
8.6895e-06
-0.000637651
-9.7165e-06
3.2649e-06
-0.00064204
-6.80046e-06
1.24359e-05
0.000640803
-4.39791e-06
0.000278046
-5.70945e-07
-0.000278007
5.32326e-07
-0.000285361
3.67409e-09
0.000285309
4.86263e-08
-4.03742e-05
-0.00129956
0.00251211
-2.4401e-05
-0.00252094
3.32254e-05
-4.58737e-05
0.00252675
-4.8877e-05
6.00875e-05
-0.00240448
0.00120159
-0.00120836
-5.26777e-05
-2.93995e-05
0.00124492
0.00122628
-4.83535e-05
5.5065e-05
-0.00123299
4.32811e-05
0.000583701
-0.000586685
-4.02968e-05
-0.000607907
1.72904e-05
-3.11729e-05
0.000603895
1.78952e-05
0.000297632
-3.92562e-05
-0.0003051
4.67242e-05
-0.000283785
-8.95227e-06
2.66033e-06
0.000290077
-8.91061e-05
-0.00123304
0.00245139
-8.5561e-05
-0.00246947
0.000103639
5.59537e-05
0.00250045
0.000519378
-7.66094e-05
-0.000522117
4.00052e-05
3.93428e-05
-0.000272453
-3.69652e-05
3.76762e-05
0.000271742
-9.43159e-05
-0.00115135
0.00237715
-0.000103395
-0.00239518
0.000121427
0.000114111
0.00243298
0.0004756
-6.11689e-05
-0.000477292
6.28609e-05
-0.000495014
-7.25311e-05
7.53739e-05
0.000492171
-1.52977e-05
1.25538e-05
-0.00217437
-2.02525e-05
0.00104996
-0.00104115
1.14464e-05
3.95296e-06
0.000462011
-3.18269e-05
-0.000971794
-7.74609e-05
0.0021224
-0.00213487
8.99302e-05
4.06242e-05
0.00106275
-6.68979e-05
-0.000632513
6.59324e-05
-9.25577e-05
-0.000602014
8.66953e-05
0.000607877
-0.00118637
0.000113832
0.00119946
-0.000126927
-0.000603474
0.000610195
-5.00031e-05
-4.92755e-05
0.000633506
-0.000635888
-3.26408e-05
-3.18754e-05
8.83155e-05
-0.00053914
0.000546613
-9.57894e-05
9.45835e-05
-0.00010063
-0.000597428
4.42817e-05
-0.000322343
-4.19515e-05
6.15721e-05
-6.3191e-05
0.00030558
-0.00121095
0.000155336
-0.000171795
0.0012274
-0.000607065
-6.07826e-05
0.000614147
0.000115272
0.000323018
4.48163e-05
-0.000323552
-5.62609e-06
-0.000643437
1.53829e-05
-8.36044e-06
-2.12743e-05
3.94937e-05
0.000641732
-2.22056e-05
5.95977e-05
0.00126539
-6.40319e-05
-0.000313156
0.000315249
-2.33668e-05
0.000319106
-5.61253e-06
-0.000319119
0.000317916
0.000318285
-3.26372e-05
-3.49412e-05
-2.08911e-05
-0.000313278
-1.5512e-06
-0.000287418
3.60777e-06
1.51004e-05
-4.84941e-06
0.000301335
-0.00130616
8.42485e-05
0.00131192
-4.38132e-05
-4.61963e-05
-0.000315874
0.000309135
2.18399e-05
0.000312114
1.5114e-06
-0.000315177
0.000326191
4.65533e-05
1.68415e-05
-0.000323616
9.59762e-05
-0.00129939
-5.01855e-05
-5.25657e-05
1.74306e-05
-0.000611631
-2.92104e-05
1.55033e-05
7.99721e-06
-1.43514e-05
0.000628879
1.28876e-05
-7.8654e-06
0.00126498
1.13836e-05
-0.00031693
0.00031307
1.18574e-05
0.000298905
1.89628e-05
-0.000300437
0.000317516
-5.21061e-06
8.22105e-06
-0.000316461
-1.46681e-05
-0.000276147
7.02984e-06
-1.23859e-06
0.000277831
1.45383e-06
-0.00131361
-1.50202e-05
0.00130888
1.09277e-05
8.82551e-06
-0.0003034
0.000304461
-2.29918e-06
0.00028841
-1.93041e-05
-0.000283774
0.000310309
1.8089e-06
-1.82269e-06
-0.000302149
-3.1288e-06
-0.00131735
4.52273e-06
2.34801e-06
-0.000571251
-4.39437e-05
0.000570007
2.18351e-05
2.33524e-05
0.000550867
-4.76314e-05
4.99525e-05
-0.000553188
0.000296402
1.97935e-05
-0.000572729
2.24391e-05
2.23202e-05
-3.8158e-05
-0.000274098
3.98028e-05
-4.28171e-05
5.37948e-05
0.000286654
-0.00125742
-8.47262e-05
0.00124808
4.74735e-05
4.65997e-05
-0.000295199
0.000289158
-3.67765e-05
0.000549736
3.76716e-05
-7.12322e-05
-0.000554334
0.000293977
-1.45202e-05
-3.50948e-05
-0.00029936
-7.88499e-05
-0.00126639
4.45783e-05
4.32433e-05
-0.000530213
-4.63689e-05
0.000528007
4.85743e-05
0.000515718
-4.29738e-05
4.44125e-05
-0.000517156
-4.79174e-05
0.000549203
4.95817e-05
-4.67443e-05
4.92638e-05
-0.000532732
-7.29349e-05