/*--------------------------------*- C++ -*----------------------------------*\
| =========                 |                                                 |
| \\      /  F ield         | OpenFOAM: The Open Source CFD Toolbox           |
|  \\    /   O peration     | Version:  5.x                                   |
|   \\  /    A nd           | Web:      www.OpenFOAM.org                      |
|    \\/     M anipulation  |                                                 |
\*---------------------------------------------------------------------------*/
FoamFile
{
    version     2.0;
    format      ascii;
    class       volScalarField;
    location    "100";
    object      pSat;
}
// * * * * * * * * * * * * * * * * * * * * * * * * * * * * * * * * * * * * * //

dimensions      [0 2 -2 0 0 0 0];

internalField   nonuniform List<scalar> 
6584
(
697.948
697.948
697.948
697.948
697.948
697.948
697.948
697.948
697.948
697.948
697.948
697.948
697.948
697.948
697.948
697.948
697.948
697.948
697.948
697.948
697.948
697.948
697.948
697.948
697.948
697.948
697.948
697.948
697.948
697.948
697.948
697.948
697.948
697.948
697.948
697.948
697.948
697.948
697.948
697.948
697.948
697.948
697.948
697.948
697.948
697.948
697.948
697.948
697.948
697.948
697.948
697.948
697.948
697.948
697.948
697.948
697.948
697.948
697.948
697.948
697.948
697.948
697.948
697.948
697.948
697.948
697.948
697.948
697.948
697.948
697.948
697.948
697.948
697.948
697.948
697.948
697.948
697.948
697.948
697.948
697.948
697.948
697.948
697.948
697.948
697.948
697.948
697.948
697.948
697.948
697.948
697.948
697.948
697.948
697.948
697.948
697.948
697.948
697.948
697.948
697.948
697.948
697.948
697.948
697.948
697.948
697.948
697.948
697.948
697.948
697.948
697.948
697.948
697.948
697.948
697.948
697.948
697.948
697.948
697.948
697.948
697.948
697.948
697.948
697.948
697.948
697.948
697.948
697.948
697.948
697.948
697.948
697.948
697.948
697.948
697.948
697.948
697.948
697.948
697.948
697.948
697.948
697.948
697.948
697.948
697.948
697.948
697.948
697.948
697.948
697.948
697.948
697.948
697.948
697.948
697.948
697.948
697.948
697.948
697.948
697.948
697.948
697.948
697.948
697.948
697.948
697.948
697.948
697.948
697.948
697.948
697.948
697.948
697.948
697.948
697.948
697.948
697.948
697.948
697.948
697.948
697.948
697.948
697.948
697.948
697.948
697.948
697.948
697.948
697.948
697.948
697.948
697.948
697.948
697.948
697.948
697.948
697.948
697.948
697.948
697.948
697.948
697.948
697.948
697.948
697.948
697.948
697.948
697.948
697.948
697.948
697.948
697.948
697.948
697.948
697.948
697.948
697.948
697.948
697.948
697.948
697.948
697.948
697.948
697.948
697.948
697.948
697.948
697.948
697.948
697.948
697.948
697.948
697.948
697.948
697.948
697.948
697.948
697.948
697.948
697.948
697.948
697.948
697.948
697.948
697.948
697.948
697.948
697.948
697.948
697.948
697.948
697.948
697.948
697.948
697.948
697.948
697.948
697.948
697.948
697.948
697.948
697.948
697.948
697.948
697.948
697.948
697.948
697.948
697.948
697.948
697.948
697.948
697.948
697.948
697.948
697.948
697.948
697.948
697.948
697.948
697.948
697.948
697.948
697.948
697.948
697.948
697.948
697.948
697.948
697.948
697.948
697.948
697.948
697.948
697.948
697.948
697.948
697.948
697.948
697.948
697.948
697.948
697.948
697.948
697.948
697.948
697.948
697.948
697.948
697.948
697.948
697.948
697.948
697.948
697.948
697.948
697.948
575.001
697.948
697.948
697.948
697.948
697.948
697.948
697.948
697.948
697.948
697.948
697.948
697.948
697.948
697.948
697.948
697.948
697.948
697.948
697.948
697.948
697.948
697.948
697.948
668.68
697.948
697.948
697.948
697.948
697.948
697.948
697.948
697.948
697.948
697.948
697.948
697.948
697.948
697.948
697.948
697.948
697.948
697.948
697.948
697.948
697.948
697.948
697.948
671.492
697.948
697.948
697.948
697.948
697.948
697.948
697.948
697.948
697.948
697.948
697.948
697.948
697.948
697.948
697.948
697.948
697.948
697.948
697.948
697.948
697.948
697.948
697.755
685.311
697.948
697.948
697.948
697.948
697.948
697.948
697.948
697.948
697.948
697.948
697.948
697.948
697.948
697.948
697.948
697.948
697.948
697.948
697.948
697.948
697.948
697.948
697.56
685.782
697.948
697.948
697.948
697.948
697.948
697.948
697.948
697.948
697.948
697.948
697.948
697.948
697.948
697.948
697.948
697.948
697.948
697.948
697.948
697.948
697.948
697.912
690.947
692.032
697.948
697.948
697.948
697.948
697.948
697.948
697.948
697.948
697.948
697.948
697.948
697.948
697.948
697.948
697.948
697.948
697.948
697.948
697.948
697.948
697.948
697.883
690.984
692.122
697.947
697.948
697.948
697.948
697.948
697.948
697.948
697.948
697.948
697.948
697.948
697.948
697.948
697.948
697.948
697.948
697.948
697.948
697.948
697.948
697.948
697.857
691.021
692.205
697.946
697.948
697.948
697.948
697.948
697.948
697.948
697.948
697.948
697.948
697.948
697.948
697.948
697.948
697.948
697.948
697.948
697.948
697.948
697.948
697.947
697.834
691.057
692.285
697.945
697.948
697.948
697.948
697.948
697.948
697.948
697.948
697.948
697.948
697.948
697.948
697.948
697.948
697.948
697.948
697.948
697.948
697.948
697.948
697.947
697.815
691.093
692.361
697.945
697.948
697.948
697.948
697.948
697.948
697.948
697.948
697.948
697.948
697.948
697.948
697.948
697.948
697.948
697.948
697.948
697.948
697.948
697.948
697.946
697.798
691.129
692.434
697.944
697.948
697.948
697.948
697.948
697.948
697.948
697.948
697.948
697.948
697.948
697.948
697.948
697.948
697.948
697.948
697.948
697.948
697.948
697.948
697.946
697.784
691.165
692.505
697.943
697.948
697.948
697.948
697.948
697.948
697.948
697.948
697.948
697.948
697.948
697.948
697.948
697.948
697.948
697.948
697.948
697.948
697.948
697.948
697.945
697.77
691.202
692.576
697.943
697.948
697.948
697.948
697.948
697.948
697.948
697.948
697.948
697.948
697.948
697.948
697.948
697.948
697.948
697.948
697.948
697.948
697.948
697.948
697.945
697.756
691.239
692.646
697.942
697.948
697.948
697.948
697.948
697.948
697.948
697.948
697.948
697.948
697.948
697.948
697.948
697.948
697.948
697.948
697.948
697.948
697.948
697.948
697.944
697.745
691.277
692.715
697.942
697.948
697.948
697.948
697.948
697.948
697.948
697.948
697.948
697.948
697.948
697.948
697.948
697.948
697.948
697.948
697.948
697.948
697.948
697.948
697.944
697.736
691.314
692.78
697.941
697.948
697.948
697.948
697.948
697.948
697.948
697.948
697.948
697.948
697.948
697.948
697.948
697.948
697.948
697.948
697.948
697.948
697.948
697.948
697.944
697.73
691.352
692.843
697.94
697.948
697.948
697.948
697.948
697.948
697.948
697.948
697.948
697.948
697.948
697.948
697.948
697.948
697.948
697.948
697.948
697.948
697.948
697.948
697.943
697.727
691.39
692.903
697.94
697.948
697.948
697.948
697.948
697.948
697.948
697.948
697.948
697.948
697.948
697.948
697.948
697.948
697.948
697.948
697.948
697.948
697.948
697.948
697.943
697.725
691.428
692.96
697.939
697.948
697.948
697.948
697.948
697.948
697.948
697.948
697.948
697.948
697.948
697.948
697.948
697.948
697.948
697.948
697.948
697.948
697.948
697.948
697.943
697.726
691.467
693.014
697.939
697.948
697.948
697.948
697.948
697.948
697.948
697.948
697.948
697.948
697.948
697.948
697.948
697.948
697.948
697.948
697.948
697.948
697.948
697.948
697.943
697.728
691.506
693.065
697.938
697.948
697.948
697.948
697.948
697.948
697.948
697.948
697.948
697.948
697.948
697.948
697.948
697.948
697.948
697.948
697.948
697.948
697.948
697.948
697.943
697.731
691.547
693.112
697.938
697.948
697.948
697.948
697.948
697.948
697.948
697.948
697.948
697.948
697.948
697.948
697.948
697.948
697.948
697.948
697.948
697.948
697.948
697.948
697.943
697.733
691.589
693.155
697.937
697.948
697.948
697.948
697.948
697.948
697.948
697.948
697.948
697.948
697.948
697.948
697.948
697.948
697.948
697.948
697.948
697.948
697.948
697.948
697.948
697.948
697.948
697.948
697.948
697.948
697.948
618.11
570.493
697.948
697.948
697.948
697.948
697.948
697.948
697.948
697.948
697.948
697.948
697.948
697.948
697.948
697.948
697.948
697.948
697.948
697.948
697.803
697.899
697.514
697.887
697.948
697.948
697.948
697.948
697.948
697.948
697.948
697.757
697.712
693.369
695.372
697.948
697.948
697.948
697.948
697.948
697.948
697.948
697.892
697.843
697.383
695.424
697.948
697.948
697.948
697.923
697.894
697.948
697.948
697.948
697.947
697.942
697.948
650.014
617.576
642.37
697.948
697.948
697.913
697.948
697.948
697.946
697.806
697.948
697.947
697.899
697.948
697.948
697.948
697.93
697.713
697.787
697.948
697.497
697.237
697.754
697.522
695.501
697.497
697.948
697.72
697.249
697.925
697.731
697.948
697.834
697.767
697.948
697.502
697.765
697.242
697.48
695.299
693.265
697.948
697.181
697.53
697.245
697.181
697.948
697.817
697.888
697.777
697.803
697.886
697.46
697.948
697.86
697.928
697.55
697.849
697.948
697.928
697.94
697.894
697.925
697.941
697.927
697.931
697.942
697.948
697.946
697.946
697.941
697.946
697.948
697.947
697.948
697.948
697.948
697.93
697.948
697.948
697.948
697.948
697.948
697.939
697.927
697.28
696.385
697.948
697.948
697.948
697.948
697.927
697.948
697.948
697.948
697.924
697.897
697.948
630.627
653.718
693.477
695.794
655.644
674.735
696.18
693.806
697.948
697.942
697.946
696.012
696.975
697.947
697.948
697.948
697.948
697.948
697.948
697.948
697.948
697.948
697.922
697.948
697.936
697.948
697.94
697.948
697.646
697.745
694.384
694.5
696.772
696.581
697.907
693.138
697.926
697.704
697.359
697.275
697.666
697.945
694.068
697.927
687.356
696.575
685.586
697.909
696.867
697.925
697.948
697.86
695.096
697.937
697.94
697.266
697.255
697.664
697.645
696.311
696.422
697.268
697.942
697.945
697.94
697.942
697.267
697.855
697.947
697.948
697.945
697.947
697.822
697.648
697.665
697.323
697.339
692.359
692.437
697.201
697.94
697.939
697.941
697.94
697.214
697.212
697.939
697.939
697.939
697.938
697.208
631.591
697.854
652.464
627.879
674.621
654.604
697.863
697.734
628.703
697.753
697.786
697.76
697.718
697.942
697.941
697.944
697.943
697.744
687.882
692.928
697.911
686.888
676.139
693.114
687.896
697.915
676.457
686.905
697.937
696.137
697.184
693.513
695.89
697.935
693.158
697.152
697.361
658.915
697.063
697.066
617.619
697.735
697.73
697.945
697.948
697.948
697.948
697.948
697.947
697.946
634.225
697.923
697.947
697.947
697.945
697.94
697.948
655.733
661.201
602.234
697.207
697.277
665.072
672.135
697.072
697.738
515.625
697.948
697.948
697.948
697.948
697.948
697.948
697.844
697.946
697.945
697.522
697.351
697.826
697.731
697.941
697.942
697.941
697.941
697.724
693.795
695.006
697.15
695.754
689.429
686.277
697.945
697.699
697.839
697.94
697.942
649.573
697.948
697.942
697.948
697.916
697.6
697.425
697.946
697.948
697.948
697.948
697.948
697.945
697.728
697.942
697.941
697.944
697.943
697.737
697.374
689.08
693.834
687.982
688.19
697.233
694.171
694.273
697.574
695.852
696.779
697.457
697.906
697.909
697.876
697.881
697.258
697.943
697.943
697.797
697.573
689.453
686.693
697.268
687.643
687.977
686.076
685.883
697.416
694.183
692.725
697.178
697.891
697.884
697.903
697.912
697.411
697.232
697.872
697.874
697.882
697.877
697.189
697.854
695.762
696.457
693.793
693.589
697.622
697.915
697.945
697.944
697.946
697.946
697.919
697.935
695.871
693.591
697.014
696.631
697.936
688.155
690.014
697.944
697.369
697.119
685.185
687.494
692.648
690.202
697.945
697.947
697.947
686.321
696.988
688.059
689.61
688.767
696.871
697.948
697.938
697.948
697.908
697.946
635.543
642.014
654.488
655.351
694.687
668.539
663.601
676.003
669.996
694.996
662.575
666.013
695.387
695.009
696.523
683.093
678.394
673.341
677.391
697.901
697.945
697.948
697.93
697.943
697.884
697.529
697.814
693.908
694.88
697.078
695.903
693.137
697.105
696.735
697.438
697.209
693.165
695.735
695.147
696.6
695.984
697.597
693.34
694.621
690.694
692.69
697.549
684.546
685.677
691.665
697.575
697.243
697.88
697.673
692.856
695.41
695.008
696.992
695.638
697.737
697.941
697.905
697.602
697.344
697.827
697.642
697.921
697.679
697.876
697.923
697.721
697.855
697.945
697.904
697.84
688.251
688.509
697.333
679.877
675.46
689.544
680.379
669.734
665.914
674.185
671.789
697.236
688.287
688.244
690.717
690.205
694.818
691.796
690.572
690.433
690.316
690.532
697.59
694.263
694.249
695.972
696.719
697.893
697.903
697.348
697.26
697.883
697.89
690.741
689.989
697.594
664.574
666.677
645.507
661.887
668.807
674.704
666.958
668.138
687.104
687.545
697.279
660.124
656.168
665.366
661.213
647.987
644.476
654.456
650.341
697.398
686.247
686.869
693.448
692.632
697.9
697.893
697.181
697.344
697.91
697.903
697.872
697.871
697.227
697.192
697.875
697.872
632.981
639.98
694.394
695.434
692.553
693.956
632.956
667.32
696.537
695.346
695.693
696.356
663.582
683.171
685.309
677.509
682.374
632.38
690.21
692.073
686.146
689.279
631.886
694.914
695.551
697.841
693.453
693.91
694.88
693.583
693.863
697.66
693.48
694.475
690.258
645.636
644.528
660.82
647.568
690.984
653.816
681.05
644.023
682.71
694.813
697.649
697.5
697.782
697.69
695.052
691.861
692.108
690.663
692.143
679.297
684.193
694.248
693.187
697.948
697.948
697.948
697.948
697.948
697.948
697.948
697.948
697.948
697.948
697.948
697.948
697.948
697.948
697.948
697.948
697.947
697.858
697.517
696.787
696.691
693.485
695.246
697.945
697.946
697.866
693.306
693.145
695.53
696.611
696.96
697.912
697.939
697.948
697.948
696.61
696.927
697.846
697.937
697.915
697.946
697.739
695.346
696.482
695.617
696.591
696.485
697.436
697.619
697.62
697.252
697.916
697.921
697.748
697.807
697.944
697.945
692.913
691.778
697.725
695.12
693.537
693.458
693.166
697.181
697.666
697.659
697.241
697.617
697.618
697.653
697.647
697.182
697.694
694.37
693.375
697.608
697.909
697.906
697.936
697.947
697.947
664.835
665.336
697.59
697.435
697.944
663.926
664.377
697.852
697.882
697.947
697.934
697.923
630.437
633.513
634.788
651.384
657.553
631.314
632.274
654.026
650.517
672.513
691.818
691.472
694.235
686.929
684.076
696.655
697.948
697.948
697.948
697.896
697.92
697.937
697.943
697.856
697.874
697.948
697.948
697.947
697.253
697.205
697.578
697.786
697.619
697.531
694.159
694.62
694.806
695.091
696.905
696.343
693.722
694.301
693.478
693.387
695.463
695.219
692.999
693.429
693.48
697.916
697.075
697.358
693.123
689.38
694.778
694.171
697.407
697.131
695.951
682.533
681.473
692.653
688.535
682.553
697.946
697.944
697.83
697.788
697.492
697.64
695.905
697.757
697.829
694.261
694.802
697.723
680.004
679.001
696.201
696.53
697.936
697.939
697.891
697.756
697.926
697.931
697.711
691.536
690.93
692.438
692.494
697.622
697.62
697.217
697.201
697.626
697.624
632.769
649.999
673.835
675.596
655.837
658.04
627.31
695.192
694.592
697.714
626.706
625.395
636.51
637.279
629.931
652.153
654.003
625.274
627.481
697.916
697.913
697.631
697.796
697.921
697.919
682.483
696.165
696.39
695.641
695.912
680.743
696.676
697.754
697.804
697.808
697.783
696.831
694.048
696.008
695.739
692.422
691.849
692.566
671.383
673.789
674.775
660.946
697.276
690.633
687.972
692.743
691.261
696.969
683.748
684.192
694.943
695.824
697.789
697.945
697.945
697.937
656.45
658.159
689.813
689.396
590.98
668.567
661.951
661.702
660.632
661.423
670.68
518.374
691.877
694.246
697.948
697.948
697.948
696.97
696.88
697.519
697.164
697.474
697.681
697.379
697.435
693.668
695.124
693.223
693.378
693.823
693.398
695.635
693.065
693.013
688.704
683.841
683.866
684.44
684.361
687.79
697.547
697.773
697.782
697.745
697.766
697.489
695.733
697.257
696.365
696.057
697.255
697.622
697.624
693.415
693.563
694.805
692.874
697.68
697.673
697.177
697.617
697.617
697.236
697.186
697.642
697.637
693.863
694.861
694.377
695.346
695.147
693.819
665.909
666.805
663.282
663.526
686.025
674.719
673.461
685.29
685.175
691.934
686.677
687.925
684.304
685.318
691.078
697.94
697.937
697.943
697.933
697.946
697.947
697.948
697.942
697.944
697.94
687.854
693.743
693.357
694.634
694.189
688.372
690.182
691.842
691.029
693.002
692.558
689.575
697.943
697.946
697.944
697.819
697.712
697.929
697.907
631.477
647.911
635.685
635.141
654.822
655.078
678.283
679.736
665.524
633.202
631.178
659.755
639.764
639.201
638.941
669.534
644.596
637.997
692.548
693.234
695.707
690.753
690.818
690.555
690.526
694.613
691.406
691.788
674.506
659.144
659.826
659.65
658.93
675.8
697.928
697.932
697.912
697.835
697.886
697.921
696.828
697.543
697.138
697.057
697.235
697.31
697.064
697.156
694.029
694.747
693.584
693.61
693.438
693.512
697
695.275
695.423
693.04
693.263
696.102
693.477
694.257
693.754
693.061
694.988
694.703
695.521
693.234
693.324
693.756
693.423
695.339
696.439
694.734
695.032
693.718
694.259
696.231
693.396
691.396
695.314
695.013
684.136
684.68
690.972
695.314
695.045
690.507
693.88
696.399
695.746
684.512
683.317
691.647
691.803
695.137
687.723
686.05
696.722
697.094
697.701
697.306
696.268
694.788
696.172
697.794
697.873
697.89
697.799
697.83
697.672
697.486
697.627
697.888
697.821
697.795
697.893
697.838
697.904
697.755
697.758
697.661
697.777
678.997
677.054
686.994
674.301
675.77
671.501
680.872
668.097
666.827
673.229
672.598
690.244
683.154
684.103
681.987
682.413
690.149
694.445
690.592
691.336
684.384
688.685
693.552
678.388
677.369
690.609
678.078
678.605
677.473
677.792
690.61
690.439
681.645
681.822
679.36
680.372
690.493
696.091
696.633
665.851
645.789
648.575
640.108
642.693
666.381
649.618
649.655
649.383
656.15
670.054
628.675
630.395
635.356
630.099
672.025
667.298
636.227
637.965
632.998
634.879
667.709
659.44
658.385
664.706
662.725
646.114
644.694
653.203
652.358
692.794
692.556
697.222
697.618
697.618
697.633
697.629
697.196
633.612
668.359
671.525
646.328
628.452
660.94
664.591
630.578
628.455
683.877
657.163
656.166
679.8
649.593
642.864
654.964
653.058
681.341
636.111
633.129
646.173
649.843
631.319
632.112
639.522
695.179
696.635
696.478
696.872
696.76
695.37
693.582
693.847
694.441
693.79
693.829
693.941
693.622
695.755
695.535
696.267
696.013
693.98
645.035
663.545
665.557
659.911
661.757
644.794
656.274
673.873
676.393
668.003
670.918
651.3
652.056
637.788
639.552
638.266
637.753
644.583
654.576
657.718
643.62
649.369
643.976
696.411
696.235
694.517
691.931
692.416
668.521
671.111
681.242
666.062
662.039
671.94
669.735
682.917
662.538
663.054
684.517
684.584
697.948
697.948
697.948
697.948
697.948
697.948
697.948
697.948
697.948
697.948
697.948
697.948
697.948
697.948
697.948
697.948
697.948
697.948
697.948
697.948
697.948
697.948
697.948
697.948
697.948
697.948
697.948
697.948
697.948
697.948
697.948
697.948
697.948
697.948
697.948
697.948
697.948
697.948
697.948
697.948
697.948
697.948
697.948
697.948
697.948
697.948
697.948
697.948
697.948
697.948
697.948
697.948
697.948
697.948
697.948
697.948
697.948
697.948
697.948
697.948
697.948
697.948
697.948
697.948
697.948
697.948
697.948
697.948
697.948
697.948
697.948
697.948
697.948
697.948
697.948
697.948
697.948
697.948
697.948
697.948
697.948
697.948
697.948
697.948
697.948
697.947
697.947
697.948
697.948
697.948
697.948
697.948
697.948
697.948
697.948
697.948
697.948
697.948
697.948
697.948
697.948
697.947
697.948
697.948
697.948
697.948
697.948
697.948
697.948
697.948
697.948
697.948
697.948
697.948
697.948
697.948
697.948
697.948
697.948
697.948
697.948
697.948
697.948
697.948
697.948
697.948
697.948
697.948
697.948
697.948
697.948
697.948
697.948
697.948
697.948
697.948
697.948
697.948
589.225
695.774
696.148
697.948
697.948
697.948
697.948
697.948
697.948
697.948
697.948
697.948
697.948
697.948
697.948
697.948
671.928
671.529
670.892
697.948
697.948
697.948
697.948
697.948
697.948
697.948
697.948
697.948
697.948
697.948
697.844
684.177
672.071
685.041
697.944
697.948
697.948
697.948
697.948
697.948
697.948
697.948
697.948
697.948
697.948
697.948
697.948
697.948
697.947
697.947
697.948
697.948
697.946
697.946
697.948
697.948
697.948
697.947
697.947
697.948
697.948
697.946
697.946
697.946
697.945
697.948
697.948
697.948
697.948
697.948
697.947
697.948
697.946
697.946
697.948
697.948
697.948
697.948
697.948
697.948
697.948
697.947
697.947
697.948
589.471
684.104
684.078
665.029
665.065
519.606
697.948
697.948
697.948
697.948
697.948
697.948
697.948
697.948
697.947
697.948
697.948
697.948
697.948
697.948
697.948
697.948
697.948
697.948
697.948
697.948
697.948
697.948
697.948
697.948
697.948
697.948
697.948
697.948
697.948
697.948
697.946
697.941
697.948
697.948
697.948
697.948
697.948
697.948
697.948
697.948
697.948
697.948
697.948
697.948
697.948
697.948
697.948
697.948
697.948
697.948
697.948
697.948
697.948
697.948
697.948
697.948
697.817
697.907
697.902
697.936
697.932
697.885
697.821
697.75
697.865
697.948
697.948
697.948
697.948
697.948
697.948
697.948
697.948
697.948
697.948
697.948
697.948
697.948
697.948
697.948
697.948
697.948
697.948
697.947
697.947
697.948
697.747
697.883
697.886
697.871
697.872
697.714
697.948
697.948
697.948
697.948
697.948
697.948
697.948
697.948
697.948
697.948
697.948
697.948
697.948
697.948
697.948
697.948
697.948
697.948
697.948
697.948
697.948
697.873
697.946
697.946
697.914
697.916
697.851
697.301
695.93
696.176
697.948
697.948
697.948
697.948
697.948
697.948
697.948
697.948
697.948
697.918
697.644
697.747
697.751
697.777
697.901
697.948
697.948
697.948
697.948
697.948
697.948
697.948
697.948
697.948
697.946
697.939
697.94
697.923
697.927
697.943
697.948
697.948
697.948
649.615
697.942
697.942
697.318
697.404
616.743
697.928
697.924
636.525
697.948
697.948
697.948
697.948
697.948
697.948
697.924
697.943
697.94
697.948
697.948
697.944
697.948
697.948
697.948
697.943
697.862
697.931
697.948
697.948
697.948
697.941
697.946
697.948
697.906
697.859
697.847
697.947
697.946
697.947
697.948
697.948
697.948
697.948
697.948
697.948
697.945
697.946
697.938
697.715
697.873
697.872
697.896
697.891
697.767
697.948
697.948
697.948
697.464
696.867
696.973
696.205
696.195
697.233
697.036
697.077
697.541
697.947
697.947
697.948
697.695
697.821
697.834
697.898
697.942
697.943
697.842
697.847
697.737
697.948
697.948
697.948
697.825
697.908
697.911
697.889
697.892
697.777
697.948
697.947
697.947
697.527
696.836
696.767
697.484
697.445
697.752
697.249
696.234
696.219
696.705
696.65
697.457
697.945
697.945
697.948
697.823
697.812
697.504
697.948
697.945
697.945
697.831
697.087
696.773
697.703
697.674
697.88
697.789
697.555
697.52
696.657
696.224
697.787
697.877
697.687
697.722
696.42
696.621
697.526
697.947
697.947
697.948
697.887
697.93
697.928
697.939
697.938
697.925
697.569
697.84
697.832
697.926
697.924
697.81
697.948
697.946
697.947
697.93
697.875
697.865
697.914
697.909
697.939
697.9
697.754
697.73
697.854
697.842
697.922
697.94
697.914
697.919
697.773
697.834
697.93
697.933
697.941
697.94
697.948
697.947
697.938
697.948
697.948
697.948
697.947
697.721
697.63
697.695
697.713
697.947
697.942
697.922
697.918
697.948
697.888
697.897
697.948
697.948
697.948
697.948
697.948
697.948
697.948
697.948
697.948
697.948
697.948
697.948
697.948
697.948
697.948
697.948
697.948
697.948
697.948
697.948
697.948
697.935
697.947
697.947
697.947
697.947
697.933
697.191
696.223
696.424
694.548
694.963
696.574
697.948
697.948
697.948
697.948
697.948
697.948
697.879
697.917
697.939
697.948
697.948
697.948
697.948
697.948
697.948
697.948
697.948
697.948
697.915
697.947
697.946
697.947
697.947
697.911
697.948
697.948
697.948
693.94
688.82
687.936
692.721
692.133
695.548
695.96
693.698
694.112
697.948
697.948
697.948
697.945
697.948
697.948
697.948
697.948
697.945
696.206
693.753
693.266
695.66
695.413
696.879
697.947
697.948
697.948
697.948
697.948
697.947
697.948
697.948
697.948
697.948
697.948
697.948
697.948
697.948
697.948
697.948
697.948
697.948
697.948
697.948
697.948
697.948
697.948
697.948
697.948
697.948
697.948
697.948
697.947
697.948
697.948
697.948
697.948
697.945
697.946
697.943
697.948
697.948
697.948
697.427
697.598
697.913
697.923
697.864
697.875
697.674
697.289
697.361
696.601
696.751
697.427
697.487
697.847
697.829
697.875
697.862
697.54
697.944
697.93
697.933
697.668
697.824
697.937
697.88
697.063
697.572
697.116
697.666
697.548
697.942
697.934
697.9
697.948
697.948
697.948
697.921
697.913
697.933
697.942
697.932
697.927
696.226
696.254
697.281
697.247
696.199
696.208
697.323
697.377
697.684
697.626
697.237
697.277
697.643
697.652
697.275
697.943
697.932
697.93
697.936
697.934
697.944
697.94
697.924
697.923
697.928
697.926
697.941
697.265
697.633
697.637
697.906
697.914
697.872
697.948
697.946
697.945
697.947
697.946
697.948
697.946
697.94
697.938
697.943
697.942
697.946
697.79
697.883
697.896
697.166
697.122
697.631
697.68
697.249
697.208
696.373
696.346
697.307
697.359
696.437
696.404
697.714
697.705
697.192
697.939
697.923
697.924
697.922
697.922
697.939
697.941
697.927
697.928
697.925
697.926
697.94
697.239
697.737
697.725
697.939
697.92
697.92
697.922
697.921
697.939
697.939
697.921
697.921
697.92
697.92
697.939
697.558
697.178
697.843
672.829
686.635
687.715
677.129
678.661
656.957
697.872
697.639
697.6
697.771
696.035
695.394
697.377
697.447
697.807
697.73
697.192
697.291
697.885
697.878
697.688
697.942
697.932
697.933
697.929
697.93
697.942
697.944
697.936
697.937
697.934
697.935
697.943
697.765
697.896
697.891
688.733
678.513
677.096
686.872
685.588
692.342
697.795
697.775
697.906
685.667
693.082
693.594
688.611
689.466
677.595
691.196
696.906
697.039
696.583
696.753
690.421
697.919
697.828
697.812
677.971
658.552
656.441
675.436
673.287
685.733
697.9
697.908
697.939
696.335
697.197
697.097
697.621
697.576
697.083
696.979
696.845
695.6
697.933
697.882
697.892
697.231
694.227
693.151
695.292
694.555
697.302
697.142
696.096
695.889
697.711
696.041
696.499
697.424
697.481
697.753
697.948
697.948
697.948
697.948
697.948
697.948
697.947
697.948
697.948
697.948
697.948
697.947
692.772
692.581
631.613
697.923
697.63
697.639
697.763
697.632
697.925
697.944
697.948
697.948
697.947
697.947
697.943
697.948
697.948
697.948
661.047
651.459
593.489
697.2
694.988
694.145
695.231
695.105
697.236
697.556
690.431
688.942
696.445
696.887
697.749
516.425
612.072
637.349
697.948
697.948
697.948
697.948
697.948
697.948
697.948
697.948
697.948
697.948
697.948
697.948
697.948
697.948
697.948
697.948
697.948
697.948
697.917
697.912
697.831
697.946
697.938
697.94
697.935
697.937
697.945
697.842
697.7
697.672
697.877
697.88
697.739
697.942
697.926
697.925
697.928
697.927
697.942
697.941
697.924
697.924
697.925
697.924
697.941
697.718
697.873
697.875
695.566
695.727
697.223
697.935
697.937
697.946
697.806
697.895
697.886
697.909
697.903
697.824
697.941
697.818
697.714
697.821
697.825
697.941
649.594
695.849
695.266
697.948
697.948
697.948
697.948
697.948
697.948
697.948
697.948
697.948
697.873
697.866
697.911
697.948
697.948
697.947
697.948
697.948
697.948
697.948
697.948
697.948
697.948
697.948
697.947
697.948
697.948
697.948
697.942
697.947
697.947
697.878
697.875
697.72
697.942
697.926
697.927
697.924
697.925
697.942
697.944
697.931
697.933
697.928
697.93
697.943
697.75
697.886
697.881
696.521
696.701
697.421
690.497
694.898
694.287
695.881
695.545
692.786
688.017
693.737
693.764
693.713
693.722
688.09
697.233
696.19
696.189
694.264
696.087
696.024
696.144
696.12
694.28
697.558
697.108
697.137
697.747
697.795
697.624
697.908
697.897
697.881
697.877
697.803
697.801
697.809
697.806
697.879
697.943
697.93
697.929
697.932
697.931
697.943
697.787
697.896
697.899
696.969
696.905
697.55
688.62
695.088
695.291
694.642
694.861
687.612
696.27
696.25
697.257
687.787
693.844
693.866
693.795
693.824
687.944
685.73
694.326
694.464
694.144
694.22
685.631
697.437
696.602
696.556
697.888
697.825
697.83
697.817
697.821
697.886
697.877
697.883
697.915
697.466
697.799
697.784
697.872
697.795
697.795
697.798
697.797
697.873
697.88
697.81
697.814
697.805
697.807
697.878
697.603
697.647
697.866
696.009
697.099
696.985
697.301
697.207
696.253
697.579
696.768
696.881
697.934
697.932
697.911
697.945
697.94
697.941
697.938
697.939
697.945
697.946
697.943
697.943
697.941
697.942
697.946
697.922
697.937
697.935
697.891
697.883
697.933
695.063
697.346
697.424
697.155
697.257
694.74
696.898
697.599
697.643
697.49
697.548
696.771
697.938
697.904
697.898
688.782
679.02
678.021
681.133
680.026
689.394
697.928
697.925
697.943
697.295
697.745
697.771
697.682
697.716
697.212
676.984
675.887
686.787
697.948
697.947
697.946
695.798
696.011
697.093
696.736
695.309
695.574
697.947
697.948
697.948
697.948
697.948
697.947
697.944
697.935
697.942
690.27
689.581
694.335
667.095
680.951
682.054
673.633
685.392
686.618
683.123
684.221
671.632
695.288
691.53
690.91
694.536
694.174
696.376
681.934
689.701
690.413
687.8
688.842
680.421
697.946
697.942
697.939
697.946
697.944
697.947
697.935
697.915
697.907
697.936
697.925
697.939
697.659
697.647
697.803
696.988
695.796
696.067
695.27
695.518
696.862
697.37
696.618
696.758
696.295
696.471
697.295
697.111
697.207
697.639
693.879
696.278
696.07
696.599
696.45
694.285
695.833
695.58
692.02
697.492
696.882
697.003
697.483
696.75
696.917
696.3
696.579
697.383
697.84
697.638
697.747
697.137
697.408
697.768
695.259
691.92
692.09
696.505
694.127
695.652
692.408
693.052
696.003
697.876
697.785
697.402
697.934
697.901
697.926
697.812
697.861
697.922
697.928
697.899
697.884
697.94
697.936
697.944
697.876
697.918
697.928
697.899
697.908
697.854
688.281
693.695
693.67
693.926
693.764
688.35
697.303
696.302
696.385
696.191
696.194
697.24
688.287
693.693
693.707
693.667
693.676
688.258
697.167
697.2
697.608
694.256
696.197
696.169
696.27
696.231
694.252
697.896
697.839
697.832
697.863
697.849
697.899
697.296
697.669
697.7
697.627
697.63
697.264
697.885
697.817
697.813
697.826
697.821
697.888
690.546
695.683
695.78
695.452
695.577
690.316
697.613
697.076
697.026
687.363
693.964
693.985
693.896
693.932
687.484
697.293
696.319
696.293
696.515
696.474
697.377
686.547
694.081
694.109
694.01
694.044
686.694
697.898
697.844
697.849
697.834
697.839
697.895
697.186
697.696
697.688
697.767
697.751
697.282
697.908
697.865
697.871
697.854
697.859
697.905
697.871
697.794
697.795
697.794
697.794
697.871
697.874
697.8
697.802
697.797
697.798
697.873
694.784
687.216
685.909
689.16
688.28
695.133
693.02
681.484
680.226
684.417
682.89
693.49
683.774
685.275
670.478
696.696
693.309