/*--------------------------------*- C++ -*----------------------------------*\
| =========                 |                                                 |
| \\      /  F ield         | OpenFOAM: The Open Source CFD Toolbox           |
|  \\    /   O peration     | Version:  5.x                                   |
|   \\  /    A nd           | Web:      www.OpenFOAM.org                      |
|    \\/     M anipulation  |                                                 |
\*---------------------------------------------------------------------------*/
FoamFile
{
    version     2.0;
    format      ascii;
    class       volVectorField;
    location    "100";
    object      U;
}
// * * * * * * * * * * * * * * * * * * * * * * * * * * * * * * * * * * * * * //

dimensions      [0 1 -1 0 0 0 0];

internalField   nonuniform List<vector> 
6584
(
(1.00008 -0.000216798 5.10735e-27)
(1.00006 -0.000474177 2.47691e-25)
(1.00007 -0.00063969 2.18237e-30)
(1.00007 -0.000865497 -4.38829e-25)
(1.00008 -0.00109914 0)
(1.00008 -0.0013543 0)
(1.00007 -0.00160337 0)
(1.00003 -0.00176665 4.443e-25)
(0.999956 -0.00177856 4.5069e-25)
(0.999837 -0.00148073 0)
(0.999714 -0.000667682 2.05215e-25)
(0.999629 0.000605174 -1.54347e-25)
(0.99965 0.00203086 -1.10919e-26)
(0.999774 0.00315371 2.85963e-26)
(0.999922 0.00368636 9.86984e-27)
(1.00008 0.00363286 9.08572e-25)
(1.00015 0.00323958 8.18444e-25)
(1.00018 0.00271714 6.569e-26)
(1.00017 0.00217443 5.84036e-25)
(1.00015 0.00168328 4.2604e-25)
(1.00013 0.00127503 0)
(1.00011 0.000912237 0)
(1.00009 0.000656835 6.64613e-25)
(1.00011 0.000294789 4.10407e-25)
(1.00034 -0.000456664 -2.42104e-25)
(1.00028 -0.000957326 -9.48235e-25)
(1.00034 -0.00126522 -1.2621e-24)
(1.00036 -0.00172201 0)
(1.00041 -0.00219313 -1.61653e-25)
(1.00041 -0.00272236 -1.38212e-24)
(1.00036 -0.00326416 -8.37804e-25)
(1.00014 -0.00364736 1.41025e-24)
(0.999835 -0.00373865 -6.09395e-26)
(0.999042 -0.00319027 -3.31663e-25)
(0.998091 -0.00153509 -1.16663e-28)
(0.99748 0.00114655 0)
(0.99762 0.00419129 4.8565e-25)
(0.998485 0.00655524 3.2414e-25)
(0.999639 0.00765273 -1.99802e-24)
(1.00043 0.00748626 -5.30019e-25)
(1.00076 0.00658632 -1.26122e-24)
(1.00088 0.00546176 -1.64702e-24)
(1.00084 0.0043279 -4.33953e-24)
(1.00073 0.00332645 -3.60696e-24)
(1.00061 0.00251498 -2.42166e-25)
(1.00053 0.0017892 -1.0448e-25)
(1.00042 0.00131567 0)
(1.00046 0.000616159 3.55978e-25)
(1.00074 -0.000704697 -6.1291e-25)
(1.00069 -0.00142363 0)
(1.00082 -0.00184988 -2.41935e-25)
(1.00089 -0.0025393 -1.64718e-24)
(1.00102 -0.00326031 -2.46091e-24)
(1.00106 -0.00411311 0)
(1.00097 -0.00507283 0)
(1.00048 -0.00580443 -3.4399e-25)
(0.999576 -0.006573 -1.28482e-25)
(0.998213 -0.00461125 1.05145e-25)
(0.996637 -0.00258169 -1.84353e-25)
(0.995416 0.000930249 -2.61599e-25)
(0.995543 0.00520819 0)
(0.997099 0.00862509 0)
(0.999121 0.0102775 3.90516e-26)
(1.00109 0.012091 -2.27782e-24)
(1.00201 0.0101675 0)
(1.00228 0.00823975 -7.04017e-25)
(1.00211 0.00639373 0)
(1.00182 0.00484305 -5.47478e-25)
(1.00149 0.00363819 -1.57508e-24)
(1.00126 0.00256559 -9.63871e-25)
(1.00102 0.00192003 0)
(1.00101 0.000934074 2.77899e-25)
(1.00124 -0.000940695 -3.77973e-25)
(1.00124 -0.0018393 0)
(1.00146 -0.00236064 -3.25672e-25)
(1.00165 -0.00327128 0)
(1.00192 -0.0042465 0)
(1.0021 -0.00548642 0)
(1.00205 -0.00702126 -4.14699e-25)
(1.00139 -0.00850066 4.48448e-24)
(0.999666 -0.0103373 -3.07331e-25)
(0.997039 -0.00833191 3.27693e-25)
(0.993626 -0.0059548 -1.93266e-25)
(0.990206 -0.000337744 4.96245e-26)
(0.989874 0.00778944 4.93853e-26)
(0.993546 0.0142374 0)
(0.998229 0.0163626 -3.32529e-24)
(1.00163 0.0151919 0)
(1.00444 0.0140211 0)
(1.00452 0.0110135 5.51852e-24)
(1.00404 0.00826637 3.71229e-24)
(1.00335 0.00612757 -1.27404e-24)
(1.00271 0.00455698 -9.11901e-25)
(1.00223 0.00317995 0)
(1.0018 0.00240978 3.94254e-25)
(1.00168 0.00121295 3.3287e-25)
(1.0018 -0.0011445 -1.48353e-25)
(1.00189 -0.0021697 -1.0297e-26)
(1.00225 -0.00275225 -4.85355e-26)
(1.00262 -0.00385417 -7.24017e-26)
(1.00312 -0.00505074 1.91474e-25)
(1.00364 -0.00670721 3.63624e-24)
(1.00387 -0.00893986 -5.29944e-24)
(1.00361 -0.0114099 5.11668e-24)
(1.00018 -0.0122922 2.45336e-25)
(0.996717 -0.0136552 1.49364e-24)
(0.990056 -0.0121813 -2.16927e-25)
(0.980885 -0.00392354 2.75263e-25)
(0.978914 0.011679 -1.63321e-26)
(0.988194 0.023483 4.62248e-24)
(0.99838 0.0252803 0)
(1.0043 0.0216781 3.3187e-24)
(1.00634 0.0166308 -7.93145e-25)
(1.0077 0.0129798 -4.75222e-24)
(1.00664 0.00968409 -2.74757e-24)
(1.0053 0.00698582 9.78277e-25)
(1.00421 0.00516061 -7.31089e-26)
(1.00338 0.00355538 -4.50586e-26)
(1.00271 0.00272701 4.5446e-25)
(1.00239 0.00141954 -1.79468e-25)
(1.00239 -0.0012962 7.46117e-26)
(1.00262 -0.00237948 -1.94736e-25)
(1.00313 -0.00297168 -1.32571e-26)
(1.00376 -0.00419743 0)
(1.00459 -0.00550198 -7.37646e-25)
(1.00567 -0.00751062 -2.39447e-25)
(1.00647 -0.00994707 -2.12123e-24)
(1.00529 -0.0125298 -5.53031e-25)
(1.00325 -0.0164651 2.25474e-24)
(0.999394 -0.0215556 8.44493e-24)
(0.986862 -0.0217866 1.79266e-24)
(0.969379 -0.0136887 2.7334e-28)
(0.961003 0.0145826 -7.00547e-26)
(0.981024 0.0366416 7.47388e-25)
(1.00219 0.0387777 -7.41749e-24)
(1.01029 0.0292691 0)
(1.0116 0.0210457 4.19015e-28)
(1.01189 0.0141801 1.09392e-24)
(1.0098 0.0103977 3.20581e-25)
(1.00757 0.00725107 1.02281e-24)
(1.00589 0.00533274 -4.20308e-25)
(1.00461 0.00361931 0)
(1.00366 0.00281924 -2.40015e-25)
(1.0031 0.00152271 -3.54154e-25)
(1.00297 -0.00137932 1.23269e-27)
(1.00335 -0.0024419 -8.78646e-26)
(1.00403 -0.00297832 1.13345e-25)
(1.00496 -0.0042305 -3.2893e-27)
(1.0062 -0.00547635 6.37139e-27)
(1.00797 -0.00767652 -1.21416e-24)
(1.00967 -0.0100988 -1.65247e-24)
(1.00916 -0.0137889 -8.5525e-26)
(1.00948 -0.0199567 -3.37281e-25)
(1.00765 -0.0297581 1.24385e-24)
(0.992936 -0.0400129 0)
(0.954528 -0.0427194 1.16451e-24)
(0.908575 0.0198327 4.39219e-26)
(0.976993 0.074919 3.24528e-24)
(1.01112 0.0541893 -5.31456e-26)
(1.02158 0.0355904 0)
(1.01941 0.0233201 2.2546e-24)
(1.01692 0.0137525 2.77152e-25)
(1.01331 0.0100025 2.3739e-25)
(1.00997 0.00673273 -7.21093e-26)
(1.0076 0.00496917 -9.00971e-25)
(1.00581 0.00331691 0)
(1.00457 0.00264832 -2.26083e-25)
(1.00373 0.00149774 -2.31199e-25)
(1.00349 -0.00138499 -9.72173e-26)
(1.00403 -0.00234807 8.3636e-26)
(1.00487 -0.00275925 4.5e-26)
(1.0061 -0.0039188 3.97834e-26)
(1.00775 -0.00490441 -3.766e-26)
(1.01022 -0.00697291 5.57859e-25)
(1.01303 -0.00885489 1.2304e-28)
(1.01404 -0.0130701 -1.99076e-25)
(1.01797 -0.019959 2.1023e-28)
(1.0226 -0.0322023 -3.03313e-24)
(1.01851 -0.0548972 -1.04013e-25)
(0.995703 -0.109569 4.44328e-26)
(1.01677 0.132474 5.77707e-25)
(1.03995 0.0666646 -5.48531e-25)
(1.03821 0.0359341 1.17233e-24)
(1.02918 0.0217103 -2.06933e-25)
(1.02201 0.0111073 6.94068e-25)
(1.01663 0.00821839 6.98189e-25)
(1.01217 0.00532321 5.4821e-25)
(1.00912 0.00402221 -3.13759e-25)
(1.00683 0.00263332 0)
(1.00533 0.00220392 0)
(1.00419 0.00133292 -1.83717e-30)
(1.00391 -0.00131565 -1.95524e-26)
(1.0046 -0.00211388 -4.94174e-27)
(1.00555 -0.00234305 -1.80204e-26)
(1.00701 -0.00329513 6.65132e-26)
(1.00897 -0.00384154 6.85221e-26)
(1.01196 -0.00542301 4.14033e-25)
(1.01568 -0.00626077 1.14727e-24)
(1.0186 -0.00995309 0)
(1.02606 -0.014939 0)
(1.03804 -0.0235234 0)
(1.05283 -0.043765 -1.04302e-25)
(1.08727 -0.0896129 1.45962e-26)
(1.11742 0.114113 0)
(1.07792 0.0519729 0)
(1.05447 0.0257809 0)
(1.0382 0.0150165 2.53621e-25)
(1.0259 0.00633825 0)
(1.01907 0.00510222 -7.97798e-25)
(1.01378 0.00311772 -4.91491e-25)
(1.0102 0.00255389 -4.73493e-26)
(1.00752 0.0016184 0)
(1.00583 0.00151522 1.50072e-26)
(1.00443 0.00103434 3.46853e-26)
(1.00421 -0.00118597 4.55567e-27)
(1.005 -0.0017814 -6.16241e-27)
(1.006 -0.00180373 6.86084e-27)
(1.00757 -0.00247653 3.4302e-26)
(1.00967 -0.00250491 -8.45617e-26)
(1.01279 -0.00337633 -6.31281e-27)
(1.01689 -0.00301181 -1.03629e-25)
(1.02125 -0.00519579 -7.31851e-27)
(1.03021 -0.00644529 0)
(1.04502 -0.00760943 -2.65039e-25)
(1.06975 -0.0137559 1.14077e-30)
(1.1193 -0.022791 -3.48859e-26)
(1.16007 0.0308851 -8.71674e-26)
(1.09916 0.0151982 -3.22179e-25)
(1.06247 0.00759366 -2.49646e-24)
(1.04309 0.00455747 0)
(1.0275 0.000444611 -1.69654e-24)
(1.02003 0.00116225 0)
(1.01447 0.000444591 -2.0082e-26)
(1.01065 0.000752502 0)
(1.00776 0.000391698 -2.73854e-26)
(1.00599 0.000652982 4.346e-27)
(1.00441 0.000628058 -7.41144e-27)
(1.00438 -0.00102 0)
(1.00522 -0.0014096 -3.83214e-26)
(1.0062 -0.00124134 -4.09887e-26)
(1.00775 -0.00162875 2.94138e-26)
(1.00977 -0.00119347 -9.9067e-27)
(1.01265 -0.00135493 4.38027e-26)
(1.01648 -3.85484e-05 3.05153e-25)
(1.02128 -0.000371104 1.60805e-25)
(1.0292 0.0019832 0)
(1.0413 0.00744923 1.309e-24)
(1.06452 0.0147665 3.94398e-25)
(1.09833 0.0376444 -1.65646e-26)
(1.13714 -0.0484877 -3.93398e-26)
(1.09441 -0.0228443 5.61002e-25)
(1.05941 -0.0112682 8.93589e-26)
(1.04231 -0.00638433 1.46464e-24)
(1.02648 -0.00517906 7.34024e-24)
(1.01936 -0.00281431 4.0773e-24)
(1.01413 -0.00223544 -2.75014e-24)
(1.0104 -0.00112118 -1.92167e-24)
(1.00753 -0.00088379 6.824e-26)
(1.0058 -0.000284349 2.89384e-26)
(1.00412 0.000155466 -8.08595e-26)
(1.00445 -0.000844883 2.84531e-27)
(1.00529 -0.00105823 -5.47838e-27)
(1.00618 -0.000750716 -2.78908e-27)
(1.0076 -0.000907104 2.47044e-26)
(1.0094 -0.000165555 -3.11592e-34)
(1.01178 0.0001874 1.30028e-25)
(1.01488 0.00196532 4.94563e-25)
(1.01919 0.00311064 1.90106e-25)
(1.02449 0.00746377 0)
(1.03095 0.0159558 -3.60643e-25)
(1.04597 0.0294496 -8.5937e-26)
(1.05085 0.0635778 -1.98133e-26)
(1.07626 -0.0956111 6.9793e-27)
(1.07116 -0.0465092 0)
(1.04834 -0.024477 -2.51778e-24)
(1.03685 -0.0147428 1.95796e-24)
(1.02337 -0.00943114 1.09214e-23)
(1.01738 -0.00611214 7.03174e-24)
(1.0129 -0.00450978 0)
(1.00953 -0.00281284 -1.74108e-24)
(1.00686 -0.00205459 -1.02628e-24)
(1.00526 -0.00119422 5.71824e-26)
(1.00359 -0.000337123 -7.93958e-26)
(1.00443 -0.000684044 0)
(1.00523 -0.000771906 4.67909e-27)
(1.00601 -0.000393235 -5.82892e-27)
(1.00725 -0.00040675 -1.63988e-26)
(1.00875 0.000451692 0)
(1.01058 0.00103487 -5.54817e-26)
(1.0128 0.00280927 7.81403e-26)
(1.01619 0.00463952 -3.21756e-26)
(1.01878 0.00907472 -5.22787e-26)
(1.01997 0.0166719 1.90712e-25)
(1.02582 0.0288831 3.75814e-26)
(0.999746 0.0585292 0)
(1.00535 -0.0986271 1.36297e-26)
(1.0427 -0.0517941 -4.50208e-27)
(1.03482 -0.0295246 1.28065e-24)
(1.02923 -0.0190584 1.24204e-25)
(1.01923 -0.0118767 5.08041e-24)
(1.01465 -0.0083272 5.10276e-24)
(1.01108 -0.00613499 0)
(1.00822 -0.00414844 -2.14478e-26)
(1.00586 -0.00300735 3.76939e-25)
(1.00446 -0.00199717 2.20312e-25)
(1.00287 -0.000807907 7.58986e-27)
(1.00438 -0.000553046 0)
(1.00511 -0.000573113 0)
(1.00577 -0.00018828 0)
(1.00683 -0.000150337 0)
(1.00805 0.000665258 -1.48561e-26)
(1.00943 0.00121501 -1.33409e-26)
(1.01094 0.00266503 -1.47743e-25)
(1.01307 0.00452176 2.57556e-24)
(1.01436 0.00767578 0)
(1.0129 0.011847 0)
(1.01313 0.0182132 5.81351e-25)
(0.959767 0.0285636 2.19584e-24)
(0.690196 -0.0275289 -6.68406e-26)
(0.95709 -0.0612165 -4.16788e-24)
(1.02107 -0.0432647 -6.70951e-25)
(1.02362 -0.0279685 -5.17029e-27)
(1.02184 -0.0197183 -2.8496e-26)
(1.01505 -0.0127092 -1.80185e-24)
(1.01179 -0.00943177 1.80255e-25)
(1.00903 -0.00707199 2.97757e-27)
(1.00669 -0.00505848 -1.92068e-24)
(1.00467 -0.00369457 0)
(1.00349 -0.00264541 8.37328e-26)
(1.00202 -0.00122622 -1.69391e-25)
(1.00432 -0.000458492 0)
(1.00497 -0.00046306 -1.64808e-26)
(1.00555 -0.000119808 2.4813e-27)
(1.00646 -0.000100965 0)
(1.00746 0.00057901 0)
(1.00856 0.000944642 -8.78989e-25)
(1.00965 0.00200619 1.56787e-25)
(1.01146 0.00296185 3.29584e-24)
(1.01213 0.00491247 3.64914e-24)
(1.01067 0.00597313 2.24923e-24)
(1.0093 0.00722882 0)
(0.949999 0.00524902 -2.34338e-25)
(0.869734 -0.0219456 4.16788e-25)
(0.946713 -0.0362122 -3.85735e-25)
(1.01031 -0.0283693 3.91448e-25)
(1.01666 -0.0233304 -3.85441e-25)
(1.01403 -0.0162079 5.66922e-25)
(1.0115 -0.012335 -8.49209e-26)
(1.00917 -0.00962818 -3.50185e-27)
(1.00701 -0.00742194 -5.85312e-27)
(1.00514 -0.00557282 0)
(1.00342 -0.00412232 -8.97152e-25)
(1.00244 -0.00312202 -9.94819e-25)
(1.00112 -0.0015777 -2.38418e-25)
(1.00428 -0.00039982 9.61823e-28)
(1.00487 -0.000428821 -1.94861e-26)
(1.00537 -0.000154054 3.10494e-26)
(1.00618 -0.000196964 4.67788e-30)
(1.00706 0.000307963 -1.46405e-25)
(1.00802 0.000445616 -6.12561e-25)
(1.00897 0.00105847 -1.82967e-24)
(1.01073 0.0014628 -2.5665e-24)
(1.01163 0.00211688 -8.5403e-25)
(1.01138 0.00128757 -1.22591e-25)
(1.01001 -0.000863961 0)
(0.950877 -0.00288431 -6.36513e-26)
(0.893947 -0.0161773 -2.94558e-25)
(0.959961 -0.023068 -1.65761e-25)
(1.00716 -0.0211162 -1.04331e-25)
(1.01302 -0.0187221 -2.01915e-25)
(1.01102 -0.0142084 -3.07902e-24)
(1.0088 -0.011497 0)
(1.007 -0.00929394 -3.17615e-25)
(1.0052 -0.00737252 -3.12314e-26)
(1.00366 -0.00576357 -5.22317e-26)
(1.00219 -0.00432776 1.06352e-25)
(1.00137 -0.00343299 0)
(1.00021 -0.00185268 0)
(1.00427 -0.000372094 -9.16705e-28)
(1.00481 -0.000451166 4.86544e-28)
(1.00528 -0.000254004 1.70445e-26)
(1.00603 -0.000376867 0)
(1.00685 -4.92428e-05 -6.63075e-26)
(1.00779 -0.000124937 0)
(1.00877 9.52455e-05 -1.20144e-24)
(1.01086 -5.27346e-06 1.47447e-25)
(1.01281 -0.000614326 -2.08599e-26)
(1.01319 -0.00154022 -7.13649e-26)
(1.01106 -0.00320305 2.62841e-25)
(0.947216 -0.00355172 -6.85451e-25)
(0.904664 -0.01291 -6.57575e-25)
(0.959471 -0.0175901 8.43826e-26)
(1.00625 -0.015897 2.36071e-25)
(1.01119 -0.0150686 1.10943e-25)
(1.00888 -0.0122321 -1.46123e-24)
(1.00679 -0.010338 1.61262e-24)
(1.00527 -0.00865155 0)
(1.00365 -0.00706416 6.5313e-25)
(1.00235 -0.00572392 -1.29942e-26)
(1.00105 -0.00436688 1.49877e-25)
(1.00035 -0.00360649 0)
(0.999333 -0.00205805 0)
(1.00431 -0.000368468 -7.59078e-28)
(1.0048 -0.000510208 1.68045e-27)
(1.00526 -0.000386665 -1.58759e-26)
(1.006 -0.000590103 -3.98041e-27)
(1.00682 -0.000412087 0)
(1.00783 -0.000664115 0)
(1.00889 -0.000659335 1.36188e-25)
(1.0115 -0.00120421 -2.05062e-25)
(1.01387 -0.00173695 1.21965e-25)
(1.01621 -0.00450686 -7.71749e-25)
(1.01049 -0.00422638 0)
(0.95232 -0.00460593 5.89646e-25)
(0.911845 -0.0111435 -8.77644e-25)
(0.959796 -0.0152481 1.05568e-24)
(1.00817 -0.0100689 1.52491e-24)
(1.00942 -0.0113133 1.75621e-24)
(1.00773 -0.0102773 1.40929e-24)
(1.00539 -0.0091206 1.39946e-24)
(1.00394 -0.00787689 -1.93074e-25)
(1.00238 -0.00661303 -1.11815e-25)
(1.00121 -0.00553088 -2.97813e-25)
(1.00003 -0.00428937 -1.07609e-24)
(0.999415 -0.00366918 3.77122e-26)
(0.998512 -0.00220093 -3.44812e-26)
(1.00439 -0.000382026 -1.08084e-26)
(1.00485 -0.000589131 2.33997e-27)
(1.00532 -0.000527342 -1.69838e-26)
(1.00606 -0.000803587 -2.87002e-26)
(1.00692 -0.0007338 0)
(1.00803 -0.00112717 0)
(1.0092 -0.00119837 1.01004e-24)
(1.01226 -0.00205396 1.64015e-25)
(1.01508 -0.00233129 -1.63477e-25)
(1.0173 -0.00529836 -1.04951e-24)
(1.00125 -0.00271488 0)
(0.964315 -0.0067417 -2.31313e-24)
(0.917255 -0.0093483 3.36807e-25)
(0.974543 -0.0127983 2.35588e-25)
(1.00773 -0.00819387 2.47157e-25)
(1.00914 -0.00995857 -4.23154e-25)
(1.00714 -0.00868671 -4.44618e-25)
(1.00441 -0.00811561 2.55617e-25)
(1.00295 -0.00710314 -6.60512e-26)
(1.00136 -0.00611831 -1.07242e-24)
(1.00026 -0.00525116 -3.18732e-25)
(0.999141 -0.00414024 -1.41473e-24)
(0.998574 -0.00364917 0)
(0.997766 -0.00229222 -1.99754e-25)
(1.0045 -0.000406898 -1.09601e-26)
(1.00496 -0.000675823 -1.0441e-26)
(1.00544 -0.000660995 0)
(1.00621 -0.00100063 -2.1522e-26)
(1.00711 -0.000999778 0)
(1.00832 -0.00150808 -8.409e-25)
(1.00961 -0.00157754 -8.56641e-26)
(1.01302 -0.00265968 1.01815e-25)
(1.0162 -0.00271083 -1.8265e-25)
(1.01788 -0.00570606 -2.12148e-25)
(1.00135 -0.00286514 -3.61874e-25)
(0.967003 -0.00617824 -1.32242e-24)
(0.919563 -0.00842585 5.72296e-25)
(0.973493 -0.0111394 -2.39111e-25)
(1.00699 -0.00676514 -2.219e-25)
(1.00894 -0.00874844 -4.94029e-26)
(1.0067 -0.00736544 -2.73775e-25)
(1.00368 -0.00726722 -2.1221e-25)
(1.0022 -0.00636548 -5.80732e-25)
(1.00054 -0.00562995 -1.20432e-25)
(0.999467 -0.00492811 -7.71514e-26)
(0.998379 -0.00395201 -4.53297e-25)
(0.997833 -0.00357121 -1.98807e-25)
(0.997101 -0.00234232 -9.0092e-26)
(1.00465 -0.000438695 0)
(1.0051 -0.000762475 -2.5819e-26)
(1.00561 -0.000779896 -1.42268e-26)
(1.00641 -0.00117372 -1.37402e-26)
(1.00736 -0.00120939 9.71761e-26)
(1.00867 -0.00181118 -9.57607e-25)
(1.01007 -0.00183832 0)
(1.01378 -0.00308143 -2.36718e-25)
(1.01723 -0.00294777 0)
(1.01825 -0.00582919 0)
(1.00114 -0.00278411 1.18819e-27)
(0.969627 -0.00565431 -8.85169e-27)
(0.921779 -0.00780081 2.56857e-25)
(0.972318 -0.00999646 -1.71867e-25)
(1.00631 -0.00569988 -1.34189e-25)
(1.00881 -0.00772064 -4.10154e-26)
(1.00637 -0.00626774 4.63404e-26)
(1.00314 -0.00653084 -9.10698e-26)
(1.00161 -0.00567838 -1.55074e-25)
(0.999882 -0.00516821 2.97236e-25)
(0.998808 -0.00458679 -8.05227e-26)
(0.997732 -0.00374589 0)
(0.997191 -0.00345398 2.71706e-30)
(0.996517 -0.00236008 0)
(1.00483 -0.000474519 0)
(1.00528 -0.000844554 -3.38267e-26)
(1.00582 -0.00088117 -1.88601e-26)
(1.00664 -0.00132049 4.39413e-26)
(1.00765 -0.00136841 0)
(1.00904 -0.00204487 5.78067e-26)
(1.01055 -0.00201164 -6.38268e-25)
(1.01451 -0.00336275 -4.69368e-25)
(1.01816 -0.00307852 -9.92158e-27)
(1.01841 -0.00579791 -2.68769e-28)
(1.00066 -0.00258626 4.04017e-25)
(0.972043 -0.00513784 -2.09331e-25)
(0.923774 -0.00734481 3.7118e-25)
(0.970997 -0.00917519 -1.2378e-25)
(1.00561 -0.00489387 1.09038e-25)
(1.00872 -0.00686932 -3.12865e-27)
(1.00615 -0.0053564 -1.11369e-25)
(1.00275 -0.00589264 5.1451e-26)
(1.00116 -0.0050526 2.116e-25)
(0.999354 -0.00474225 -4.15903e-30)
(0.998265 -0.0042435 -3.96472e-26)
(0.997188 -0.00353505 -2.99874e-25)
(0.99664 -0.00331096 1.51598e-25)
(0.99601 -0.0023525 1.42394e-25)
(1.00502 -0.000512875 -1.96203e-26)
(1.00548 -0.000920053 -3.98197e-26)
(1.00605 -0.00096542 -4.22697e-34)
(1.0069 -0.00144194 9.92577e-26)
(1.00796 -0.00148574 2.24842e-25)
(1.00942 -0.00222022 4.35163e-26)
(1.01104 -0.00212354 -6.49105e-25)
(1.0152 -0.00354374 -3.92973e-25)
(1.01898 -0.00313813 2.54919e-25)
(1.01837 -0.00566666 0)
(1.00003 -0.00234385 7.96232e-26)
(0.974342 -0.00464588 -5.93473e-26)
(0.925652 -0.00697406 1.24215e-25)
(0.969566 -0.00855995 -9.73679e-26)
(1.0048 -0.00427277 -1.74688e-31)
(1.0086 -0.00615612 -1.31511e-25)
(1.006 -0.0045887 -9.05113e-26)
(1.00247 -0.0053364 -1.92772e-26)
(1.0008 -0.00448832 1.14367e-25)
(0.998936 -0.00435378 -1.88532e-25)
(0.997819 -0.00390797 -2.4632e-25)
(0.996736 -0.00332693 -1.27847e-25)
(0.996172 -0.00315184 -1.31254e-25)
(0.995576 -0.00232471 1.25467e-25)
(1.00524 -0.000553383 -1.17287e-34)
(1.0057 -0.000988784 -2.20341e-26)
(1.0063 -0.0010353 2.37648e-26)
(1.00718 -0.00154094 5.27966e-26)
(1.00829 -0.00157136 1.03223e-29)
(1.0098 -0.00234865 0)
(1.01153 -0.0021949 -3.72194e-27)
(1.01585 -0.00365391 -3.63725e-25)
(1.01967 -0.00315143 2.20898e-25)
(1.01817 -0.0054632 0)
(0.999286 -0.00208205 -6.79681e-31)
(0.97659 -0.00417737 4.451e-26)
(0.927509 -0.00664849 -1.15209e-25)
(0.968071 -0.00809226 0)
(1.00389 -0.00378943 2.221e-26)
(1.00844 -0.00555206 2.9261e-26)
(1.00589 -0.00393044 0)
(1.00227 -0.00484483 2.73999e-26)
(1.00052 -0.00397983 3.83005e-26)
(0.998608 -0.00399962 -4.19095e-25)
(0.997452 -0.00358494 -1.03249e-25)
(0.996363 -0.00312467 1.08994e-25)
(0.995778 -0.00298269 -1.2941e-25)
(0.995209 -0.00228009 0)
(1.00546 -0.000596665 2.26825e-26)
(1.00593 -0.00105172 -2.34406e-26)
(1.00655 -0.00109459 0)
(1.00746 -0.00162123 1.90566e-26)
(1.00863 -0.00163467 1.84778e-26)
(1.01017 -0.00244049 2.29321e-26)
(1.01201 -0.00224196 0)
(1.01646 -0.00371394 6.56649e-27)
(1.02025 -0.00313502 1.86689e-25)
(1.0178 -0.00520784 0)
(0.998471 -0.0018146 5.26913e-26)
(0.978808 -0.00372567 2.24342e-26)
(0.929394 -0.00633919 -8.54435e-26)
(0.966546 -0.00773324 1.58186e-26)
(1.00288 -0.00341073 -1.48966e-26)
(1.00822 -0.00503669 -3.81996e-27)
(1.00581 -0.00335596 3.00846e-26)
(1.00214 -0.0044032 -1.12505e-26)
(1.00029 -0.00351975 -6.38656e-28)
(0.998355 -0.00367442 -1.56258e-25)
(0.997153 -0.00327615 5.57466e-26)
(0.996059 -0.0029286 7.50214e-26)
(0.995449 -0.00280733 -1.54309e-26)
(0.994903 -0.00222051 -2.34342e-27)
(1.00569 -0.000643979 -7.97931e-28)
(1.00616 -0.00111057 -2.84414e-26)
(1.00682 -0.00114741 -1.84855e-27)
(1.00773 -0.0016868 0)
(1.00897 -0.00168417 4.71975e-25)
(1.01053 -0.00250435 0)
(1.01249 -0.0022768 -2.86445e-25)
(1.01701 -0.00373772 0)
(1.0207 -0.00309692 1.62482e-25)
(1.01729 -0.00490983 5.95913e-26)
(0.997599 -0.00155061 0)
(0.980981 -0.00328987 1.82226e-26)
(0.93134 -0.00603226 0)
(0.965028 -0.00745666 1.25004e-26)
(1.00177 -0.0031121 -4.17439e-27)
(1.00793 -0.00459293 0)
(1.00574 -0.00284601 0)
(1.00206 -0.00399894 -8.73638e-27)
(1.00012 -0.00310113 1.31051e-26)
(0.998164 -0.00337242 0)
(0.996909 -0.00298138 0)
(0.995814 -0.00273727 4.75483e-26)
(0.995176 -0.00262758 7.18385e-27)
(0.994651 -0.00214666 -4.24107e-26)
(1.00592 -0.000696942 7.09319e-28)
(1.0064 -0.00116734 1.15447e-27)
(1.00708 -0.00119786 0)
(1.00801 -0.00174142 -5.75802e-27)
(1.00931 -0.00172698 2.32056e-25)
(1.01088 -0.00254727 1.07534e-26)
(1.01295 -0.00230837 -2.72432e-25)
(1.01751 -0.00373485 -8.15019e-29)
(1.02102 -0.0030425 0)
(1.01666 -0.004581 7.14695e-26)
(0.99669 -0.00129529 0)
(0.983095 -0.00287248 0)
(0.933373 -0.00572161 0)
(0.963568 -0.00723766 8.38743e-26)
(1.00057 -0.002873 6.91466e-26)
(1.00756 -0.00420682 0)
(1.00566 -0.00238682 -4.43423e-27)
(1.00202 -0.00362181 0)
(0.999991 -0.00271757 0)
(0.998026 -0.0030874 0)
(0.996713 -0.00269936 0)
(0.995622 -0.0025485 -2.60554e-26)
(0.994952 -0.0024441 -2.59921e-26)
(0.994447 -0.00205868 1.20953e-31)
(1.00615 -0.000757204 0)
(1.00663 -0.00122406 1.23833e-26)
(1.00735 -0.00124964 -1.44479e-26)
(1.00828 -0.0017884 2.63219e-26)
(1.00964 -0.00176882 2.25029e-25)
(1.01122 -0.00257467 4.49844e-25)
(1.0134 -0.00234313 0)
(1.01795 -0.0037119 0)
(1.02121 -0.00297521 1.67887e-26)
(1.0159 -0.0042299 -1.84686e-26)
(0.995769 -0.00105245 -3.15458e-33)
(0.985163 -0.00247272 1.02203e-25)
(0.935495 -0.00539126 5.57097e-26)
(0.962175 -0.00705521 6.98796e-26)
(0.999285 -0.00268307 1.79943e-27)
(1.0071 -0.00387569 0)
(1.00556 -0.00197003 -6.87298e-26)
(1.00203 -0.00326449 -6.32765e-26)
(0.999895 -0.00236289 0)
(0.997933 -0.00281401 -6.01605e-26)
(0.996556 -0.0024283 -6.99682e-41)
(0.995473 -0.0023595 7.22993e-26)
(0.994769 -0.00225693 4.59707e-26)
(0.994285 -0.00195592 3.65535e-26)
(1.00638 -0.000826122 -2.4838e-26)
(1.00685 -0.00128242 1.15181e-26)
(1.0076 -0.00130562 -1.27298e-26)
(1.00854 -0.00183047 5.12904e-26)
(1.00997 -0.00181395 2.1903e-25)
(1.01155 -0.0025906 8.50859e-25)
(1.01384 -0.00238527 0)
(1.01832 -0.00367224 0)
(1.02127 -0.00289653 1.52356e-26)
(1.01505 -0.0038613 0)
(0.994852 -0.000822791 0)
(0.987174 -0.00209003 0)
(0.937723 -0.00503806 0)
(0.960871 -0.00690032 -5.77789e-26)
(0.997924 -0.00253465 -4.25242e-26)
(1.00655 -0.00359253 -5.54706e-26)
(1.00543 -0.00158997 -1.05088e-25)
(1.00207 -0.0029216 -5.13606e-26)
(0.99983 -0.00203303 0)
(0.997879 -0.00254798 -1.9191e-26)
(0.996435 -0.00216658 0)
(0.995362 -0.00216777 0)
(0.994623 -0.00206567 1.98794e-26)
(0.994159 -0.00183775 2.86627e-27)
(1.0066 -0.000904553 -2.38161e-26)
(1.00707 -0.00134364 -1.31518e-26)
(1.00785 -0.00136784 -2.8139e-28)
(1.00879 -0.00186946 2.50358e-27)
(1.01029 -0.00186483 -6.26431e-34)
(1.01187 -0.00259771 4.02743e-25)
(1.01427 -0.00243576 0)
(1.01862 -0.00361646 -1.92481e-26)
(1.02119 -0.00280664 1.16894e-26)
(1.01412 -0.00347952 1.56389e-26)
(0.993954 -0.000607898 2.35063e-26)
(0.98911 -0.00172635 6.74444e-26)
(0.940059 -0.00466214 1.57581e-26)
(0.959683 -0.00676517 0)
(0.996495 -0.00242186 0)
(1.0059 -0.00335227 -7.57957e-28)
(1.00526 -0.00124434 4.19893e-26)
(1.00214 -0.00258995 1.75039e-31)
(0.999794 -0.00172548 -4.00129e-26)
(0.997857 -0.00228622 0)
(0.996343 -0.00191289 0)
(0.995283 -0.00197149 1.12567e-26)
(0.994508 -0.00186999 0)
(0.994064 -0.00170377 0)
(1.00681 -0.000992651 0)
(1.00728 -0.00140815 -2.39034e-26)
(1.00809 -0.00143714 -1.24409e-26)
(1.00904 -0.00190629 -2.51358e-26)
(1.01059 -0.00192268 0)
(1.01218 -0.00259702 0)
(1.01468 -0.00249267 0)
(1.01882 -0.00354369 -2.32448e-26)
(1.02098 -0.00270493 0)
(1.01312 -0.00308856 -2.57828e-27)
(0.993089 -0.000410129 7.25919e-27)
(0.990954 -0.00138541 2.56748e-26)
(0.942501 -0.00426487 1.04982e-26)
(0.958634 -0.00664106 7.6437e-26)
(0.995014 -0.00234012 2.53258e-26)
(1.00516 -0.0031515 0)
(1.00502 -0.000933921 -3.28597e-26)
(1.00224 -0.00226874 -2.58396e-26)
(0.999782 -0.00143919 0)
(0.997862 -0.002027 0)
(0.996277 -0.00166669 0)
(0.99523 -0.00176945 9.98443e-27)
(0.994419 -0.0016699 0)
(0.993994 -0.00155409 0)
(1.00701 -0.0010895 2.54136e-28)
(1.00748 -0.00147556 -2.22911e-26)
(1.00832 -0.00151306 1.09209e-28)
(1.00927 -0.00194108 0)
(1.01089 -0.00198673 -6.69352e-27)
(1.01248 -0.00258721 2.43013e-28)
(1.01507 -0.00255219 0)
(1.01894 -0.00345179 -1.12519e-26)
(1.02064 -0.00259041 6.54267e-27)
(1.01206 -0.00269344 9.3251e-27)
(0.992269 -0.000233852 -2.58354e-27)
(0.992688 -0.00107362 1.71918e-26)
(0.945042 -0.00384924 1.14509e-26)
(0.957748 -0.00651771 1.11971e-27)
(0.993497 -0.00228431 -5.30037e-28)
(1.00432 -0.0029871 2.75107e-26)
(1.0047 -0.000661875 4.78888e-28)
(1.00235 -0.00195987 -1.35057e-27)
(0.999789 -0.00117493 0)
(0.997889 -0.0017703 -9.17702e-27)
(0.996231 -0.00142834 -1.97362e-26)
(0.995199 -0.00156154 0)
(0.994351 -0.00146606 1.6001e-26)
(0.993943 -0.0013895 -1.04589e-26)
(1.00719 -0.001193 0)
(1.00766 -0.00154443 -1.1842e-26)
(1.00854 -0.001594 -1.43071e-28)
(1.00949 -0.00197315 -4.94207e-28)
(1.01117 -0.00205351 0)
(1.01277 -0.00256648 1.8088e-25)
(1.01542 -0.00260889 -4.35564e-26)
(1.01895 -0.00333725 -1.2324e-26)
(1.02017 -0.00246122 -4.02153e-27)
(1.01097 -0.00229853 -4.16956e-27)
(0.99151 -8.40297e-05 -7.52769e-27)
(0.99429 -0.000798634 1.57451e-26)
(0.947655 -0.00341963 1.42984e-27)
(0.95704 -0.00638545 9.02387e-28)
(0.991965 -0.00225012 -1.50002e-26)
(1.0034 -0.00285658 -2.03718e-26)
(1.00431 -0.000432894 6.61051e-28)
(1.00247 -0.00166694 -1.11591e-27)
(0.999811 -0.000934546 0)
(0.99793 -0.00151713 -3.29971e-27)
(0.996202 -0.00119904 -1.51669e-26)
(0.995184 -0.00134854 0)
(0.9943 -0.00125988 6.85467e-27)
(0.993908 -0.00121164 -9.49293e-27)
(1.00736 -0.00129991 -1.12134e-26)
(1.00784 -0.00161241 1.1452e-26)
(1.00874 -0.00167707 -2.31525e-26)
(1.00971 -0.0019999 -3.25454e-28)
(1.01143 -0.00211791 -6.40651e-27)
(1.01304 -0.00252989 1.73701e-25)
(1.01574 -0.00264883 -2.38443e-26)
(1.01886 -0.00318881 -5.51303e-27)
(1.01958 -0.00231389 -2.41963e-27)
(1.00985 -0.00191749 3.82939e-27)
(0.99083 1.79243e-05 1.73792e-26)
(0.995761 -0.00058742 7.41903e-27)
(0.950354 -0.00298001 1.48028e-27)
(0.956538 -0.00620955 0)
(0.990421 -0.00221741 -1.53458e-26)
(1.00239 -0.00275561 -1.38214e-26)
(1.00381 -0.000259364 5.59309e-28)
(1.00259 -0.00140226 0)
(0.999835 -0.000723461 1.41141e-27)
(0.997979 -0.00127103 1.34914e-27)
(0.996184 -0.000981349 -1.08983e-26)
(0.99518 -0.00113226 -1.51387e-27)
(0.994262 -0.00105347 4.30096e-27)
(0.993882 -0.00102281 0)
(1.0075 -0.00140407 -9.93593e-27)
(1.00799 -0.0016753 1.04263e-26)
(1.0089 -0.00175791 -1.02281e-26)
(1.0099 -0.00201948 0)
(1.01165 -0.00217825 0)
(1.01329 -0.00248047 -3.90697e-26)
(1.01601 -0.00267588 1.62602e-26)
(1.01871 -0.00301396 -1.26372e-26)
(1.01898 -0.00214475 -2.97318e-27)
(1.00884 -0.00153565 -4.51937e-27)
(0.990261 8.93217e-05 -2.54191e-26)
(0.996986 -0.000425618 0)
(0.952845 -0.00254133 0)
(0.956207 -0.00602527 0)
(0.989013 -0.00220719 0)
(1.00143 -0.00268595 2.55627e-27)
(1.00331 -0.000136548 0)
(1.00271 -0.0011583 0)
(0.999863 -0.000540314 1.43157e-27)
(0.998032 -0.00103132 0)
(0.996173 -0.000778148 0)
(0.995184 -0.000914721 0)
(0.994236 -0.000850863 4.06392e-27)
(0.993865 -0.000826516 0)
(1.00766 -0.00150399 0)
(1.0082 -0.00173263 -5.4394e-28)
(1.00911 -0.00183444 -6.87655e-28)
(1.01015 -0.00202827 -2.67255e-28)
(1.01191 -0.00222274 -2.47923e-27)
(1.01357 -0.00239265 -6.10836e-26)
(1.01623 -0.00259445 -2.52216e-26)
(1.01829 -0.00269651 9.87072e-31)
(1.01798 -0.00190857 3.05666e-34)
(1.00755 -0.00125937 -1.68948e-32)
(0.989773 -0.000101879 -9.57413e-26)
(0.998363 -0.000609687 0)
(0.956117 -0.00205249 1.50087e-26)
(0.956183 -0.00541353 1.20895e-25)
(0.987216 -0.00202022 -4.8642e-26)
(1.00005 -0.00266087 6.27461e-27)
(1.00236 -0.000188847 0)
(1.00278 -0.00104248 0)
(0.999824 -0.000409703 0)
(0.998098 -0.000810791 0)
(0.996146 -0.000593537 0)
(0.995194 -0.000698677 0)
(0.994203 -0.0006534 2.20708e-27)
(0.993839 -0.000624754 0)
(1.07898 -0.0967363 1.99935e-26)
(1.11176 0.132963 7.26265e-26)
(1.00731 0.147405 3.26269e-25)
(1.11838 -0.0316311 -3.42919e-26)
(1.16312 0.0439213 -1.30489e-26)
(1.12259 0.123761 -6.01914e-26)
(1.10305 0.0318784 -1.50982e-26)
(1.14187 -0.0555171 -1.61213e-25)
(1.16425 0.0308781 -4.46788e-26)
(1.05731 0.0621483 -7.409e-26)
(1.08169 -0.101925 2.42739e-25)
(1.13587 -0.0641648 0)
(1.00587 0.0605638 6.86815e-30)
(1.00477 -0.110873 -1.4528e-25)
(1.07216 -0.105505 1.33132e-25)
(0.963645 0.0329992 0)
(0.78647 0.00727869 -8.63864e-26)
(0.668806 -0.031138 1.32478e-25)
(0.942325 -0.0747317 9.46909e-25)
(0.995232 -0.108665 -2.16947e-25)
(0.984086 -0.103404 1.82166e-25)
(0.908629 -0.000627752 4.36999e-26)
(0.992903 0.139325 4.63126e-25)
(0.957837 0.0661437 1.03226e-24)
(1.0452 -0.0491624 -1.25666e-25)
(1.07383 -0.086533 5.74012e-27)
(1.004 -0.0983976 -2.4057e-25)
(1.05976 0.238511 0)
(0.938659 0.22315 -2.60447e-25)
(1.10738 0.122019 0)
(1.07447 0.0705774 1.11883e-26)
(1.03819 0.0783063 -1.38428e-24)
(1.06773 -0.0218885 1.26274e-25)
(1.11181 -0.0294644 -3.22432e-26)
(1.08145 -0.0803147 6.62274e-27)
(1.10599 -0.0658872 -6.08378e-27)
(1.12505 -0.0749344 5.52457e-27)
(1.11519 -0.119367 -7.04028e-27)
(1.13418 0.0929388 8.11673e-26)
(1.1264 0.165438 2.95661e-26)
(1.15827 0.0422942 5.97826e-27)
(1.10645 0.0311413 -3.87206e-25)
(1.08508 0.0630153 1.52649e-25)
(1.06754 0.00865585 2.59419e-25)
(1.101 0.0260474 1.33071e-26)
(1.11305 -0.0214699 -2.10511e-28)
(1.11673 0.00301138 2.19159e-30)
(1.10346 0.0174156 -3.30258e-26)
(1.11962 -0.0237363 -6.0659e-28)
(1.09477 -0.0138093 2.10294e-27)
(1.12659 0.0480038 -3.71906e-26)
(1.1432 -0.0400397 -1.71089e-25)