/*--------------------------------*- C++ -*----------------------------------*\
| =========                 |                                                 |
| \\      /  F ield         | OpenFOAM: The Open Source CFD Toolbox           |
|  \\    /   O peration     | Version:  5.x                                   |
|   \\  /    A nd           | Web:      www.OpenFOAM.org                      |
|    \\/     M anipulation  |                                                 |
\*---------------------------------------------------------------------------*/
FoamFile
{
    version     2.0;
    format      ascii;
    class       volScalarField;
    location    "100";
    object      Y;
}
// * * * * * * * * * * * * * * * * * * * * * * * * * * * * * * * * * * * * * //

dimensions      [0 0 0 0 0 0 0];

internalField   nonuniform List<scalar> 
6584
(
0.00632781
0.00632781
0.00632781
0.00632781
0.00632781
0.00632781
0.00632781
0.00632782
0.00632782
0.00632782
0.00632782
0.00632782
0.00632782
0.00632782
0.00632782
0.00632782
0.00632782
0.00632781
0.00632781
0.00632781
0.00632781
0.00632781
0.00632781
0.00632781
0.00632561
0.00632561
0.00632561
0.00632562
0.00632562
0.00632562
0.00632562
0.00632563
0.00632563
0.00632563
0.00632563
0.00632563
0.00632563
0.00632563
0.00632563
0.00632563
0.00632563
0.00632563
0.00632562
0.00632562
0.00632562
0.00632561
0.00632561
0.00632561
0.00632341
0.00632342
0.00632342
0.00632342
0.00632342
0.00632342
0.00632343
0.00632344
0.00632345
0.00632454
0.00632454
0.00632454
0.00632454
0.00632454
0.00632454
0.00632345
0.00632344
0.00632344
0.00632343
0.00632343
0.00632342
0.00632342
0.00632342
0.00632341
0.00632122
0.00632122
0.00632122
0.00632123
0.00632123
0.00632123
0.00632124
0.00632125
0.00632126
0.00632235
0.00632235
0.00632234
0.00632234
0.00632235
0.00632235
0.00632235
0.00632125
0.00632124
0.00632124
0.00632123
0.00632123
0.00632123
0.00632122
0.00632122
0.00631902
0.00631903
0.00631903
0.00631903
0.00631904
0.00631904
0.00631904
0.00631904
0.00632015
0.00632015
0.00632014
0.00632013
0.00632013
0.00632013
0.00632015
0.00632016
0.00632015
0.00631906
0.00631905
0.00631904
0.00631904
0.00631903
0.00631903
0.00631903
0.00631683
0.00631683
0.00631684
0.00631684
0.00631685
0.00631685
0.00631686
0.00631795
0.00631794
0.00631793
0.00631848
0.00631845
0.00631844
0.00631847
0.00631795
0.00631797
0.00631797
0.00631689
0.00631687
0.00631686
0.00631685
0.00631684
0.00631684
0.00631683
0.00631464
0.00631464
0.00631464
0.00631465
0.00631466
0.00631466
0.00631468
0.00631576
0.00631575
0.00631573
0.00631622
0.00631644
0.00631641
0.0063162
0.0063163
0.0063158
0.0063158
0.00631473
0.00631469
0.00631468
0.00631467
0.00631466
0.00631465
0.00631464
0.00631245
0.00631245
0.00631246
0.00631246
0.00631247
0.00631248
0.00631251
0.00631358
0.00631358
0.00631357
0.00631401
0.00631411
0.00631419
0.00631413
0.00631365
0.00631365
0.00631257
0.00631253
0.0063125
0.00631249
0.00631247
0.00631246
0.00631246
0.00631026
0.00631026
0.00631027
0.00631028
0.00631029
0.00631031
0.00631034
0.00631142
0.00631142
0.00631145
0.00631188
0.00631198
0.00631208
0.00631203
0.00631155
0.00631152
0.00631043
0.00631036
0.00631033
0.00631031
0.00631029
0.00631028
0.00631027
0.00630807
0.00630807
0.00630808
0.0063081
0.00630811
0.00630813
0.00630818
0.00630926
0.00630928
0.00630934
0.00630981
0.00630999
0.00631014
0.00631001
0.00630947
0.0063094
0.00630829
0.0063082
0.00630816
0.00630813
0.00630811
0.00630809
0.00630808
0.00630588
0.00630589
0.0063059
0.00630591
0.00630593
0.00630596
0.00630601
0.0063071
0.00630714
0.00630723
0.00630774
0.00630801
0.00630822
0.006308
0.00630739
0.00630729
0.00630615
0.00630605
0.00630599
0.00630595
0.00630592
0.0063059
0.00630589
0.00630369
0.0063037
0.00630371
0.00630373
0.00630375
0.00630379
0.00630385
0.00630494
0.006305
0.00630511
0.00630566
0.00630596
0.00630624
0.00630596
0.00630531
0.00630518
0.006304
0.00630389
0.00630382
0.00630377
0.00630374
0.00630372
0.0063037
0.0063015
0.00630151
0.00630153
0.00630155
0.00630158
0.00630162
0.00630168
0.00630278
0.00630285
0.00630296
0.00630354
0.00630382
0.00630412
0.00630387
0.00630319
0.00630305
0.00630185
0.00630173
0.00630165
0.00630159
0.00630155
0.00630153
0.00630151
0.00629932
0.00629933
0.00629934
0.00629937
0.0062994
0.00629944
0.00629951
0.00629955
0.00630068
0.00630078
0.00630134
0.00630149
0.00477953
0.00630156
0.00630173
0.00630106
0.0063009
0.00629969
0.00629956
0.00629948
0.00629941
0.00629937
0.00629934
0.00629932
0.00629713
0.00629714
0.00629716
0.00629718
0.00629722
0.00629726
0.00629732
0.00629735
0.00629847
0.00629858
0.00629916
0.00629888
0.00590966
0.00629927
0.00629896
0.00629889
0.0062976
0.00629751
0.00629737
0.00629729
0.00629723
0.00629718
0.00629715
0.00629712
0.00629494
0.00629495
0.00629497
0.006295
0.00629503
0.00629508
0.00629513
0.00629517
0.00629629
0.00629641
0.00629645
0.00629656
0.00593824
0.0062965
0.00629678
0.00629672
0.00629543
0.00629532
0.00629518
0.0062951
0.00629503
0.00629498
0.00629495
0.00629492
0.00629275
0.00629277
0.00629279
0.00629282
0.00629285
0.00629289
0.00629294
0.006293
0.00629307
0.00629424
0.00629427
0.00628699
0.0061194
0.00629422
0.00629459
0.00629454
0.00629325
0.00629314
0.00629299
0.0062929
0.00629283
0.00629278
0.00629275
0.00629272
0.00629056
0.00629058
0.0062906
0.00629063
0.00629067
0.0062907
0.00629076
0.00629083
0.00629091
0.006291
0.0062921
0.00627883
0.00612185
0.00629194
0.00629133
0.00629119
0.00629106
0.00629095
0.0062908
0.00629071
0.00629063
0.00629058
0.00629054
0.00629051
0.00628837
0.00628839
0.00628841
0.00628845
0.00628848
0.00628852
0.00628858
0.00628866
0.00628874
0.00628884
0.00628757
0.00607198
0.00620474
0.00628877
0.00628915
0.00628901
0.00628887
0.00628876
0.00628861
0.00628851
0.00628843
0.00628838
0.00628834
0.0062883
0.00628619
0.00628621
0.00628623
0.00628626
0.0062863
0.00628634
0.0062864
0.00628649
0.00628658
0.00628667
0.00628446
0.00607095
0.00620325
0.0062865
0.00628696
0.00628683
0.00628669
0.00628656
0.00628641
0.00628631
0.00628623
0.00628617
0.00628613
0.00628609
0.006284
0.00628402
0.00628404
0.00628408
0.00628412
0.00628416
0.00628423
0.00628432
0.00628442
0.0062845
0.00628144
0.00606984
0.00620168
0.00628423
0.00628477
0.00628465
0.0062845
0.00628437
0.00628421
0.00628411
0.00628403
0.00628397
0.00628393
0.00628388
0.00628181
0.00628183
0.00628186
0.00628189
0.00628194
0.00628198
0.00628206
0.00628216
0.00628226
0.00628232
0.0062785
0.00606867
0.00620006
0.00628196
0.00628259
0.00628247
0.00628231
0.00628218
0.00628202
0.00628191
0.00628183
0.00628176
0.00628172
0.00628167
0.00627962
0.00627965
0.00627967
0.00627971
0.00627976
0.0062798
0.00627989
0.00628
0.00628011
0.00628015
0.00627564
0.00606744
0.0061984
0.00627969
0.0062804
0.00628029
0.00628013
0.00627998
0.00627982
0.00627971
0.00627962
0.00627955
0.00627951
0.00627946
0.00627744
0.00627746
0.00627749
0.00627753
0.00627758
0.00627763
0.00627771
0.00627783
0.00627795
0.00627797
0.00627285
0.00606616
0.0061967
0.00627741
0.00627821
0.0062781
0.00627794
0.00627779
0.00627762
0.0062775
0.00627742
0.00627735
0.0062773
0.00627725
0.00627525
0.00627528
0.0062753
0.00627535
0.0062754
0.00627545
0.00627554
0.00627567
0.0062758
0.00627579
0.00627013
0.00606483
0.00619498
0.00627513
0.00627601
0.00627592
0.00627576
0.00627559
0.00627542
0.0062753
0.00627521
0.00627514
0.00627509
0.00627504
0.00627307
0.00627309
0.00627312
0.00627317
0.00627322
0.00627328
0.00627338
0.00627351
0.00627365
0.00627361
0.00626738
0.0060635
0.00619326
0.00627285
0.00627382
0.00627374
0.00627357
0.0062734
0.00627323
0.0062731
0.00627301
0.00627293
0.00627288
0.00627283
0.00627088
0.00627091
0.00627094
0.00627099
0.00627104
0.00627111
0.00627121
0.00627136
0.0062715
0.00627143
0.00626463
0.0060622
0.00619156
0.00627057
0.00627163
0.00627157
0.00627139
0.00627121
0.00627103
0.0062709
0.00627081
0.00627073
0.00627068
0.00627063
0.0062687
0.00626872
0.00626876
0.00626881
0.00626887
0.00626893
0.00626904
0.0062692
0.00626935
0.00626925
0.00626193
0.00606084
0.00618984
0.00626828
0.00626943
0.00626939
0.00626921
0.00626902
0.00626884
0.0062687
0.00626861
0.00626852
0.00626847
0.00626842
0.00626651
0.00626654
0.00626658
0.00626663
0.00626669
0.00626676
0.00626687
0.00626705
0.0062672
0.00626706
0.0062593
0.00605944
0.00618811
0.006266
0.00626723
0.00626721
0.00626702
0.00626683
0.00626665
0.00626651
0.0062664
0.00626632
0.00626627
0.00626621
0.00626433
0.00626436
0.00626439
0.00626445
0.00626452
0.00626459
0.00626471
0.00626489
0.00626505
0.00626488
0.00625672
0.00605799
0.00618635
0.00626371
0.00626503
0.00626503
0.00626484
0.00626464
0.00626445
0.00626431
0.0062642
0.00626412
0.00626406
0.00626401
0.00626215
0.00626218
0.00626221
0.00626227
0.00626234
0.00626242
0.00626255
0.00626274
0.0062629
0.00626269
0.00625418
0.0060565
0.00618457
0.00626142
0.00626283
0.00626284
0.00626266
0.00626245
0.00626226
0.00626211
0.006262
0.00626191
0.00626186
0.0062618
0.00625996
0.00625999
0.00626004
0.00626009
0.00626017
0.00626026
0.00626039
0.00626059
0.00626075
0.00626051
0.0062517
0.00605497
0.00618277
0.00625912
0.00626062
0.00626066
0.00626048
0.00626027
0.00626006
0.00625991
0.0062598
0.00625971
0.00625965
0.0062596
0.00625778
0.00625781
0.00625786
0.00625792
0.00625799
0.00625809
0.00625823
0.00625844
0.0062586
0.00625832
0.00624925
0.00605339
0.00618095
0.00625683
0.00625841
0.00625847
0.00625829
0.00625808
0.00625787
0.00625771
0.0062576
0.0062575
0.00625744
0.00625739
0.0062556
0.00625563
0.00625568
0.00625574
0.00625582
0.00625592
0.00625607
0.00625628
0.00625645
0.00625613
0.00624683
0.00605177
0.00617911
0.00625454
0.0062562
0.00625629
0.00625611
0.00625589
0.00625567
0.00625551
0.00625539
0.0062553
0.00625524
0.00625518
0.00625342
0.00625345
0.0062535
0.00625356
0.00625365
0.00625376
0.00625391
0.00625413
0.0062543
0.00625394
0.00624442
0.00605013
0.00617725
0.00625224
0.00625398
0.0062541
0.00625392
0.0062537
0.00625348
0.00625332
0.00625319
0.00625309
0.00625303
0.00625298
0.00625124
0.00625127
0.00625132
0.00625139
0.00625148
0.00625159
0.00625176
0.00625198
0.00625214
0.00625175
0.00624198
0.00604847
0.00617535
0.00624995
0.00625176
0.0062519
0.00625173
0.00625151
0.00625129
0.00625112
0.00625099
0.00625089
0.00625082
0.00625077
0.00631224
0.0063123
0.00631413
0.00631024
0.00631037
0.00631206
0.00630826
0.00630846
0.00631013
0.00630622
0.00630648
0.00630821
0.00630409
0.00630438
0.00630623
0.00630178
0.00457053
0.00472806
0.00630212
0.00630411
0.00631439
0.00631641
0.00631441
0.00631645
0.00631241
0.00631227
0.00631417
0.00631303
0.00631406
0.00631233
0.00631251
0.00631408
0.00631032
0.00631025
0.00631201
0.00631123
0.00630938
0.00631152
0.00630736
0.00631138
0.00631038
0.0063105
0.006312
0.00630826
0.00630826
0.00631
0.00630925
0.00630402
0.00630532
0.00626809
0.00628811
0.00630847
0.00630851
0.00631
0.00630619
0.00630622
0.00630801
0.00630725
0.00630387
0.00630381
0.00629601
0.00627909
0.00630649
0.00630649
0.00630801
0.006303
0.00630333
0.00630439
0.00630443
0.00630598
0.00630223
0.00630288
0.00629945
0.00506325
0.00457783
0.0055787
0.00629967
0.00630181
0.00631177
0.00631297
0.00631302
0.00631292
0.00631086
0.00631408
0.00631306
0.00631154
0.00631296
0.00631306
0.00631294
0.00631186
0.00630566
0.00630893
0.00631098
0.00630464
0.00629437
0.00631024
0.00630528
0.0062893
0.00630716
0.00631108
0.00630902
0.006304
0.00631174
0.00630917
0.00631133
0.00630379
0.00630396
0.006309
0.00629219
0.00629645
0.00629397
0.00629199
0.00627842
0.00626681
0.00630917
0.00630154
0.00630229
0.00630389
0.00630169
0.00630941
0.00629493
0.00629789
0.00629675
0.0062944
0.00630318
0.00629697
0.00630723
0.00630433
0.0063051
0.00630233
0.00630421
0.00630748
0.00629991
0.00630044
0.00629821
0.00629977
0.00630294
0.00630305
0.00630505
0.00630453
0.00630545
0.00630035
0.00629814
0.00630047
0.00630041
0.0063011
0.00630211
0.00631328
0.00631311
0.00631413
0.0063132
0.00631395
0.00630408
0.00630409
0.00630596
0.00630517
0.00630345
0.00630379
0.0062665
0.00624542
0.00630214
0.0063023
0.0063039
0.006314
0.00631323
0.00631412
0.00631308
0.00631332
0.00630382
0.00630388
0.00630699
0.00513227
0.00534392
0.00596137
0.00605653
0.00535629
0.00559395
0.00624133
0.00620303
0.00630519
0.00630443
0.00630366
0.00606797
0.00612604
0.00630354
0.00630262
0.00630327
0.0063153
0.00631519
0.00631423
0.00631422
0.00631519
0.0063153
0.00631308
0.00631346
0.00631319
0.006314
0.00631329
0.0063136
0.0063089
0.00630978
0.00627868
0.00627984
0.00629024
0.00628828
0.00630273
0.00620103
0.00630392
0.00628175
0.00626881
0.00626954
0.00628207
0.00630264
0.00628224
0.00631239
0.00622763
0.00630211
0.00621286
0.00631212
0.00630445
0.00631318
0.00631349
0.00631263
0.00629044
0.00631231
0.0063124
0.00629855
0.00629793
0.00630865
0.00630828
0.0062967
0.00629771
0.00630477
0.00631062
0.006311
0.00631012
0.00631049
0.00630468
0.0063107
0.00631164
0.00631202
0.00631113
0.00631151
0.00631037
0.00629427
0.00629452
0.00629203
0.00629188
0.00625414
0.00625559
0.00630043
0.00630868
0.00630903
0.00630821
0.00630856
0.00630034
0.00630297
0.00630963
0.00630999
0.00630915
0.00630951
0.00630283
0.00515703
0.00629638
0.00541996
0.00519207
0.00567491
0.00543533
0.00629679
0.00629207
0.00521514
0.00629265
0.00630144
0.00630101
0.0063032
0.00630773
0.00630809
0.00630725
0.00630761
0.00630343
0.00581705
0.00594123
0.00629901
0.00586888
0.00569198
0.00601035
0.00588807
0.00629923
0.00561669
0.00579755
0.00630307
0.00624436
0.00626707
0.0062057
0.00623987
0.00630309
0.00619376
0.00611782
0.00613743
0.00493134
0.00613259
0.00610989
0.00524653
0.00628176
0.0062829
0.0063138
0.00630192
0.00630183
0.00630382
0.00630299
0.00630216
0.00630293
0.00548855
0.00629859
0.00630042
0.00631382
0.00630281
0.00630339
0.0063049
0.00503614
0.00508868
0.00430122
0.00610441
0.00609852
0.00514075
0.00523196
0.0062712
0.00628146
0.00406345
0.00631459
0.00631464
0.0063141
0.00631406
0.00631463
0.00631459
0.00631042
0.00631151
0.00631112
0.00630763
0.00630705
0.00631069
0.00630437
0.00630943
0.00630906
0.00630994
0.00630956
0.00630455
0.00627273
0.00628469
0.00629358
0.00628072
0.00611595
0.00607607
0.00630255
0.00628335
0.00629111
0.00629421
0.00629344
0.00501607
0.00631363
0.00631339
0.00631405
0.00631187
0.00630929
0.0063077
0.00631253
0.00631267
0.00631308
0.00631215
0.00631254
0.00631238
0.0063069
0.00631046
0.00631007
0.00631099
0.00631059
0.00630736
0.0063018
0.00619891
0.00625552
0.00616679
0.00617419
0.00629574
0.00626101
0.00626638
0.0063067
0.00629252
0.00630098
0.00630663
0.00631048
0.00631063
0.00630947
0.0063097
0.00630432
0.00630894
0.00630857
0.00630383
0.00629323
0.00614976
0.00611758
0.00629294
0.00615575
0.00616493
0.00611183
0.00611672
0.00629166
0.00626901
0.00626066
0.006301
0.00630821
0.00630837
0.00630738
0.0063078
0.00630156
0.00630352
0.00630917
0.00630939
0.00630842
0.00630859
0.00630219
0.00630258
0.00626023
0.0062699
0.00624509
0.0062393
0.00629898
0.00630525
0.00630676
0.00630713
0.00630625
0.00630663
0.00630522
0.00630022
0.0061008
0.00602371
0.00618031
0.00615812
0.0063003
0.00550277
0.00554547
0.00630052
0.0062045
0.00618711
0.00544773
0.00548996
0.00616213
0.0061261
0.00631354
0.0063138
0.00631365
0.00608172
0.0062588
0.00610679
0.00612548
0.00611789
0.00625606
0.00631372
0.00631355
0.00631389
0.00631326
0.00631362
0.00515845
0.00522748
0.00506766
0.00504299
0.00600701
0.00524891
0.00520741
0.0053483
0.00526142
0.00601928
0.00542026
0.00546629
0.00622707
0.00622067
0.00609699
0.00548103
0.00539376
0.00524197
0.00529092
0.00631272
0.00631314
0.00631341
0.00631273
0.00631305
0.00631253
0.00630775
0.00631053
0.00627396
0.0062835
0.00629299
0.00628177
0.00620603
0.00627569
0.00626893
0.00628278
0.0062778
0.00620521
0.00625353
0.00624702
0.0062668
0.00625711
0.00627732
0.00617806
0.00619862
0.00614024
0.00616793
0.00627542
0.00605434
0.00607199
0.0062629
0.00630975
0.00630695
0.00631238
0.00631058
0.00627249
0.00629112
0.00628661
0.00630486
0.00629329
0.00631144
0.00631314
0.00631265
0.00631042
0.00630834
0.00631135
0.00630969
0.00631198
0.00631017
0.00631203
0.00631261
0.00631057
0.00631181
0.00631266
0.00631221
0.00631151
0.00618322
0.00619105
0.0063008
0.00609955
0.00605089
0.00620505
0.0061064
0.00598203
0.00593455
0.00603622
0.006005
0.00629627
0.0061769
0.00618148
0.00624095
0.00623004
0.00628443
0.00625314
0.00622343
0.00621606
0.00622909
0.00622506
0.00630711
0.00626757
0.00627108
0.00629362
0.00630041
0.00631011
0.00631039
0.00630564
0.00630441
0.00630978
0.00631003
0.00615976
0.00615544
0.00629354
0.00584851
0.00585638
0.00564545
0.00582215
0.00585161
0.00591318
0.00585379
0.00584958
0.00614176
0.00615274
0.00629266
0.00585668
0.0058025
0.00592544
0.00587202
0.00569145
0.00563728
0.00578
0.00572142
0.00629173
0.00612321
0.00613702
0.00626247
0.00625927
0.00630801
0.00630816
0.00630084
0.00630104
0.00630784
0.00630796
0.0063089
0.0063091
0.00630339
0.00630234
0.00630865
0.00630884
0.00520917
0.00529557
0.00616331
0.00618685
0.00613053
0.00615459
0.00522068
0.00558096
0.00621674
0.00617286
0.00619311
0.00621119
0.00553128
0.00601103
0.00602938
0.00594779
0.00600412
0.00529333
0.00609644
0.00612356
0.00603847
0.00608221
0.0052978
0.00625157
0.00625781
0.00630235
0.00622814
0.00623748
0.00624402
0.00622869
0.00623796
0.00629947
0.00623676
0.00624648
0.00586709
0.00499887
0.00502475
0.00517569
0.0050135
0.00588504
0.00507031
0.00568298
0.00503239
0.00571319
0.00622337
0.00628831
0.00628429
0.00629298
0.00628965
0.00622643
0.00617769
0.00618255
0.00556512
0.00560954
0.00532631
0.0054289
0.00618632
0.00617035
0.00631447
0.00631462
0.00631626
0.00630299
0.00630243
0.0063015
0.00631427
0.0063143
0.00631396
0.00631389
0.00631428
0.00631426
0.00631528
0.00631523
0.00631428
0.00631203
0.00631164
0.00631072
0.00630745
0.00630144
0.00630057
0.00626945
0.00628695
0.00630796
0.00630759
0.00630383
0.00625679
0.00625423
0.00627957
0.00627207
0.0062771
0.00630366
0.00631238
0.00631256
0.00631216
0.00630048
0.00630375
0.00631134
0.00631276
0.00631237
0.00631274
0.00630992
0.00628703
0.00629909
0.00629037
0.00629966
0.0062987
0.00630658
0.00630718
0.00630726
0.00630411
0.00631081
0.00631097
0.0063095
0.00630381
0.00630845
0.00630808
0.00617746
0.00616413
0.00629553
0.0062772
0.00626078
0.00625918
0.00626553
0.00630138
0.00630595
0.00630601
0.00630377
0.00630701
0.00630709
0.00630606
0.00630611
0.00630185
0.00629095
0.00619807
0.00618417
0.00630241
0.0063072
0.00630729
0.00630486
0.00630573
0.00630611
0.00501878
0.00501736
0.00622241
0.00620959
0.0063005
0.00502324
0.00502081
0.0062918
0.00629326
0.00630173
0.00631329
0.00631323
0.00511657
0.00508601
0.00511403
0.00532625
0.0053693
0.00503242
0.00505779
0.00525894
0.00522305
0.00556236
0.00617282
0.00616672
0.00620899
0.00555181
0.0054967
0.0061049
0.0063147
0.00631466
0.0063141
0.00631282
0.00631299
0.00631315
0.00631327
0.00631212
0.00631232
0.00631349
0.00631375
0.0063136
0.00630569
0.00630524
0.00630828
0.00631018
0.00630882
0.00630803
0.00627656
0.00628101
0.00626606
0.00626853
0.00629152
0.00628584
0.00625556
0.0062611
0.00621257
0.00621237
0.00623831
0.00623494
0.0062002
0.0062142
0.00621612
0.00630374
0.00627907
0.00628444
0.00627472
0.00624426
0.00628752
0.00628253
0.00630864
0.00630643
0.00629716
0.00618047
0.00616921
0.00627007
0.00623599
0.00618741
0.0063134
0.00631324
0.00631223
0.006312
0.00630965
0.00631088
0.00629689
0.00631123
0.00631185
0.00627235
0.00628086
0.00630965
0.00615402
0.00614221
0.0062957
0.00629869
0.00631147
0.00631162
0.0063112
0.00630963
0.00631113
0.0063113
0.00629527
0.00616256
0.00616026
0.00625415
0.00625679
0.00630656
0.00630663
0.00630311
0.00630266
0.00630642
0.00630649
0.00518363
0.00540076
0.00574786
0.00576782
0.00553731
0.0055551
0.00517262
0.00620826
0.00620074
0.00629151
0.00528828
0.00526157
0.00545422
0.0054547
0.0052422
0.00551396
0.00552544
0.00524827
0.00526331
0.00630703
0.00630711
0.00630251
0.0063038
0.00630685
0.00630694
0.00578441
0.0061977
0.00620536
0.00618131
0.00618954
0.00575431
0.00625486
0.00629105
0.00629385
0.00629322
0.0062922
0.00625836
0.00621289
0.00624712
0.0062426
0.00618375
0.00617454
0.00619145
0.00508957
0.00512655
0.00513577
0.00502607
0.00614994
0.00565676
0.0055788
0.00572151
0.00567548
0.00610129
0.00602659
0.00603407
0.00620409
0.00622087
0.00628566
0.00631374
0.00631382
0.00631361
0.00503477
0.00504987
0.00553655
0.00551473
0.0042746
0.0051913
0.00508839
0.00509152
0.00505444
0.00507354
0.00521766
0.00407429
0.00615724
0.00618503
0.00631435
0.00631431
0.00631394
0.0063031
0.00630228
0.00630753
0.00630549
0.00630796
0.00630969
0.00630707
0.00630759
0.00627135
0.00628581
0.00624201
0.00624491
0.00624701
0.00624292
0.00628006
0.0062524
0.00625083
0.00610704
0.00604072
0.00603918
0.00605141
0.00604892
0.00609568
0.00630881
0.00631061
0.00631074
0.00631026
0.00631049
0.00630828
0.00629144
0.00630503
0.00629763
0.00629501
0.00630422
0.00630734
0.00630743
0.0062611
0.00626181
0.00627462
0.0062625
0.00630585
0.0063059
0.00630117
0.00630686
0.00630693
0.00630365
0.00630203
0.00630617
0.00630623
0.00624485
0.00625808
0.00625282
0.00626255
0.00626085
0.00624321
0.00501769
0.00502393
0.00503207
0.00502645
0.00546294
0.00520676
0.00519412
0.00605222
0.00605232
0.00615125
0.00607282
0.00608915
0.00604333
0.00605568
0.0061385
0.00631347
0.00631339
0.00631344
0.00631343
0.00631373
0.00631376
0.00631386
0.00631356
0.00631364
0.00631362
0.0061028
0.00618901
0.00618361
0.00620348
0.00619602
0.00610924
0.00613972
0.00616346
0.00615273
0.0061791
0.00617335
0.00613026
0.00631365
0.00631372
0.00631361
0.00631241
0.00631151
0.00631341
0.00631317
0.00511788
0.00529299
0.00513672
0.00514173
0.00506014
0.00505147
0.00548337
0.00550508
0.00522538
0.00502965
0.00501703
0.00538843
0.00507898
0.00506034
0.00508021
0.00551784
0.00515378
0.00508008
0.00617944
0.00618912
0.0062327
0.00615242
0.0061547
0.00614692
0.00614782
0.00621443
0.00616462
0.00616926
0.00525218
0.00501659
0.00503468
0.00500933
0.0050051
0.00526682
0.00631294
0.00631304
0.00631287
0.00631209
0.00631247
0.00631282
0.00630227
0.00630793
0.00630462
0.00630389
0.00630577
0.00630645
0.00630424
0.00630506
0.00627524
0.00628224
0.00625065
0.00625199
0.00624677
0.00624875
0.00629235
0.00626985
0.00627078
0.00625006
0.00625145
0.00628349
0.00625156
0.00622233
0.00621578
0.00620243
0.00623207
0.00622844
0.00625087
0.00621711
0.0062172
0.00622641
0.00622084
0.00624894
0.00626427
0.00623502
0.0062387
0.00622182
0.0062287
0.00626095
0.00621613
0.00614954
0.00621533
0.00621007
0.00604943
0.00605762
0.00625751
0.00629193
0.00628974
0.0062535
0.00628069
0.00630062
0.00629541
0.0062004
0.00618896
0.00625742
0.00625963
0.00628815
0.00622875
0.00621422
0.00630345
0.00630644
0.00631126
0.00630823
0.00629978
0.00628804
0.00629905
0.00631103
0.00631166
0.00631186
0.00631094
0.00631125
0.00630998
0.00630852
0.0063097
0.0063122
0.00631166
0.00631139
0.00631236
0.00631185
0.00631239
0.00631089
0.00631105
0.00631022
0.00631112
0.00608909
0.00606843
0.00617714
0.00604911
0.0060654
0.00602028
0.00611315
0.00596288
0.00594706
0.00602445
0.00601566
0.00623444
0.00616682
0.0061781
0.00614995
0.00615709
0.00623152
0.00628044
0.00624572
0.00625367
0.00618339
0.00622639
0.00627123
0.00613323
0.00612062
0.0062218
0.00609494
0.00610277
0.00608382
0.00608945
0.00621983
0.00622824
0.00614009
0.00614508
0.00611281
0.00612524
0.00622671
0.0062947
0.00629962
0.00585807
0.00563114
0.00566661
0.00555777
0.00559206
0.00585867
0.00568988
0.00568356
0.00568499
0.00576
0.00586139
0.00538608
0.00541306
0.00544966
0.00539516
0.00588177
0.00585181
0.00550118
0.00552758
0.00544958
0.00547825
0.00585058
0.00584522
0.00582982
0.00591505
0.00589133
0.0056661
0.0056451
0.0057619
0.00574772
0.00625681
0.00625799
0.00630325
0.00630671
0.00630678
0.00630629
0.00630636
0.0063025
0.0052054
0.00567805
0.00571937
0.00536556
0.00517529
0.00558521
0.00562927
0.00535321
0.00531905
0.00601675
0.00565654
0.005654
0.00597604
0.00560186
0.00552928
0.00564886
0.0056349
0.00599377
0.00543303
0.00539125
0.00546167
0.00549659
0.00527021
0.00531048
0.00538923
0.00625432
0.00627765
0.00627565
0.00628059
0.00627917
0.00625607
0.00623102
0.00623553
0.00623854
0.00622911
0.00622854
0.00623258
0.00623737
0.0062665
0.0062642
0.00627287
0.00626958
0.00624096
0.00500388
0.0052662
0.00528572
0.00523817
0.00525202
0.00501434
0.00511674
0.00540954
0.00545257
0.00531656
0.00536046
0.00505635
0.00505854
0.00500402
0.00501469
0.00503641
0.00501668
0.00505027
0.0051865
0.00521938
0.00505839
0.00512385
0.00505303
0.00625405
0.00625104
0.00621949
0.00617749
0.00618819
0.00504564
0.0050853
0.00536662
0.00509507
0.00504077
0.00517717
0.0051483
0.00540266
0.00503934
0.00503784
0.00603932
0.0060418
0.00631903
0.00631903
0.00632014
0.00631901
0.006319
0.00632013
0.00631901
0.00631901
0.00632013
0.00631902
0.00631904
0.00632014
0.00631682
0.00631681
0.00631792
0.00631678
0.00631676
0.00631847
0.00631673
0.0063167
0.00631844
0.00631671
0.00631674
0.00631844
0.00631677
0.00631681
0.00631848
0.00631685
0.00631687
0.00631795
0.00631465
0.0063146
0.00631625
0.00631456
0.00631445
0.00631618
0.00631556
0.00631553
0.00631644
0.00631547
0.0063155
0.0063164
0.00631562
0.00631566
0.00631621
0.00631466
0.00631472
0.00631579
0.00631251
0.00631245
0.00631406
0.00631347
0.00631346
0.006314
0.00631383
0.00631381
0.00631409
0.00631337
0.00631349
0.00631429
0.00631255
0.00631262
0.00631367
0.00631039
0.00631035
0.00631192
0.00631136
0.00631136
0.00631188
0.00631173
0.00631173
0.00631198
0.00631134
0.00631144
0.00631219
0.00631051
0.00631056
0.00631159
0.00630829
0.00630827
0.00630983
0.00630929
0.00630931
0.00630982
0.00630974
0.00630974
0.00630998
0.00630942
0.00630947
0.00631021
0.0063085
0.00630851
0.00630953
0.00630617
0.00630619
0.00630775
0.00630723
0.00630726
0.00630778
0.00630776
0.00630775
0.00630801
0.00630749
0.0063075
0.00630825
0.00630648
0.00630645
0.00630748
0.00630404
0.00630407
0.00630566
0.0063057
0.00630569
0.00630595
0.00630546
0.00630545
0.00630622
0.0063044
0.00630436
0.00630541
0.00630188
0.00630192
0.00630354
0.00630329
0.00630335
0.00630389
0.00630227
0.00630223
0.0063033
0.00629967
0.00629967
0.00630076
0.0062997
0.00629958
0.00630126
0.00630063
0.00629954
0.00630043
0.00494247
0.00625042
0.00625689
0.00629985
0.00630012
0.00630176
0.00630006
0.00630009
0.00630116
0.00629749
0.0062975
0.00629859
0.00629753
0.00629734
0.00629902
0.00629714
0.00550902
0.00548912
0.00593247
0.00629729
0.00629908
0.00629753
0.00629791
0.00629955
0.00629787
0.0062979
0.00629899
0.00629536
0.00629521
0.00629633
0.00629086
0.00586652
0.0055148
0.0061177
0.00629457
0.00629668
0.00629536
0.0062957
0.0062968
0.00631224
0.00631249
0.00631249
0.00631255
0.00631264
0.00631223
0.00631411
0.00631384
0.00631386
0.00631023
0.00631048
0.00631048
0.0063106
0.00631058
0.00631021
0.0063121
0.00631171
0.00631181
0.00630826
0.0063085
0.00630851
0.0063087
0.00630866
0.0063083
0.00631009
0.00630973
0.00630989
0.00630622
0.00630648
0.00630648
0.00630673
0.0063067
0.00630636
0.00630818
0.00630782
0.00630797
0.00630465
0.00630455
0.00630428
0.00630611
0.00630585
0.00630597
0.00630072
0.00630189
0.0063027
0.00427155
0.00538343
0.00538285
0.00584801
0.00584986
0.00408113
0.00630401
0.00630373
0.00630383
0.00631429
0.00631523
0.00631526
0.006314
0.00631399
0.0063139
0.00631641
0.0063155
0.00631546
0.00631397
0.00631399
0.0063147
0.00631468
0.00631439
0.00631644
0.00631554
0.00631557
0.0063124
0.00631293
0.00631294
0.00631306
0.00631291
0.00631239
0.00631397
0.00631344
0.00631333
0.00631318
0.00631313
0.00631286
0.00631403
0.00631387
0.00631391
0.00631245
0.00631322
0.0063131
0.00631303
0.00631303
0.00631252
0.00631407
0.00631354
0.00631355
0.00631033
0.00631085
0.00631084
0.006311
0.00631085
0.00631035
0.00631187
0.00631136
0.00631125
0.00631123
0.00631148
0.00631148
0.00630976
0.00631079
0.00631059
0.00631187
0.0063117
0.00631127
0.00631082
0.00631019
0.00631114
0.00631045
0.00631119
0.0063111
0.00631099
0.00631102
0.00631053
0.00631202
0.00631152
0.0063115
0.00630829
0.0063088
0.00630878
0.00630901
0.00630883
0.00630832
0.00630984
0.00630933
0.00630926
0.00630925
0.00630949
0.0063095
0.00630411
0.00630778
0.00630767
0.00630865
0.00630847
0.00630502
0.0063085
0.00630923
0.00630918
0.006309
0.00630905
0.00630856
0.00631004
0.00630955
0.0063095
0.00630622
0.00630674
0.00630671
0.006307
0.00630678
0.00630627
0.00630781
0.0063073
0.00630725
0.00630725
0.0063075
0.0063075
0.00630384
0.00630746
0.00630709
0.00630677
0.00630668
0.00630381
0.00629506
0.00627486
0.00627756
0.00630649
0.00630725
0.00630724
0.006307
0.00630707
0.00630656
0.00630807
0.00630757
0.00630751
0.00630293
0.00629089
0.00629373
0.0062985
0.006299
0.00630346
0.00630442
0.00630494
0.0063052
0.00630495
0.00630501
0.00630449
0.00630605
0.00630553
0.00630547
0.00630234
0.00630112
0.0063011
0.00630078
0.0063009
0.00630281
0.00629875
0.00629925
0.00630003
0.00502828
0.00629312
0.00629151
0.00609992
0.00609969
0.00460717
0.00629756
0.00629833
0.00551437
0.00630026
0.0062999
0.00629918
0.00630119
0.0063002
0.00630091
0.006312
0.00631218
0.00631203
0.00631309
0.00631269
0.00631254
0.00631275
0.00631275
0.00631301
0.00631276
0.00631209
0.00631284
0.00631393
0.0063139
0.00631406
0.00631298
0.00631316
0.0063132
0.00631166
0.00631126
0.0063111
0.00631295
0.00631286
0.00631289
0.00631304
0.00631278
0.0063128
0.00631281
0.00631285
0.00631299
0.00631204
0.00631217
0.00631207
0.00630605
0.00630904
0.00630884
0.00631038
0.00631015
0.00630839
0.00631073
0.00631073
0.00631098
0.00630384
0.00629512
0.00629717
0.00627605
0.00627669
0.00629479
0.00629858
0.0062996
0.0063058
0.00631108
0.0063107
0.00631084
0.00630874
0.00630981
0.00630999
0.00631132
0.00631176
0.0063119
0.00631012
0.00631023
0.00630929
0.00631157
0.00631158
0.0063112
0.00630379
0.00630696
0.00630687
0.00630756
0.00630745
0.00630391
0.00630875
0.00630875
0.006309
0.00629255
0.00627343
0.00627262
0.006282
0.00628121
0.00629612
0.0062936
0.00627491
0.00627546
0.00627204
0.00627168
0.00629177
0.00630913
0.00630878
0.00630894
0.00630597
0.00630595
0.00630219
0.00630965
0.00630961
0.00630925
0.00629544
0.00624757
0.00623933
0.00627736
0.0062758
0.00629755
0.00629705
0.00628359
0.0062828
0.00623668