/*--------------------------------*- C++ -*----------------------------------*\
| =========                 |                                                 |
| \\      /  F ield         | OpenFOAM: The Open Source CFD Toolbox           |
|  \\    /   O peration     | Version:  5.x                                   |
|   \\  /    A nd           | Web:      www.OpenFOAM.org                      |
|    \\/     M anipulation  |                                                 |
\*---------------------------------------------------------------------------*/
FoamFile
{
    version     2.0;
    format      ascii;
    class       volScalarField;
    location    "100";
    object      YSat;
}
// * * * * * * * * * * * * * * * * * * * * * * * * * * * * * * * * * * * * * //

dimensions      [0 0 0 0 0 0 0];

internalField   nonuniform List<scalar> 
6584
(
0.00431405
0.00431405
0.00431405
0.00431405
0.00431405
0.00431405
0.00431405
0.00431405
0.00431405
0.00431405
0.00431405
0.00431405
0.00431405
0.00431405
0.00431405
0.00431405
0.00431405
0.00431405
0.00431405
0.00431405
0.00431405
0.00431405
0.00431405
0.00431405
0.00431405
0.00431405
0.00431405
0.00431405
0.00431405
0.00431405
0.00431405
0.00431405
0.00431405
0.00431405
0.00431405
0.00431405
0.00431405
0.00431405
0.00431405
0.00431405
0.00431405
0.00431405
0.00431405
0.00431405
0.00431405
0.00431405
0.00431405
0.00431405
0.00431405
0.00431405
0.00431405
0.00431405
0.00431405
0.00431405
0.00431405
0.00431405
0.00431405
0.00431405
0.00431405
0.00431405
0.00431405
0.00431405
0.00431405
0.00431405
0.00431405
0.00431405
0.00431405
0.00431405
0.00431405
0.00431405
0.00431405
0.00431405
0.00431405
0.00431405
0.00431405
0.00431405
0.00431405
0.00431405
0.00431405
0.00431405
0.00431405
0.00431405
0.00431405
0.00431405
0.00431405
0.00431405
0.00431405
0.00431405
0.00431405
0.00431405
0.00431405
0.00431405
0.00431405
0.00431405
0.00431405
0.00431405
0.00431405
0.00431405
0.00431405
0.00431405
0.00431405
0.00431405
0.00431405
0.00431405
0.00431405
0.00431405
0.00431405
0.00431405
0.00431405
0.00431405
0.00431405
0.00431405
0.00431405
0.00431405
0.00431405
0.00431405
0.00431405
0.00431405
0.00431405
0.00431405
0.00431405
0.00431405
0.00431405
0.00431405
0.00431405
0.00431405
0.00431405
0.00431405
0.00431405
0.00431405
0.00431405
0.00431405
0.00431405
0.00431405
0.00431405
0.00431405
0.00431405
0.00431405
0.00431405
0.00431405
0.00431405
0.00431405
0.00431405
0.00431405
0.00431405
0.00431405
0.00431405
0.00431405
0.00431405
0.00431405
0.00431405
0.00431405
0.00431405
0.00431405
0.00431405
0.00431405
0.00431405
0.00431405
0.00431405
0.00431405
0.00431405
0.00431405
0.00431405
0.00431405
0.00431405
0.00431405
0.00431405
0.00431405
0.00431405
0.00431405
0.00431405
0.00431405
0.00431405
0.00431405
0.00431405
0.00431405
0.00431405
0.00431405
0.00431405
0.00431405
0.00431405
0.00431405
0.00431405
0.00431405
0.00431405
0.00431405
0.00431405
0.00431405
0.00431405
0.00431405
0.00431405
0.00431405
0.00431405
0.00431405
0.00431405
0.00431405
0.00431405
0.00431405
0.00431405
0.00431405
0.00431405
0.00431405
0.00431405
0.00431405
0.00431405
0.00431405
0.00431405
0.00431405
0.00431405
0.00431405
0.00431405
0.00431405
0.00431405
0.00431405
0.00431405
0.00431405
0.00431405
0.00431405
0.00431405
0.00431405
0.00431405
0.00431405
0.00431405
0.00431405
0.00431405
0.00431405
0.00431405
0.00431405
0.00431405
0.00431405
0.00431405
0.00431405
0.00431405
0.00431405
0.00431405
0.00431405
0.00431405
0.00431405
0.00431405
0.00431405
0.00431405
0.00431405
0.00431405
0.00431405
0.00431405
0.00431405
0.00431405
0.00431405
0.00431405
0.00431405
0.00431405
0.00431405
0.00431405
0.00431405
0.00431405
0.00431405
0.00431405
0.00431405
0.00431405
0.00431405
0.00431405
0.00431405
0.00431405
0.00431405
0.00431405
0.00431405
0.00431405
0.00431405
0.00431405
0.00431405
0.00431405
0.00431405
0.00431405
0.00431405
0.00431405
0.00431405
0.00431405
0.00431405
0.00431405
0.00431405
0.00431405
0.00431405
0.00431405
0.00431405
0.00431405
0.00431405
0.00431405
0.00431405
0.00431405
0.00431405
0.00431405
0.00431405
0.00431405
0.00431405
0.00431405
0.00431405
0.00431405
0.00431405
0.00431405
0.00431405
0.00431405
0.00431405
0.00431405
0.00431405
0.00431405
0.00431405
0.00431405
0.00431405
0.00431405
0.00431405
0.00431405
0.00431405
0.00431405
0.00431405
0.00431405
0.00431405
0.00431405
0.00431405
0.00354977
0.00431405
0.00431405
0.00431405
0.00431405
0.00431405
0.00431405
0.00431405
0.00431405
0.00431405
0.00431405
0.00431405
0.00431405
0.00431405
0.00431405
0.00431405
0.00431405
0.00431405
0.00431405
0.00431405
0.00431405
0.00431405
0.00431405
0.00431405
0.00413194
0.00431405
0.00431405
0.00431405
0.00431405
0.00431405
0.00431405
0.00431405
0.00431405
0.00431405
0.00431405
0.00431405
0.00431405
0.00431405
0.00431405
0.00431405
0.00431405
0.00431405
0.00431405
0.00431405
0.00431405
0.00431405
0.00431405
0.00431405
0.00414943
0.00431405
0.00431405
0.00431405
0.00431405
0.00431405
0.00431405
0.00431405
0.00431405
0.00431405
0.00431405
0.00431405
0.00431405
0.00431405
0.00431405
0.00431405
0.00431405
0.00431405
0.00431405
0.00431405
0.00431405
0.00431405
0.00431405
0.00431284
0.0042354
0.00431405
0.00431405
0.00431405
0.00431405
0.00431405
0.00431405
0.00431405
0.00431405
0.00431405
0.00431405
0.00431405
0.00431405
0.00431405
0.00431405
0.00431405
0.00431405
0.00431405
0.00431405
0.00431405
0.00431405
0.00431405
0.00431405
0.00431163
0.00423834
0.00431405
0.00431405
0.00431405
0.00431405
0.00431405
0.00431405
0.00431405
0.00431405
0.00431405
0.00431405
0.00431405
0.00431405
0.00431405
0.00431405
0.00431405
0.00431405
0.00431405
0.00431405
0.00431405
0.00431405
0.00431405
0.00431382
0.00427048
0.00427723
0.00431404
0.00431405
0.00431405
0.00431405
0.00431405
0.00431405
0.00431405
0.00431405
0.00431405
0.00431405
0.00431405
0.00431405
0.00431405
0.00431405
0.00431405
0.00431405
0.00431405
0.00431405
0.00431405
0.00431405
0.00431405
0.00431364
0.00427071
0.00427779
0.00431404
0.00431405
0.00431405
0.00431405
0.00431405
0.00431405
0.00431405
0.00431405
0.00431405
0.00431405
0.00431405
0.00431405
0.00431405
0.00431405
0.00431405
0.00431405
0.00431405
0.00431405
0.00431405
0.00431405
0.00431404
0.00431348
0.00427093
0.00427831
0.00431403
0.00431405
0.00431405
0.00431405
0.00431405
0.00431405
0.00431405
0.00431405
0.00431405
0.00431405
0.00431405
0.00431405
0.00431405
0.00431405
0.00431405
0.00431405
0.00431405
0.00431405
0.00431405
0.00431405
0.00431404
0.00431334
0.00427116
0.0042788
0.00431403
0.00431405
0.00431405
0.00431405
0.00431405
0.00431405
0.00431405
0.00431405
0.00431405
0.00431405
0.00431405
0.00431405
0.00431405
0.00431405
0.00431405
0.00431405
0.00431405
0.00431405
0.00431405
0.00431405
0.00431404
0.00431322
0.00427139
0.00427927
0.00431403
0.00431405
0.00431405
0.00431405
0.00431405
0.00431405
0.00431405
0.00431405
0.00431405
0.00431405
0.00431405
0.00431405
0.00431405
0.00431405
0.00431405
0.00431405
0.00431405
0.00431405
0.00431405
0.00431405
0.00431403
0.00431311
0.00427161
0.00427973
0.00431402
0.00431405
0.00431405
0.00431405
0.00431405
0.00431405
0.00431405
0.00431405
0.00431405
0.00431405
0.00431405
0.00431405
0.00431405
0.00431405
0.00431405
0.00431405
0.00431405
0.00431405
0.00431405
0.00431405
0.00431403
0.00431302
0.00427183
0.00428017
0.00431402
0.00431405
0.00431405
0.00431405
0.00431405
0.00431405
0.00431405
0.00431405
0.00431405
0.00431405
0.00431405
0.00431405
0.00431405
0.00431405
0.00431405
0.00431405
0.00431405
0.00431405
0.00431405
0.00431405
0.00431403
0.00431294
0.00427206
0.00428061
0.00431401
0.00431405
0.00431405
0.00431405
0.00431405
0.00431405
0.00431405
0.00431405
0.00431405
0.00431405
0.00431405
0.00431405
0.00431405
0.00431405
0.00431405
0.00431405
0.00431405
0.00431405
0.00431405
0.00431405
0.00431403
0.00431285
0.00427229
0.00428105
0.00431401
0.00431405
0.00431405
0.00431405
0.00431405
0.00431405
0.00431405
0.00431405
0.00431405
0.00431405
0.00431405
0.00431405
0.00431405
0.00431405
0.00431405
0.00431405
0.00431405
0.00431405
0.00431405
0.00431405
0.00431402
0.00431278
0.00427253
0.00428148
0.00431401
0.00431405
0.00431405
0.00431405
0.00431405
0.00431405
0.00431405
0.00431405
0.00431405
0.00431405
0.00431405
0.00431405
0.00431405
0.00431405
0.00431405
0.00431405
0.00431405
0.00431405
0.00431405
0.00431405
0.00431402
0.00431273
0.00427276
0.00428188
0.004314
0.00431405
0.00431405
0.00431405
0.00431405
0.00431405
0.00431405
0.00431405
0.00431405
0.00431405
0.00431405
0.00431405
0.00431405
0.00431405
0.00431405
0.00431405
0.00431405
0.00431405
0.00431405
0.00431405
0.00431402
0.00431269
0.00427299
0.00428227
0.004314
0.00431405
0.00431405
0.00431405
0.00431405
0.00431405
0.00431405
0.00431405
0.00431405
0.00431405
0.00431405
0.00431405
0.00431405
0.00431405
0.00431405
0.00431405
0.00431405
0.00431405
0.00431405
0.00431405
0.00431402
0.00431267
0.00427323
0.00428265
0.00431399
0.00431405
0.00431405
0.00431405
0.00431405
0.00431405
0.00431405
0.00431405
0.00431405
0.00431405
0.00431405
0.00431405
0.00431405
0.00431405
0.00431405
0.00431405
0.00431405
0.00431405
0.00431405
0.00431405
0.00431402
0.00431266
0.00427347
0.004283
0.00431399
0.00431405
0.00431405
0.00431405
0.00431405
0.00431405
0.00431405
0.00431405
0.00431405
0.00431405
0.00431405
0.00431405
0.00431405
0.00431405
0.00431405
0.00431405
0.00431405
0.00431405
0.00431405
0.00431405
0.00431402
0.00431266
0.00427371
0.00428334
0.00431399
0.00431405
0.00431405
0.00431405
0.00431405
0.00431405
0.00431405
0.00431405
0.00431405
0.00431405
0.00431405
0.00431405
0.00431405
0.00431405
0.00431405
0.00431405
0.00431405
0.00431405
0.00431405
0.00431405
0.00431402
0.00431267
0.00427396
0.00428365
0.00431398
0.00431405
0.00431405
0.00431405
0.00431405
0.00431405
0.00431405
0.00431405
0.00431405
0.00431405
0.00431405
0.00431405
0.00431405
0.00431405
0.00431405
0.00431405
0.00431405
0.00431405
0.00431405
0.00431405
0.00431402
0.00431269
0.00427421
0.00428395
0.00431398
0.00431405
0.00431405
0.00431405
0.00431405
0.00431405
0.00431405
0.00431405
0.00431405
0.00431405
0.00431405
0.00431405
0.00431405
0.00431405
0.00431405
0.00431405
0.00431405
0.00431405
0.00431405
0.00431405
0.00431402
0.00431271
0.00427447
0.00428422
0.00431398
0.00431405
0.00431405
0.00431405
0.00431405
0.00431405
0.00431405
0.00431405
0.00431405
0.00431405
0.00431405
0.00431405
0.00431405
0.00431405
0.00431405
0.00431405
0.00431405
0.00431405
0.00431405
0.00431405
0.00431405
0.00431405
0.00431405
0.00431405
0.00431405
0.00431405
0.00431405
0.00381754
0.00352178
0.00431405
0.00431405
0.00431405
0.00431405
0.00431405
0.00431405
0.00431405
0.00431405
0.00431405
0.00431404
0.00431405
0.00431405
0.00431405
0.00431405
0.00431405
0.00431405
0.00431405
0.00431405
0.00431315
0.00431374
0.00431134
0.00431367
0.00431405
0.00431405
0.00431405
0.00431405
0.00431405
0.00431405
0.00431405
0.00431286
0.00431258
0.00428555
0.00429801
0.00431405
0.00431405
0.00431405
0.00431405
0.00431405
0.00431405
0.00431405
0.0043137
0.00431339
0.00431053
0.00429834
0.00431405
0.00431405
0.00431405
0.00431389
0.00431371
0.00431405
0.00431405
0.00431405
0.00431404
0.00431401
0.00431405
0.00401585
0.00381422
0.00396832
0.00431405
0.00431405
0.00431383
0.00431404
0.00431405
0.00431403
0.00431316
0.00431405
0.00431404
0.00431374
0.00431404
0.00431405
0.00431405
0.00431394
0.00431258
0.00431304
0.00431405
0.00431124
0.00430962
0.00431284
0.00431139
0.00429881
0.00431124
0.00431405
0.00431263
0.00430969
0.0043139
0.00431269
0.00431405
0.00431334
0.00431292
0.00431405
0.00431127
0.00431291
0.00430965
0.00431113
0.00429756
0.0042849
0.00431405
0.00430927
0.00431144
0.00430967
0.00430927
0.00431405
0.00431323
0.00431367
0.00431298
0.00431314
0.00431366
0.00431101
0.00431405
0.0043135
0.00431392
0.00431157
0.00431343
0.00431405
0.00431392
0.004314
0.00431371
0.0043139
0.004314
0.00431391
0.00431394
0.00431401
0.00431405
0.00431403
0.00431403
0.004314
0.00431403
0.00431404
0.00431404
0.00431405
0.00431405
0.00431405
0.00431393
0.00431405
0.00431405
0.00431405
0.00431405
0.00431405
0.00431399
0.00431391
0.00430989
0.00430432
0.00431405
0.00431405
0.00431405
0.00431405
0.00431391
0.00431405
0.00431405
0.00431405
0.0043139
0.00431373
0.00431405
0.00389532
0.00403888
0.00428622
0.00430064
0.00405086
0.00416961
0.00430304
0.00428827
0.00431405
0.00431401
0.00431404
0.004302
0.00430799
0.00431404
0.00431404
0.00431405
0.00431405
0.00431405
0.00431405
0.00431405
0.00431405
0.00431405
0.00431388
0.00431405
0.00431397
0.00431405
0.004314
0.00431405
0.00431217
0.00431278
0.00429187
0.00429259
0.00430673
0.00430554
0.00431379
0.00428411
0.00431391
0.00431253
0.00431038
0.00430986
0.00431229
0.00431403
0.0042899
0.00431391
0.00424813
0.0043055
0.00423711
0.0043138
0.00430732
0.0043139
0.00431405
0.0043135
0.0042963
0.00431398
0.00431399
0.0043098
0.00430973
0.00431228
0.00431216
0.00430386
0.00430455
0.00430981
0.00431401
0.00431403
0.00431399
0.00431401
0.0043098
0.00431346
0.00431404
0.00431405
0.00431403
0.00431404
0.00431326
0.00431218
0.00431228
0.00431015
0.00431026
0.00427926
0.00427975
0.0043094
0.00431399
0.00431399
0.004314
0.004314
0.00430948
0.00430946
0.00431399
0.00431399
0.00431399
0.00431399
0.00430944
0.00390132
0.00431346
0.00403109
0.00387825
0.0041689
0.00404439
0.00431352
0.00431271
0.00388337
0.00431283
0.00431304
0.00431288
0.00431261
0.00431401
0.004314
0.00431402
0.00431401
0.00431277
0.0042514
0.0042828
0.00431381
0.00424522
0.00417834
0.00428396
0.00425149
0.00431384
0.00418032
0.00424532
0.00431398
0.00430278
0.00430929
0.00428645
0.00430124
0.00431396
0.00428424
0.00430909
0.00431039
0.0040712
0.00430854
0.00430855
0.00381449
0.00431272
0.00431269
0.00431403
0.00431405
0.00431405
0.00431405
0.00431405
0.00431404
0.00431404
0.00391769
0.00431389
0.00431404
0.00431404
0.00431403
0.004314
0.00431405
0.00405141
0.00408542
0.0037189
0.00430944
0.00430987
0.00410949
0.00415343
0.00430859
0.00431274
0.00318133
0.00431405
0.00431405
0.00431405
0.00431405
0.00431405
0.00431405
0.0043134
0.00431404
0.00431403
0.0043114
0.00431033
0.00431328
0.00431269
0.004314
0.00431401
0.004314
0.004314
0.00431265
0.0042882
0.00429574
0.00430908
0.00430039
0.00426103
0.00424141
0.00431403
0.00431249
0.00431337
0.004314
0.00431401
0.00401311
0.00431405
0.00431401
0.00431405
0.00431384
0.00431188
0.00431079
0.00431404
0.00431405
0.00431405
0.00431405
0.00431405
0.00431402
0.00431267
0.00431401
0.004314
0.00431402
0.00431401
0.00431273
0.00431047
0.00425885
0.00428844
0.00425202
0.00425332
0.0043096
0.00429054
0.00429117
0.00431172
0.004301
0.00430677
0.00431099
0.00431378
0.0043138
0.0043136
0.00431363
0.00430975
0.00431401
0.00431402
0.00431311
0.00431171
0.00426118
0.004244
0.00430981
0.00424992
0.00425199
0.00424016
0.00423896
0.00431073
0.00429061
0.00428154
0.00430926
0.00431369
0.00431365
0.00431376
0.00431382
0.0043107
0.00430959
0.00431357
0.00431359
0.00431363
0.0043136
0.00430932
0.00431346
0.00430044
0.00430477
0.00428819
0.00428692
0.00431202
0.00431384
0.00431403
0.00431402
0.00431404
0.00431403
0.00431387
0.00431396
0.00430112
0.00428693
0.00430823
0.00430585
0.00431397
0.0042531
0.00426467
0.00431402
0.00431044
0.00430889
0.00423462
0.00424899
0.00428106
0.00426584
0.00431403
0.00431404
0.00431404
0.00424169
0.00430807
0.0042525
0.00426216
0.00425691
0.00430734
0.00431404
0.00431398
0.00431405
0.0043138
0.00431404
0.00392588
0.00396611
0.00404367
0.00404904
0.00429375
0.00413106
0.00410035
0.00417749
0.00414012
0.00429567
0.00409397
0.00411535
0.00429811
0.00429575
0.00430518
0.0042216
0.00419237
0.00416093
0.00418613
0.00431375
0.00431402
0.00431404
0.00431393
0.00431401
0.00431365
0.00431144
0.00431321
0.0042889
0.00429495
0.00430863
0.00430132
0.0042841
0.0043088
0.00430649
0.00431087
0.00430944
0.00428428
0.00430027
0.00429661
0.00430566
0.00430182
0.00431186
0.00428537
0.00429334
0.0042689
0.00428132
0.00431156
0.00423065
0.00423768
0.00427494
0.00431173
0.00430966
0.00431362
0.00431233
0.00428235
0.00429825
0.00429575
0.00430809
0.00429967
0.00431273
0.004314
0.00431378
0.00431189
0.00431029
0.00431329
0.00431214
0.00431388
0.00431237
0.00431359
0.00431389
0.00431264
0.00431347
0.00431403
0.00431377
0.00431338
0.0042537
0.0042553
0.00431022
0.00420159
0.00417411
0.00426174
0.00420472
0.00413849
0.00411473
0.00416618
0.00415128
0.00430962
0.00425392
0.00425365
0.00426904
0.00426586
0.00429456
0.00427576
0.00426814
0.00426728
0.00426655
0.0042679
0.00431182
0.00429111
0.00429102
0.00430175
0.0043064
0.0043137
0.00431376
0.00431031
0.00430977
0.00431364
0.00431368
0.0042692
0.00426451
0.00431184
0.0041064
0.00411948
0.00398783
0.00408968
0.00413273
0.00416941
0.00412123
0.00412857
0.00424656
0.0042493
0.00430988
0.00407872
0.00405412
0.00411132
0.00408549
0.00400325
0.00398142
0.00404347
0.00401788
0.00431062
0.00424123
0.0042451
0.00428604
0.00428096
0.00431375
0.0043137
0.00430927
0.00431029
0.00431381
0.00431376
0.00431357
0.00431357
0.00430956
0.00430934
0.00431359
0.00431357
0.00390996
0.00395347
0.00429192
0.0042984
0.00428047
0.0042892
0.0039098
0.00412348
0.00430527
0.00429785
0.00430001
0.00430414
0.00410023
0.00422209
0.00423539
0.00418686
0.00421713
0.00390622
0.00426589
0.00427748
0.0042406
0.0042601
0.00390315
0.00429516
0.00429913
0.00431338
0.00428607
0.00428892
0.00429495
0.00428688
0.00428862
0.00431225
0.00428624
0.00429243
0.00426619
0.00398863
0.00398174
0.00408305
0.00400064
0.00427071
0.0040395
0.00420889
0.0039786
0.00421922
0.00429453
0.00431218
0.00431126
0.00431301
0.00431244
0.00429602
0.00427616
0.0042777
0.00426871
0.00427792
0.00419799
0.00422845
0.00429102
0.00428441
0.00431405
0.00431405
0.00431405
0.00431405
0.00431405
0.00431405
0.00431405
0.00431405
0.00431405
0.00431404
0.00431405
0.00431405
0.00431405
0.00431405
0.00431405
0.00431404
0.00431404
0.00431348
0.00431136
0.00430682
0.00430622
0.00428627
0.00429723
0.00431403
0.00431403
0.00431354
0.00428515
0.00428415
0.00429899
0.00430573
0.0043079
0.00431382
0.00431399
0.00431405
0.00431405
0.00430572
0.00430769
0.00431341
0.00431398
0.00431384
0.00431403
0.00431275
0.00429785
0.00430492
0.00429954
0.0043056
0.00430494
0.00431086
0.004312
0.00431201
0.00430971
0.00431385
0.00431388
0.0043128
0.00431317
0.00431402
0.00431402
0.00428271
0.00427565
0.00431266
0.00429645
0.00428659
0.0042861
0.00428428
0.00430927
0.00431229
0.00431225
0.00430964
0.00431198
0.00431199
0.00431221
0.00431217
0.00430928
0.00431246
0.00429178
0.00428558
0.00431193
0.00431381
0.00431379
0.00431397
0.00431404
0.00431404
0.00410802
0.00411114
0.00431182
0.00431086
0.00431402
0.00410237
0.00410517
0.00431345
0.00431363
0.00431404
0.00431396
0.00431389
0.00389415
0.00391327
0.00392119
0.00402437
0.00406273
0.0038996
0.00390556
0.0040408
0.00401898
0.00415578
0.00427589
0.00427375
0.00429094
0.00424547
0.00422772
0.004306
0.00431405
0.00431405
0.00431405
0.00431372
0.00431387
0.00431398
0.00431401
0.00431347
0.00431359
0.00431405
0.00431405
0.00431404
0.00430972
0.00430942
0.00431174
0.00431304
0.004312
0.00431145
0.00429047
0.00429333
0.00429449
0.00429626
0.00430755
0.00430406
0.00428775
0.00429135
0.00428623
0.00428566
0.00429858
0.00429706
0.00428325
0.00428592
0.00428624
0.00431385
0.00430861
0.00431038
0.00428402
0.00426073
0.00429432
0.00429054
0.00431068
0.00430896
0.00430162
0.00421812
0.00421152
0.00428109
0.00425547
0.00421824
0.00431404
0.00431402
0.00431331
0.00431305
0.00431121
0.00431213
0.00430133
0.00431286
0.00431331
0.0042911
0.00429446
0.00431265
0.00420238
0.00419614
0.00430318
0.00430522
0.00431397
0.00431399
0.00431369
0.00431285
0.00431391
0.00431394
0.00431257
0.00427414
0.00427037
0.00427976
0.0042801
0.00431202
0.004312
0.00430949
0.0043094
0.00431204
0.00431203
0.00390864
0.00401576
0.00416401
0.00417496
0.00405206
0.00406576
0.00387471
0.00429689
0.00429316
0.00431259
0.00387096
0.00386281
0.0039319
0.00393668
0.003891
0.00402915
0.00404065
0.00386206
0.00387577
0.00431385
0.00431383
0.00431207
0.0043131
0.00431388
0.00431386
0.00421781
0.00430295
0.00430435
0.00429969
0.00430138
0.00420698
0.00430613
0.00431284
0.00431315
0.00431317
0.00431302
0.00430709
0.00428977
0.00430197
0.0043003
0.00427965
0.00427609
0.00428055
0.00414875
0.00416372
0.00416985
0.00408383
0.00430987
0.00426852
0.00425196
0.00428165
0.00427243
0.00430795
0.00422568
0.00422844
0.00429534
0.00430083
0.00431306
0.00431403
0.00431403
0.00431397
0.00405587
0.0040665
0.00426342
0.00426082
0.00364899
0.00413123
0.00409008
0.00408854
0.00408188
0.0040868
0.00414438
0.00319838
0.00427626
0.004291
0.00431405
0.00431405
0.00431405
0.00430796
0.0043074
0.00431138
0.00430917
0.0043111
0.00431239
0.0043105
0.00431085
0.00428741
0.00429647
0.00428464
0.0042856
0.00428837
0.00428573
0.00429965
0.00428365
0.00428333
0.00425651
0.00422625
0.00422641
0.00422999
0.00422949
0.00425083
0.00431155
0.00431296
0.00431301
0.00431278
0.00431291
0.00431119
0.00430026
0.00430975
0.00430419
0.00430228
0.00430973
0.00431202
0.00431203
0.00428583
0.00428675
0.00429449
0.00428247
0.00431238
0.00431233
0.00430925
0.00431199
0.00431198
0.00430962
0.0043093
0.00431214
0.00431211
0.00428862
0.00429483
0.00429182
0.00429785
0.00429661
0.00428835
0.0041147
0.00412027
0.00409836
0.00409988
0.00423985
0.00416951
0.00416168
0.00423527
0.00423456
0.00427662
0.00424391
0.00425167
0.00422914
0.00423545
0.00427129
0.004314
0.00431398
0.00431401
0.00431395
0.00431403
0.00431404
0.00431405
0.00431401
0.00431402
0.004314
0.00425123
0.00428787
0.00428548
0.00429342
0.00429065
0.00425445
0.00426572
0.00427604
0.00427099
0.00428326
0.0042805
0.00426193
0.00431401
0.00431404
0.00431402
0.00431324
0.00431258
0.00431393
0.00431379
0.00390061
0.00400277
0.00392677
0.00392338
0.00404575
0.00404734
0.00419168
0.00420072
0.00411231
0.00391133
0.00389875
0.00407643
0.00395212
0.00394862
0.00394701
0.00413725
0.00398216
0.00394114
0.00428044
0.00428471
0.0043001
0.00426927
0.00426967
0.00426804
0.00426786
0.00429329
0.00427333
0.00427571
0.00416818
0.00407262
0.00407687
0.00407577
0.0040713
0.00417623
0.00431392
0.00431395
0.00431382
0.00431334
0.00431366
0.00431387
0.00430708
0.00431153
0.004309
0.0043085
0.00430961
0.00431007
0.00430854
0.00430911
0.00428966
0.00429412
0.00428688
0.00428705
0.00428598
0.00428644
0.00430815
0.00429741
0.00429833
0.0042835
0.00428489
0.00430256
0.00428622
0.00429107
0.00428795
0.00428363
0.00429562
0.00429385
0.00429894
0.00428471
0.00428527
0.00428796
0.00428588
0.00429781
0.00430466
0.00429404
0.0042959
0.00428772
0.00429109
0.00430336
0.00428572
0.00427327
0.00429765
0.00429578
0.00422809
0.00423148
0.00427063
0.00429765
0.00429598
0.00426774
0.00428873
0.0043044
0.00430034
0.00423043
0.004223
0.00427483
0.0042758
0.00429655
0.00425041
0.00424001
0.00430642
0.00430873
0.00431251
0.00431005
0.00430359
0.00429438
0.00430299
0.00431309
0.00431358
0.00431368
0.00431312
0.00431331
0.00431233
0.00431117
0.00431204
0.00431368
0.00431326
0.00431309
0.00431371
0.00431336
0.00431377
0.00431284
0.00431286
0.00431226
0.00431298
0.00419612
0.00418403
0.00424588
0.0041669
0.00417604
0.00414948
0.00420778
0.00412831
0.00412041
0.00416024
0.00415631
0.0042661
0.00422198
0.00422789
0.00421472
0.00421737
0.00426551
0.00429225
0.00426826
0.00427289
0.00422964
0.0042564
0.00428668
0.00419233
0.00418599
0.00426837
0.0041904
0.00419368
0.00418664
0.00418862
0.00426838
0.00426731
0.00421259
0.0042137
0.00419838
0.00420467
0.00426765
0.00430249
0.00430586
0.00411434
0.00398958
0.0040069
0.00395426
0.00397033
0.00411764
0.00401339
0.00401362
0.00401193
0.00405401
0.00414048
0.00388319
0.00389389
0.00392472
0.00389204
0.00415275
0.00412334
0.00393013
0.00394094
0.00391006
0.00392176
0.0041259
0.00407447
0.00406791
0.00410722
0.0040949
0.0039916
0.00398277
0.00403568
0.00403042
0.00428197
0.00428049
0.00430953
0.00431199
0.00431199
0.00431209
0.00431206
0.00430937
0.00391388
0.00412994
0.00414963
0.00399293
0.00388181
0.00408379
0.0041065
0.00389502
0.00388183
0.00422648
0.00406031
0.00405411
0.00420112
0.00401323
0.00397139
0.00404663
0.00403478
0.0042107
0.00392941
0.00391088
0.00399197
0.00401479
0.00389963
0.00390455
0.00395062
0.00429681
0.00430588
0.0043049
0.00430735
0.00430665
0.004298
0.00428688
0.00428852
0.00429222
0.00428817
0.00428841
0.00428911
0.00428712
0.0043004
0.00429903
0.00430358
0.004302
0.00428935
0.00398489
0.0041
0.00411251
0.0040774
0.00408888
0.0039834
0.00405478
0.00416424
0.00417992
0.00412773
0.00414586
0.00402385
0.00402855
0.00393984
0.0039508
0.00394281
0.00393962
0.00398208
0.00404422
0.00406376
0.0039761
0.00401184
0.00397831
0.00430448
0.00430339
0.00429269
0.0042766
0.00427962
0.00413095
0.00414706
0.00421008
0.00411565
0.00409063
0.00415221
0.0041385
0.00422051
0.00409374
0.00409694
0.00423047
0.00423088
0.00431405
0.00431405
0.00431405
0.00431405
0.00431405
0.00431405
0.00431405
0.00431405
0.00431405
0.00431405
0.00431405
0.00431405
0.00431405
0.00431405
0.00431405
0.00431405
0.00431405
0.00431405
0.00431405
0.00431405
0.00431405
0.00431405
0.00431405
0.00431405
0.00431405
0.00431405
0.00431405
0.00431405
0.00431405
0.00431405
0.00431405
0.00431405
0.00431405
0.00431405
0.00431405
0.00431405
0.00431405
0.00431405
0.00431405
0.00431405
0.00431405
0.00431405
0.00431405
0.00431405
0.00431405
0.00431405
0.00431405
0.00431405
0.00431405
0.00431405
0.00431405
0.00431405
0.00431405
0.00431405
0.00431405
0.00431405
0.00431405
0.00431405
0.00431405
0.00431405
0.00431405
0.00431405
0.00431405
0.00431405
0.00431405
0.00431405
0.00431405
0.00431405
0.00431405
0.00431405
0.00431405
0.00431405
0.00431405
0.00431405
0.00431405
0.00431405
0.00431405
0.00431405
0.00431405
0.00431405
0.00431405
0.00431405
0.00431405
0.00431405
0.00431405
0.00431404
0.00431404
0.00431405
0.00431405
0.00431405
0.00431405
0.00431405
0.00431405
0.00431405
0.00431405
0.00431405
0.00431405
0.00431405
0.00431405
0.00431405
0.00431404
0.00431404
0.00431405
0.00431405
0.00431405
0.00431405
0.00431405
0.00431405
0.00431405
0.00431405
0.00431405
0.00431405
0.00431405
0.00431405
0.00431405
0.00431405
0.00431405
0.00431405
0.00431405
0.00431405
0.00431405
0.00431405
0.00431405
0.00431405
0.00431405
0.00431405
0.00431405
0.00431405
0.00431405
0.00431405
0.00431405
0.00431405
0.00431405
0.00431405
0.00431405
0.00431405
0.00431404
0.00431404
0.0036381
0.00430052
0.00430284
0.00431405
0.00431405
0.00431405
0.00431405
0.00431405
0.00431405
0.00431405
0.00431405
0.00431405
0.00431405
0.00431405
0.00431405
0.00431405
0.00415214
0.00414966
0.0041457
0.00431405
0.00431405
0.00431405
0.00431405
0.00431405
0.00431405
0.00431405
0.00431405
0.00431405
0.00431405
0.00431405
0.0043134
0.00422835
0.00415303
0.00423372
0.00431402
0.00431405
0.00431405
0.00431405
0.00431405
0.00431405
0.00431405
0.00431405
0.00431405
0.00431405
0.00431405
0.00431405
0.00431405
0.00431405
0.00431404
0.00431404
0.00431405
0.00431405
0.00431404
0.00431403
0.00431405
0.00431405
0.00431405
0.00431404
0.00431404
0.00431405
0.00431405
0.00431403
0.00431403
0.00431403
0.00431403
0.00431405
0.00431405
0.00431404
0.00431405
0.00431405
0.00431404
0.00431405
0.00431403
0.00431404
0.00431405
0.00431405
0.00431405
0.00431405
0.00431405
0.00431405
0.00431405
0.00431404
0.00431404
0.00431405
0.00363962
0.00422789
0.00422773
0.00410923
0.00410945
0.00320603
0.00431405
0.00431405
0.00431405
0.00431405
0.00431405
0.00431405
0.00431405
0.00431405
0.00431404
0.00431405
0.00431405
0.00431405
0.00431405
0.00431405
0.00431405
0.00431405
0.00431405
0.00431405
0.00431405
0.00431405
0.00431405
0.00431405
0.00431405
0.00431405
0.00431405
0.00431405
0.00431405
0.00431405
0.00431405
0.00431405
0.00431403
0.004314
0.00431405
0.00431405
0.00431405
0.00431405
0.00431405
0.00431405
0.00431405
0.00431405
0.00431405
0.00431405
0.00431405
0.00431405
0.00431405
0.00431405
0.00431405
0.00431405
0.00431405
0.00431405
0.00431405
0.00431405
0.00431405
0.00431405
0.00431405
0.00431405
0.00431323
0.00431379
0.00431376
0.00431397
0.00431395
0.00431365
0.00431325
0.00431281
0.00431353
0.00431405
0.00431405
0.00431405
0.00431405
0.00431405
0.00431405
0.00431405
0.00431405
0.00431405
0.00431405
0.00431405
0.00431405
0.00431405
0.00431405
0.00431405
0.00431405
0.00431405
0.00431405
0.00431404
0.00431404
0.00431405
0.0043128
0.00431364
0.00431366
0.00431357
0.00431357
0.00431259
0.00431405
0.00431405
0.00431405
0.00431405
0.00431405
0.00431405
0.00431405
0.00431405
0.00431405
0.00431405
0.00431405
0.00431405
0.00431405
0.00431405
0.00431405
0.00431405
0.00431405
0.00431405
0.00431404
0.00431404
0.00431405
0.00431358
0.00431403
0.00431404
0.00431383
0.00431385
0.00431344
0.00431002
0.00430149
0.00430301
0.00431405
0.00431405
0.00431405
0.00431405
0.00431405
0.00431405
0.00431405
0.00431405
0.00431405
0.00431386
0.00431215
0.00431279
0.00431282
0.00431298
0.00431375
0.00431405
0.00431405
0.00431405
0.00431405
0.00431405
0.00431405
0.00431405
0.00431405
0.00431405
0.00431403
0.00431399
0.004314
0.00431389
0.00431392
0.00431402
0.00431405
0.00431404
0.00431405
0.00401337
0.00431401
0.00431401
0.00431012
0.00431066
0.00380904
0.00431392
0.0043139
0.00393199
0.00431405
0.00431404
0.00431405
0.00431405
0.00431404
0.00431405
0.0043139
0.00431401
0.004314
0.00431405
0.00431405
0.00431402
0.00431405
0.00431405
0.00431405
0.00431401
0.00431351
0.00431394
0.00431405
0.00431405
0.00431405
0.004314
0.00431403
0.00431405
0.00431378
0.00431349
0.00431342
0.00431404
0.00431403
0.00431404
0.00431405
0.00431405
0.00431405
0.00431404
0.00431405
0.00431405
0.00431402
0.00431403
0.00431399
0.0043126
0.00431358
0.00431357
0.00431372
0.00431369
0.00431292
0.00431405
0.00431404
0.00431404
0.00431103
0.00430732
0.00430798
0.0043032
0.00430314
0.0043096
0.00430837
0.00430862
0.00431151
0.00431404
0.00431404
0.00431405
0.00431247
0.00431325
0.00431333
0.00431374
0.00431401
0.00431402
0.00431338
0.00431342
0.00431273
0.00431405
0.00431405
0.00431404
0.00431328
0.0043138
0.00431382
0.00431368
0.0043137
0.00431298
0.00431405
0.00431404
0.00431404
0.00431142
0.00430712
0.00430669
0.00431116
0.00431092
0.00431283
0.0043097
0.00430338
0.00430328
0.00430631
0.00430597
0.00431099
0.00431403
0.00431403
0.00431405
0.00431326
0.0043132
0.00431128