/*--------------------------------*- C++ -*----------------------------------*\
| =========                 |                                                 |
| \\      /  F ield         | OpenFOAM: The Open Source CFD Toolbox           |
|  \\    /   O peration     | Version:  5.x                                   |
|   \\  /    A nd           | Web:      www.OpenFOAM.org                      |
|    \\/     M anipulation  |                                                 |
\*---------------------------------------------------------------------------*/
FoamFile
{
    version     2.0;
    format      ascii;
    class       volScalarField;
    location    "3600";
    object      alphat;
}
// * * * * * * * * * * * * * * * * * * * * * * * * * * * * * * * * * * * * * //

dimensions      [0 2 -1 0 0 0 0];

internalField   nonuniform List<scalar> 
6445
(
0.0824628
0.0824629
0.0824632
0.0824635
0.0824638
0.0824641
0.0824644
0.0824646
0.0824649
0.082465
0.082465
0.0824653
0.0824661
0.0824671
0.0824675
0.082467
0.0824662
0.0824654
0.0824647
0.0824642
0.0824638
0.0824635
0.0824634
0.0824633
0.0820293
0.08203
0.0820302
0.0820307
0.0820315
0.0820322
0.0820328
0.0820334
0.0820339
0.082035
0.0820358
0.0820372
0.0820386
0.0820393
0.0820393
0.0820378
0.0820362
0.0820347
0.0820335
0.0820326
0.0820317
0.0820309
0.0820305
0.0820297
0.0816187
0.0816192
0.0816198
0.0816203
0.0816214
0.0816227
0.0816238
0.0816249
0.0816274
0.0816452
0.0816476
0.0816517
0.0816539
0.0816532
0.0816522
0.0816345
0.0816296
0.0816267
0.0816244
0.0816228
0.0816217
0.0816208
0.0816198
0.0816191
0.0812289
0.0812294
0.0812299
0.0812308
0.0812318
0.0812333
0.0812351
0.0812381
0.0812563
0.0814427
0.0814659
0.0814737
0.0814782
0.0814758
0.0814711
0.0812703
0.0812473
0.0812411
0.0812372
0.0812345
0.0812328
0.0812314
0.0812303
0.0812295
0.0808581
0.0808587
0.0808593
0.0808604
0.0808617
0.0808633
0.0808661
0.0808721
0.0809068
0.0811181
0.0812376
0.0812595
0.0812735
0.0812636
0.0812439
0.0809365
0.0808914
0.0808782
0.0808714
0.0808669
0.0808637
0.0808615
0.08086
0.080859
0.0805049
0.0805056
0.0805065
0.0805079
0.0805098
0.0805125
0.080517
0.0805289
0.0805844
0.0808299
0.0809961
0.0811185
0.0812586
0.0811398
0.0810123
0.080645
0.080566
0.0805388
0.080526
0.080518
0.080513
0.0805096
0.0805075
0.0805061
0.0801677
0.0801686
0.0801698
0.0801718
0.0801747
0.0801793
0.0801876
0.0802099
0.0802969
0.0805934
0.0808877
0.0818903
0.085326
0.0818307
0.0809432
0.0804123
0.0802754
0.080224
0.0802005
0.0801871
0.0801793
0.0801742
0.0801713
0.0801693
0.0798453
0.0798464
0.0798479
0.0798506
0.0798548
0.079862
0.0798761
0.0799125
0.0800427
0.0804406
0.0811899
0.0753003
0.0816939
0.0813629
0.080247
0.0800187
0.0799332
0.0798936
0.0798729
0.0798612
0.079854
0.07985
0.0798473
0.0795366
0.079538
0.0795399
0.0795435
0.0795491
0.0795592
0.0795801
0.0796327
0.0798135
0.0803643
0.0816745
0.0513065
0.0606501
0.0822537
0.0801347
0.0797888
0.0796622
0.0796033
0.0795738
0.0795575
0.0795477
0.0795424
0.0795389
0.0792405
0.0792422
0.0792446
0.079249
0.0792561
0.0792692
0.0792964
0.0793649
0.0795944
0.0803071
0.0817244
0.0451258
0.0523387
0.0828424
0.0800382
0.0795731
0.0794042
0.0793265
0.0792878
0.0792667
0.0792543
0.0792475
0.0792431
0.0789561
0.078958
0.0789608
0.078966
0.0789745
0.07899
0.0790224
0.0791047
0.0793772
0.0802292
0.0814703
0.0447139
0.0518453
0.0830318
0.0799312
0.0793617
0.0791545
0.0790605
0.0790133
0.0789877
0.0789726
0.0789645
0.0789591
0.0786826
0.0786847
0.0786879
0.0786936
0.0787031
0.0787206
0.0787566
0.0788492
0.0791567
0.0801152
0.0810259
0.0457042
0.053417
0.0829013
0.0797936
0.0791451
0.0789089
0.0788027
0.0787485
0.0787191
0.0787017
0.0786923
0.078686
0.0784193
0.0784214
0.0784247
0.0784308
0.0784409
0.0784594
0.0784978
0.078599
0.0789426
0.0799699
0.0804816
0.047008
0.0556543
0.0825827
0.0796234
0.0789206
0.0786656
0.0785511
0.078492
0.0784598
0.0784405
0.0784301
0.0784229
0.0781653
0.0781673
0.0781706
0.0781773
0.0781879
0.0782075
0.0782485
0.0783566
0.0787226
0.0798285
0.0797092
0.0465646
0.00473963
0.0565409
0.0820792
0.0794403
0.0786954
0.0784247
0.0783048
0.0782427
0.0782089
0.0781881
0.0781769
0.0781691
0.0779199
0.0779221
0.077926
0.0779325
0.0779435
0.0779636
0.0780062
0.0781205
0.0785086
0.0796463
0.0788295
0.0455402
0.00593085
0.0569701
0.0814751
0.0792404
0.0784689
0.0781907
0.0780656
0.0780003
0.0779653
0.0779438
0.0779321
0.0779239
0.077683
0.0776852
0.0776892
0.077696
0.0777073
0.0777278
0.077772
0.0778924
0.0783017
0.0794543
0.0779457
0.0445938
0.00708623
0.0568591
0.080821
0.0790379
0.0782461
0.0779599
0.0778322
0.0777664
0.0777298
0.077707
0.0776951
0.0776867
0.0774539
0.0774561
0.0774603
0.0774673
0.0774788
0.0774999
0.0775456
0.0776726
0.0781034
0.0792544
0.0770181
0.0436605
0.00825165
0.0565458
0.0801526
0.078838
0.0780288
0.0777349
0.0776052
0.0775385
0.0775012
0.0774783
0.0774656
0.0774571
0.0772323
0.0772345
0.0772388
0.0772459
0.0772576
0.0772793
0.0773268
0.077461
0.0779124
0.0790393
0.0761302
0.0428464
0.00941722
0.0561673
0.0794833
0.0786422
0.077818
0.0775164
0.0773846
0.0773172
0.0772794
0.0772562
0.0772431
0.0772345
0.0770177
0.0770198
0.0770242
0.0770315
0.0770435
0.0770657
0.0771153
0.077257
0.0777271
0.078806
0.0751915
0.0421639
0.0105681
0.0557779
0.0788198
0.0784509
0.0776139
0.0773043
0.0771704
0.0771023
0.0770641
0.0770407
0.0770272
0.0770187
0.0768096
0.0768118
0.0768163
0.0768237
0.076836
0.0768589
0.0769107
0.0770602
0.077546
0.0785534
0.0742414
0.0417477
0.0116924
0.0553997
0.0781664
0.0782634
0.0774165
0.0770987
0.0769624
0.0768936
0.076855
0.0768314
0.0768177
0.0768094
0.0766078
0.07661
0.0766146
0.0766222
0.0766348
0.0766585
0.0767127
0.07687
0.077368
0.0782816
0.0733162
0.0414685
0.012783
0.0550422
0.0775265
0.0780793
0.0772254
0.0768993
0.0767605
0.0766909
0.0766519
0.0766281
0.0766142
0.0766061
0.076412
0.0764142
0.0764188
0.0764266
0.0764396
0.076464
0.0765208
0.076686
0.077192
0.0779924
0.0724375
0.0411355
0.0138244
0.0547077
0.0769024
0.0778979
0.0770404
0.0767061
0.0765645
0.0764939
0.0764546
0.0764306
0.0764165
0.0764087
0.0762217
0.076224
0.0762287
0.0762367
0.07625
0.0762753
0.0763347
0.0765075
0.0770171
0.0776854
0.0715931
0.0408206
0.0147567
0.0543976
0.0762958
0.0777186
0.0768611
0.0765187
0.0763741
0.0763026
0.0762627
0.0762387
0.0762244
0.0762167
0.0760368
0.0760391
0.0760439
0.0760521
0.0760658
0.076092
0.0761542
0.0763344
0.0768428
0.077363
0.0707786
0.0405256
0.0157265
0.05411
0.0757077
0.0775409
0.0766872
0.0763368
0.0761892
0.0761165
0.0760762
0.076052
0.0760375
0.0760301
0.075857
0.0758593
0.0758643
0.0758726
0.0758867
0.075914
0.075979
0.0761661
0.0766682
0.0770277
0.0700034
0.0402815
0.0166675
0.0538404
0.0751381
0.0773644
0.0765181
0.0761603
0.0760094
0.0759355
0.0758947
0.0758703
0.0758557
0.0758484
0.0756821
0.0756844
0.0756895
0.075698
0.0757126
0.0757408
0.0758087
0.0760023
0.0764929
0.0766816
0.0692664
0.0400803
0.0175785
0.0535913
0.0745871
0.0771889
0.0763539
0.0759889
0.0758346
0.0757595
0.0757181
0.0756935
0.0756787
0.0756716
0.0755117
0.0755142
0.0755193
0.0755281
0.075543
0.0755723
0.0756431
0.0758424
0.0763165
0.0763268
0.0685662
0.0399149
0.0184588
0.0533612
0.0740551
0.0770138
0.076194
0.0758224
0.0756646
0.0755882
0.0755462
0.0755213
0.0755063
0.0754994
0.0753457
0.0753483
0.0753535
0.0753625
0.0753779
0.0754082
0.075482
0.0756863
0.0761388
0.0759651
0.0679006
0.0397792
0.0193098
0.0531485
0.0735419
0.0768389
0.076038
0.0756604
0.0754991
0.0754213
0.0753787
0.0753536
0.0753384
0.0753316
0.0751839
0.0751865
0.0751919
0.0752011
0.0752169
0.0752484
0.075325
0.0755335
0.0759596
0.0755991
0.0672685
0.0396708
0.0201345
0.0529524
0.0730471
0.076664
0.0758857
0.0755027
0.0753379
0.0752587
0.0752154
0.07519
0.0751748
0.075168
0.0750261
0.0750288
0.0750343
0.0750437
0.07506
0.0750925
0.0751721
0.0753837
0.0757787
0.0752302
0.0666679
0.0395864
0.0209363
0.0527713
0.0725702
0.0764891
0.0757368
0.0753492
0.0751808
0.0751002
0.0750562
0.0750305
0.0750151
0.0750084
0.0748721
0.0748748
0.0748805
0.0748901
0.0749068
0.0749405
0.0750229
0.0752368
0.0755961
0.0748598
0.0660962
0.0395222
0.021717
0.0526041
0.0721108
0.076314
0.0755911
0.0751995
0.0750277
0.0749455
0.0749008
0.0748748
0.0748593
0.0748526
0.0747217
0.0747245
0.0747303
0.0747401
0.0747573
0.0747922
0.0748773
0.0750924
0.0754118
0.0744892
0.0655519
0.0394759
0.0224766
0.0524499
0.0716683
0.0761387
0.0754483
0.0750537
0.0748783
0.0747946
0.0747492
0.0747229
0.0747072
0.0747005
0.0745749
0.0745777
0.0745836
0.0745936
0.0746113
0.0746474
0.0747351
0.0749504
0.0752258
0.0741197
0.0650332
0.0394449
0.0232136
0.0523078
0.0712421
0.0759632
0.0753083
0.0749113
0.0747325
0.0746472
0.0746011
0.0745744
0.0745586
0.0745519
0.0744313
0.0744342
0.0744402
0.0744505
0.0744687
0.0745059
0.0745962
0.0748105
0.0750383
0.0737522
0.0645383
0.0394269
0.0239271
0.0521766
0.0708316
0.0757875
0.0751707
0.0747724
0.0745902
0.0745033
0.0744564
0.0744294
0.0744134
0.0744067
0.0742916
0.0742946
0.0743007
0.0743113
0.0743299
0.0743684
0.074461
0.0746731
0.0748499
0.0733875
0.0640658
0.0394208
0.0246178
0.0520561
0.0704362
0.0756123
0.0750362
0.0746373
0.0744519
0.0743633
0.0743157
0.0742883
0.0742721
0.0742654
0.0741725
0.0741754
0.0741817
0.0741925
0.0742116
0.0742512
0.074346
0.0745549
0.0746775
0.0730276
0.0636141
0.0394255
0.0252874
0.0519454
0.0700554
0.0754548
0.0749216
0.0745231
0.0743345
0.0742443
0.0741959
0.0741682
0.0741518
0.0741451
0.0547043
0.0463437
0.0725618
0.0457425
0.0357034
0.0420671
0.0445785
0.0349489
0.0351136
0.0453693
0.0372281
0.0353014
0.0467244
0.0407253
0.0380938
0.0466852
0.00185109
0.00250611
0.0431634
0.0416137
0.0816142
0.0849316
0.0834254
0.0823706
0.081587
0.0726651
0.0818033
0.0232979
0.0421875
0.065064
0.0826824
0.0818705
0.081745
0.0641832
0.0697504
0.0487865
0.0237118
0.0270269
0.0101974
0.0138754
0.0531872
0.0826861
0.0827926
0.0815583
0.0619427
0.0633741
0.044756
0.0206921
0.0209298
0.00467089
0.00577685
0.0517208
0.0823282
0.082604
0.0811476
0.0613634
0.06169
0.0448417
0.0263844
0.021807
0.00757584
0.00635055
0.0529089
0.0818063
0.0822043
0.0130201
0.0123833
0.055105
0.0812852
0.0816745
0.0203548
0.0179221
0.0457214
0.00392267
0.00369839
0.00564137
0.0445578
0.0436024
0.0291077
0.0373481
0.0594326
0.022885
0.0189673
0.0427444
0.0257338
0.015302
0.0225406
0.0519602
0.0313055
0.0224778
0.0211307
0.0224914
0.0468572
0.0156363
0.0137946
0.01867
0.0162775
0.00588183
0.0100313
0.0367836
0.014065
0.00982946
0.0204478
0.0146821
0.0390281
0.0214852
0.0208512
0.04459
0.0139331
0.0153563
0.0137283
0.0136825
0.00628877
0.00462343
0.0347766
0.00784493
0.0101494
0.0096108
0.00790285
0.0348501
0.0153115
0.0172214
0.0156506
0.0147454
0.0118972
0.00821588
0.0364592
0.0155605
0.0177667
0.0103526
0.0149159
0.0358052
0.0200355
0.0214766
0.0178224
0.0195272
0.0170228
0.0140136
0.0185511
0.024257
0.0389325
0.0224593
0.0185264
0.0219043
0.0227054
0.0177805
0.0203541
0.0669128
0.0450643
0.0573784
0.0135291
0.0254941
0.0806265
0.0613071
0.0613407
0.0460556
0.029391
0.0286111
0.00663493
0.00527643
0.056345
0.0805717
0.0811503
0.0250305
0.0156115
0.0540751
0.0389004
0.0594435
0.0278326
0.0270755
0.0450719
0.0034269
0.00445808
0.00771331
0.00850164
0.00449994
0.00579637
0.00479002
0.00411877
0.0398206
0.0254071
0.0265944
0.00886152
0.00971486
0.0277683
0.0288967
0.0424382
0.0825752
0.0825955
0.052217
0.0613396
0.0874013
0.0816611
0.0126432
0.0274025
0.0160374
0.0295677
0.0183548
0.0331759
0.0115177
0.0123456
0.00517998
0.00524196
0.00801716
0.00762716
0.0120465
0.00357205
0.0138758
0.00823968
0.0071384
0.0103186
0.0111214
0.0187853
0.00931889
0.0209851
0.00819204
0.0127976
0.00785014
0.0190918
0.0137694
0.0185424
0.0293012
0.0145871
0.00970631
0.0177985
0.0188296
0.0141625
0.0140382
0.0173002
0.0170677
0.00661831
0.00679157
0.0113395
0.0227697
0.0236522
0.0220108
0.0223485
0.0112006
0.0175207
0.0268738
0.0283648
0.024736
0.0256551
0.0160605
0.0146803
0.0147827
0.0135614
0.0135027
0.00414321
0.00420871
0.00886518
0.0213543
0.0212721
0.0220276
0.0216121
0.00895432
0.00862278
0.0215121
0.0217284
0.0212867
0.0213784
0.00852761
0.00348476
0.0159618
0.00466283
0.00357575
0.00683721
0.00574333
0.0165749
0.0163076
0.00362888
0.0141721
0.0103846
0.00980122
0.0112928
0.0229389
0.0224413
0.0239998
0.0234791
0.0117464
0.00632186
0.00737898
0.0184502
0.00826369
0.00709628
0.0113407
0.0107537
0.0189673
0.00493849
0.00605803
0.0160284
0.00621559
0.00772549
0.00369778
0.00575179
0.0150204
0.0038453
0.0099977
0.00832092
0.0100108
0.0103787
0.00953921
0.00824807
0.0159138
0.079901
0.060262
0.0612679
0.0470152
0.0319191
0.0315458
0.00505005
0.0187773
0.0183186
0.0176226
0.0308779
0.0301552
0.0464013
0.00295413
0.00314416
0.000356257
0.00832292
0.00809842
0.00336164
0.00375147
0.00848315
0.00814579
0.0523728
0.0601448
0.030746
0.0329512
0.0630878
0.0496243
0.0246356
0.0326565
0.03174
0.0104822
0.00826795
0.0129178
0.0206735
0.0289137
0.0289814
0.0291068
0.0289715
0.0207656
0.00488866
0.00555266
0.00707722
0.00645645
0.00349385
0.00336121
0.0196009
0.0119386
0.0125507
0.0182078
0.0180764
0.00375628
0.0338748
0.0221609
0.0292803
0.0159454
0.00974862
0.00863497
0.0272565
0.0348371
0.0372919
0.0302951
0.0323763
0.0243509
0.0213818
0.0296277
0.0293204
0.0307856
0.0300741
0.021742
0.0148061
0.0104846
0.0118298
0.00952697
0.00963366
0.0138652
0.0127417
0.0130781
0.0166266
0.00608723
0.00763493
0.0125027
0.016847
0.017751
0.0151766
0.0153255
0.01062
0.0291433
0.0293637
0.021039
0.0142782
0.00954797
0.00914613
0.0136667
0.00931708
0.00943224
0.00888888
0.008841
0.0135132
0.00533018
0.00443064
0.00763598
0.0144978
0.0145178
0.0155456
0.015246
0.00979669
0.00912174
0.0149379
0.0150493
0.0145359
0.0145745
0.00815246
0.0113772
0.00661839
0.00710628
0.00411322
0.00398326
0.00873274
0.0162662
0.0252305
0.0245849
0.0265702
0.0258889
0.0170015
0.0205553
0.0124531
0.0118775
0.0135
0.0129775
0.0210153
0.00360528
0.00395956
0.0223191
0.0145497
0.0140388
0.00481271
0.00388035
0.00381656
0.00336265
0.0181646
0.0182086
0.0200482
0.00312096
0.00613657
0.00318313
0.00345822
0.00323047
0.00572381
0.0206859
0.0137233
0.0199297
0.0117178
0.0174265
0.00364919
0.00394512
0.00310282
0.00299146
0.00793902
0.00458488
0.00376329
0.00495444
0.00470327
0.00815895
0.00480283
0.00504986
0.00503992
0.00474715
0.00917889
0.0055501
0.0052893
0.00378257
0.00399711
0.0120873
0.0190762
0.020951
0.0155724
0.0170541
0.0113286
0.0105811
0.0126298
0.00494131
0.00547475
0.00849
0.00654303
0.00362456
0.00625221
0.00569051
0.00732116
0.00680682
0.00362341
0.00525797
0.00483436
0.00645668
0.00554543
0.0080557
0.00500529
0.00515966
0.00365885
0.00468761
0.00760751
0.00317542
0.00310155
0.00922243
0.014795
0.0141837
0.0165914
0.0154409
0.00960466
0.0118175
0.0120199
0.0128634
0.0120079
0.0149789
0.0188558
0.0176333
0.0128236
0.0120756
0.0137087
0.0101592
0.0166183
0.00965904
0.0130475
0.0152478
0.0100094
0.012352
0.0200073
0.0160319
0.0147647
0.00996316
0.0101026
0.0143677
0.00630577
0.00580821
0.00843729
0.00645987
0.00525196
0.00499551
0.00568076
0.00537186
0.0139509
0.00975315
0.00985219
0.00996175
0.00949148
0.0119842
0.010481
0.00909834
0.00875164
0.00942514
0.00918374
0.0168575
0.0132989
0.0135127
0.00615902
0.00746971
0.0157815
0.0161211
0.0115847
0.011097
0.0154829
0.0156028
0.00994147
0.00982066
0.0145341
0.00610871
0.00623675
0.00430055
0.00580563
0.00622608
0.00688171
0.00622993
0.00622764
0.0091088
0.00921764
0.0136035
0.00463882
0.00445567
0.00492506
0.00469745
0.00417329
0.0041591
0.00439468
0.00423896
0.013511
0.00891714
0.00900394
0.00475893
0.00436026
0.0144614
0.014429
0.0088753
0.00930075
0.0148828
0.0145656
0.0147521
0.0148408
0.008983
0.00822692
0.014608
0.0146807
0.00358404
0.00403177
0.0094924
0.00992562
0.00852258
0.00897331
0.0037472
0.00650137
0.0110779
0.0114506
0.0102435
0.0106449
0.00607082
0.00800445
0.00661096
0.00727991
0.00794255
0.00381581
0.00792458
0.00824384
0.00684605
0.00741846
0.00379597
0.00476487
0.00524654
0.0108911
0.00372915
0.00393008
0.00464158
0.00377956
0.00392483
0.00920365
0.00392221
0.0044322
0.00659107
0.00307539
0.0031738
0.00362851
0.00310454
0.00694537
0.00312252
0.00520609
0.00320869
0.00564832
0.00434042
0.00849601
0.00791321
0.00961051
0.00902248
0.00532209
0.00339936
0.00343718
0.00383994
0.00382455
0.00417717
0.00473425
0.00349852
0.00401458
0.083956
0.0815687
0.0810693
0.0426726
0.0293887
0.0300755
0.0301192
0.0341366
0.0215654
0.0192217
0.0322932
0.0269564
0.0849337
0.0865545
0.0786586
0.0346866
0.0335796
0.025559
0.0103074
0.00736532
0.00718035
0.00473304
0.00569321
0.030251
0.0305914
0.0221285
0.00437615
0.00426389
0.00637216
0.00752855
0.00795208
0.0128676
0.0318651
0.0368382
0.0358396
0.017167
0.0179831
0.0191038
0.020106
0.0180771
0.02139
0.0181457
0.0150364
0.0162705
0.00595396
0.00700726
0.0068121
0.00968273
0.0114106
0.0113858
0.0100539
0.0182685
0.0186129
0.0150064
0.0212281
0.0296064
0.0299131
0.0105469
0.0102485
0.0150753
0.00618224
0.00458494
0.00450018
0.00458
0.0077891
0.0106985
0.0107372
0.00942193
0.0113973
0.0114116
0.0107707
0.0108205
0.00797793
0.015914
0.0112349
0.0109264
0.0105453
0.0159854
0.0157619
0.0193577
0.0279173
0.0272544
0.00207048
0.0017867
0.015208
0.0150333
0.0226677
0.00256616
0.00235563
0.0129319
0.0136995
0.0209884
0.014378
0.0124095
0.00341382
0.00339019
0.0034554
0.00439088
0.00455671
0.0032753
0.00332717
0.00404453
0.00388547
0.00563367
0.0034505
0.00341429
0.00430492
0.00597407
0.00574247
0.00943356
0.0796692
0.0706854
0.0480571
0.0110896
0.013454
0.0162817
0.0176822
0.0109992
0.0115553
0.0232496
0.0265496
0.0219299
0.00897207
0.00871209
0.0109927
0.0126828
0.0118132
0.010763
0.00507975
0.00530442
0.00524691
0.00548792
0.00825627
0.00717602
0.00443074
0.0048262
0.00362969
0.00357256
0.00491404
0.0047101
0.00354384
0.00359284
0.00363089
0.0133796
0.0084783
0.00902828
0.0089005
0.00852817
0.0109949
0.0106596
0.0136591
0.0132122
0.0117427
0.00749063
0.00734055
0.010026
0.00871955
0.00712431
0.0213544
0.0202725
0.0169409
0.0138401
0.0118086
0.0123925
0.0101663
0.00936394
0.0104432
0.0137423
0.0141244
0.0176324
0.00717124
0.00701133
0.00646577
0.0070054
0.0199999
0.0203838
0.0189529
0.0153576
0.0189489
0.0194114
0.0149124
0.0100984
0.0100142
0.00419071
0.00425443
0.0111511
0.011203
0.0087256
0.00841479
0.0110541
0.011114
0.00354389
0.00453233
0.00672723
0.00685668
0.00515551
0.00527376
0.00354547
0.0115917
0.0114512
0.0161146
0.00363545
0.00359194
0.00400087
0.00402678
0.00369477
0.00504365
0.00510434
0.00357521
0.00369633
0.0166284
0.0162599
0.0108414
0.0121026
0.0172879
0.0169885
0.00783778
0.0125044
0.0128618
0.0117659
0.0121212
0.00741251
0.00670259
0.0108071
0.0102137
0.0119396
0.0114025
0.00722771
0.00391773
0.00552992
0.0051997
0.00359711
0.00345448
0.00350048
0.00205714
0.00202056
0.00283373
0.0102934
0.00659228
0.00628592
0.00668578
0.00679431
0.0104679
0.00205352
0.00198215
0.00513077
0.00550983
0.00870377
0.0155691
0.0155225
0.0130265
0.0029519
0.00299373
0.00378654
0.00374491
0.00106668
0.00357341
0.00306737
0.00306807
0.00298495
0.00303272
0.00369996
0.0015605
0.0038832
0.00370999
0.0478711
0.0389264
0.0256284
0.00780718
0.00757036
0.0103947
0.0074812
0.00925141
0.0107253
0.00867687
0.00900418
0.00481188
0.00562299
0.00389688
0.00393534
0.00426191
0.00397487
0.00638401
0.0041727
0.00411142
0.00358611
0.00278052
0.00254625
0.00303804
0.00296697
0.00353252
0.00934908
0.012002
0.012221
0.0114282
0.0117926
0.00899306
0.00602122
0.00898144
0.00659372
0.0060453
0.0103105
0.0113392
0.0112621
0.00459991
0.00463669
0.00587069
0.00449559
0.0105914
0.0106546
0.00771181
0.0113404
0.0113736
0.00926219
0.00806426
0.0108589
0.0109154
0.00413077
0.00509957
0.00468919
0.0054927
0.0053553
0.00408453
0.00190075
0.00203386
0.00276736
0.00268503
0.00482983
0.00347957
0.00346542
0.00205649
0.00190471
0.00359008
0.00218147
0.00238335
0.00225448
0.00200156
0.00337763
0.0155188
0.0143773
0.0165659
0.0128394
0.0164025
0.0192382
0.0218061
0.0147884
0.0161459
0.0139164
0.00319048
0.00429652
0.00414283
0.00478946
0.00451992
0.00327926
0.00331857
0.0036829
0.00348098
0.00403692
0.0039117
0.00328744
0.0149252
0.0176967
0.0159218
0.0120294
0.0111268
0.0136027
0.0128064
0.00345608
0.00422421
0.00350482
0.00350672
0.00306902
0.00302811
0.00533904
0.00542066
0.00385366
0.00328375
0.00324645
0.00462262
0.00329144
0.0032523
0.00328936
0.00536181
0.00363883
0.00341364
0.00370253
0.00392067
0.00529541
0.00332844
0.00333703
0.00335482
0.00332254
0.00449483
0.00342105
0.00351465
0.0038224
0.0028951
0.00293688
0.00288307
0.00286804
0.00386897
0.0146489
0.0153516
0.0127925
0.0100139
0.0120029
0.0138015
0.00697758
0.0107219
0.00841162
0.00809117
0.00807534
0.0083581
0.00764474
0.00789334
0.00500202
0.00537945
0.00415032
0.00420984
0.00400911
0.00407562
0.00840694
0.00563161
0.00574988
0.00409926
0.00420597
0.00681344
0.00419752
0.0040733
0.00379739
0.00357982
0.00455876
0.00438392
0.00505336
0.00363984
0.00366616
0.00378444
0.0036947
0.00494395
0.00622084
0.00433499
0.00453433
0.00380358
0.00405586
0.00589743
0.00363188
0.00381472
0.00525397
0.00504451
0.00307173
0.00306433
0.0080403
0.0113987
0.011191
0.00885602
0.00995965
0.0123224
0.011731
0.00789524
0.00764276
0.0110182
0.0113595
0.0119709
0.0084924
0.00817481
0.010539
0.0111464
0.0133209
0.00985283
0.0105275
0.00882766
0.0099218
0.0125507
0.0142032
0.0146759
0.0125791
0.0132226
0.0105243
0.00828798
0.00924282
0.0135883
0.0112582
0.0107089
0.0139544
0.011712
0.014277
0.0104618
0.0101078
0.00899878
0.0108338
0.0061374
0.00596065
0.00779199
0.00562178
0.00577685
0.00519197
0.0065894
0.00515194
0.00506684
0.005573
0.00546802
0.00969873
0.00748751
0.00774752
0.00703542
0.00724489
0.00956923
0.0118
0.0101809
0.0106576
0.00794463
0.00938353
0.0113187
0.00680747
0.00625952
0.00900764
0.00611557
0.00622739
0.00590814
0.0060108
0.00891088
0.00935842
0.00668626
0.00685202
0.00635601
0.00650629
0.00927293
0.0063235
0.00724952
0.00619288
0.00444093
0.00455761
0.00421645
0.00431878
0.00624716
0.00470832
0.00460432
0.00455844
0.00527445
0.00634354
0.00383357
0.0038558
0.00416194
0.00391682
0.00651488
0.00622466
0.00405684
0.00412986
0.00392801
0.00399535
0.00620845
0.00458783
0.00453368
0.00485913
0.00476953
0.00412991
0.00408989
0.0043461
0.00430175
0.00435646
0.00430183
0.00884507
0.0112505
0.0113007
0.0109514
0.0110089
0.00831395
0.00358939
0.00616473
0.00648801
0.00434233
0.00358178
0.00545456
0.00578717
0.00378186
0.00370516
0.00802334
0.00545722
0.00538641
0.00761479
0.00495649
0.00454661
0.00530951
0.00518891
0.0078433
0.00397259
0.00387074
0.00474359
0.00493315
0.00376379
0.00394132
0.00432531
0.00496752
0.00725963
0.00700493
0.0076669
0.00746847
0.00510544
0.00378246
0.00387207
0.00432846
0.00383578
0.00383585
0.00399821
0.00395787
0.00586941
0.0056308
0.0066249
0.00621791
0.00412834
0.00309409
0.004163
0.00425577
0.00407643
0.00412254
0.0031324
0.00341089
0.0049155
0.00516054
0.0043874
0.00463145
0.00321721
0.00310537
0.00313481
0.0031973
0.00320246
0.00315995
0.00324881
0.00387225
0.0039998
0.0033543
0.00359801
0.0032448
0.00607189
0.00584558
0.0041634
0.00344946
0.00348493
0.00207917
0.00208075
0.00440274
0.00312566
0.00296499
0.00340934
0.0033051
0.00460852
0.00284242
0.00282196
0.00219162
0.00209266
0.0189712
0.0210097
0.0163018
0.0187141
0.0182647
0.00118188
0.000939449
0.00129943
0.0014198
0.00188399
0.00185228
0.000678022
0.0010766
0.00220104
0.00212538
0.00163625
0.00160934
0.00157752
0.00153895
0.0247207
0.020887
0.016837
0.00139265
0.00132683
0.00153114
0.00161547
0.00162157
0.0014966
0.00144234
0.000990992
0.000974848
0.000389308
0.000814768
0.00120752
0.00115624
0.0809695
0.0810258
0.081227
0.0810495
0.0811044
0.0812498
0.0811261
0.081191
0.081271
0.0811999
0.0811628
0.0812704
0.0811438
0.0810876
0.0812541
0.0810618
0.0810032
0.0811401
0.080702
0.0808206
0.0809653
0.0808909
0.0812393
0.0810823
0.0814598
0.0827544
0.0812425
0.082931
0.08172
0.0811745
0.0814604
0.0810204
0.0810467
0.0809312
0.0807849
0.0808832
0.0805048
0.080819
0.0807934
0.081063
0.0827383
0.0814599
0.082654
0.0839108
0.082563
0.0884574
0.0874801
0.0843899
0.0824845
0.08183
0.08147
0.0811896
0.0807012
0.080722
0.0803961
0.0810972
0.0808703
0.0813321
0.0818775
0.0816861
0.0762769
0.0823388
0.0832188
0.0820347
0.0808193
0.080736
0.0803371
0.0813521
0.0811766
0.0817273
0.0815726
0.0817936
0.0572288
0.0732537
0.0755819
0.0827344
0.0810672
0.0809371
0.0802727
0.0814166
0.0813868
0.0816885
0.0805581
0.0807953
0.0519496
0.0684066
0.0689568
0.0830203
0.0812945
0.0811896
0.0801774
0.0813075
0.0814038
0.0813712
0.0795624
0.0798084
0.0520974
0.0673674
0.0674722
0.082954
0.0814139
0.0813697
0.0800452
0.081072
0.0812593
0.0808984
0.0786375
0.0788615
0.0539626
0.067604
0.0674759
0.0826771
0.0813987
0.0814225
0.0799054
0.0807179
0.080997
0.0803141
0.0776805
0.0779667
0.0561541
0.0681914
0.0680679
0.0822138
0.0812857
0.0813461
0.0797408
0.0802481
0.0806144
0.0790407
0.0587329
0.0599753
0.0461274
0.031745
0.0319118
0.0569329
0.0797969
0.0803817
0.0816331
0.0811174
0.0812256
0.0795507
0.0797167
0.0801208
0.0781708
0.0574828
0.0584454
0.0448376
0.00440255
0.00402366
0.00679639
0.0451198
0.0447517
0.0569143
0.0789475
0.0795895
0.0809866
0.0808722
0.0809973
0.0793562
0.0791367
0.0795763
0.0772458
0.0561504
0.0571453
0.0438838
0.00503238
0.00454705
0.00795978
0.0453378
0.0451953
0.0566336
0.07808
0.0787305
0.0803201
0.0806135
0.0807437
0.0791489
0.0785258
0.0789874
0.0763564
0.0549197
0.0558307
0.0430377
0.00577741
0.00520998
0.00912682
0.045413
0.0453657
0.0562644
0.0772268
0.0778646
0.0796503
0.0803476
0.0804813
0.0789249
0.0778527
0.0783624
0.0754266
0.0538396
0.0546328
0.0423214
0.00661128
0.00598061
0.0102826
0.0454249
0.04542
0.0558747
0.0764011
0.0770175
0.0789849
0.0800743
0.080212
0.0786819
0.0771542
0.07768
0.0744777
0.0531356
0.0536206
0.0418575
0.00750999
0.00683217
0.0114144
0.0454087
0.0454226
0.0554926
0.0756086
0.0761998
0.0783286
0.0797928
0.0799348
0.0784194
0.0764442
0.0769773
0.0735442
0.0523952
0.0529627
0.0415181
0.00845467
0.00774205
0.0125135
0.0453821
0.0454027
0.0551296
0.0748513
0.0754159
0.0776851
0.0795025
0.0796489
0.0781392
0.0757367
0.0762662
0.0726486
0.051659
0.052212
0.0412306
0.00944795
0.00869415
0.0135683
0.045353
0.0453749
0.0547892
0.0741292
0.0746675
0.0770569
0.0792035
0.0793543
0.0778404
0.0750394
0.0755648
0.0718019
0.0510186
0.0514844
0.040903
0.010392
0.00968724
0.0145112
0.0453266
0.0453461
0.0544728
0.0734418
0.0739542
0.0764457
0.0788964
0.0790512
0.0775254
0.0743459
0.0748652
0.0709786
0.0504147
0.0508611
0.0405942
0.0114439
0.0106485
0.0154869
0.0453049
0.0453208
0.0541805
0.0727879
0.0732753
0.0758529
0.0785823
0.0787405
0.0771962
0.0736667
0.0741746
0.0701936
0.0498787
0.0502748
0.0403383
0.012508
0.0117111
0.0164352
0.0452836
0.0452991
0.0539059
0.0721652
0.0726295
0.0752788
0.0782623
0.0784233
0.0768552
0.0730056
0.0734997
0.0694471
0.0494013
0.0497543
0.0401272
0.0135629
0.012775
0.0173537
0.0452681
0.0452792
0.0536516
0.0715715
0.072014
0.074723
0.0779379
0.078101
0.0765045
0.0723642
0.0728434
0.0687379
0.0489746
0.0492902
0.0399531
0.0145959
0.0138248
0.0182415
0.0452583
0.0452651
0.0534169
0.0710064
0.0714277
0.0741863
0.0776101
0.0777748
0.076146
0.0717435
0.0722071
0.068064
0.0485917
0.048875
0.0398108
0.0156001
0.0148495
0.0190995
0.0452544
0.0452568
0.0532002
0.0704685
0.0708695
0.0736685
0.0772801
0.0774457
0.0757818
0.0711435
0.0715913
0.0674235
0.0482468
0.0485016
0.0396955
0.0165757
0.0158453
0.0199304
0.0452561
0.0452542
0.053
0.069956
0.070338
0.0731691
0.0769489
0.077115
0.0754143
0.0705649
0.0709969
0.0668153
0.0479369
0.0481662
0.0396055
0.0175253
0.016814
0.0207378
0.0452632
0.0452573
0.0528151
0.0694676
0.0698317
0.0726878
0.0766177
0.0767837
0.0750444
0.0700066
0.0704234
0.0662365
0.0476567
0.0478642
0.0395364
0.0184506
0.0177583
0.0215239
0.0452758
0.0452659
0.0526447
0.0690019
0.0693491
0.0722241
0.0762876
0.0764529
0.0746738
0.0694684
0.0698702
0.0656855
0.0474026
0.0475909
0.0394859
0.01935
0.0186786
0.0222889
0.0452934
0.0452797
0.0524874
0.0685576
0.0688889
0.0717774
0.0759592
0.0761235
0.0743036
0.0689498
0.069337
0.0651605
0.0471719
0.047343
0.0394513
0.0202195
0.0195715
0.0230317
0.0453156
0.0452985
0.0523422
0.0681335
0.0684497
0.0713472
0.0756335
0.0757964
0.073935
0.0684498
0.068823
0.0646599
0.0469616
0.0471175
0.0394303
0.0210563
0.0204327
0.023751
0.0453423
0.0453218
0.0522085
0.0677285
0.0680305
0.0709328
0.0753112
0.0754723
0.0735688
0.0679678
0.0683276
0.0641819
0.0467696
0.0469119
0.0394212
0.02186
0.0212604
0.0244471
0.0453733
0.0453496
0.0520853
0.0673415
0.0676301
0.0705336
0.0749927
0.0751518
0.073206
0.0675031
0.06785
0.0637251
0.0465943
0.0467241
0.0394233
0.0226333
0.0220556
0.0251218
0.0454086
0.0453817
0.0519722
0.0669716
0.0672475
0.0701492
0.0746786
0.0748354
0.0728708
0.0670778
0.0673895
0.063309
0.0464436
0.0465527
0.0394411
0.0233758
0.0228217
0.0257736
0.0454553
0.0454179
0.0518802
0.0666393
0.0668816
0.0698023
0.0743934
0.0745249
0.0320517
0.031881
0.0466858
0.0723265
0.0839536
0.083476
0.0836319
0.0857863
0.0879766
0.0831882
0.0852114
0.0835441
0.081935
0.081967
0.08147
0.0759922
0.0814713
0.0805201
0.0822827
0.082102
0.0793496
0.0781043
0.0805008
0.0703839
0.0824772
0.0828133
0.0824362
0.0825966
0.08286
0.0821919
0.0810427
0.0813102
0.0817485
0.0654742
0.0772739
0.0764298
0.0794133
0.0782955
0.0673534
0.0698954
0.0713131
0.0547031
0.0827651
0.0802809
0.079609
0.0818071
0.081048
0.0828114
0.0800591
0.0803106
0.0816319
0.0622963
0.0747481
0.0743086
0.0757832
0.0752398
0.0627667
0.0676715
0.0679784
0.0517444
0.0824396
0.0783802
0.0780734
0.0790854
0.0787196
0.0825329
0.0790893
0.0793228
0.081263
0.0614167
0.0732787
0.0730102
0.0739196
0.0735786
0.0615188
0.067384
0.0673437
0.0524617
0.0819396
0.077372
0.077207
0.0778025
0.0775692
0.0820735
0.067915
0.0677568
0.0545346
0.0814156
0.0768621
0.0767745
0.077071
0.0769582
0.0815447
0.0315927
0.0316664
0.0458817
0.00383193
0.0179781
0.0178702
0.0194792
0.019156
0.0053489
0.0443104
0.0315826
0.0319269
0.0306561
0.0311639
0.0439945
0.0225367
0.0152424
0.0150425
0.0781929
0.0784155
0.0807653
0.0613241
0.0723175
0.0720998
0.072766
0.0725372
0.0613323
0.0679323
0.0682547
0.0565231
0.0808454
0.076459
0.0760936
0.0766879