/*--------------------------------*- C++ -*----------------------------------*\
| =========                 |                                                 |
| \\      /  F ield         | OpenFOAM: The Open Source CFD Toolbox           |
|  \\    /   O peration     | Version:  5.x                                   |
|   \\  /    A nd           | Web:      www.OpenFOAM.org                      |
|    \\/     M anipulation  |                                                 |
\*---------------------------------------------------------------------------*/
FoamFile
{
    version     2.0;
    format      ascii;
    class       volScalarField;
    location    "3600";
    object      epsilon;
}
// * * * * * * * * * * * * * * * * * * * * * * * * * * * * * * * * * * * * * //

dimensions      [0 2 -3 0 0 0 0];

internalField   nonuniform List<scalar> 
6445
(
13.3632
13.3632
13.3639
13.3643
13.3647
13.3651
13.3654
13.3658
13.3661
13.3664
13.3665
13.3667
13.367
13.3673
13.3673
13.3669
13.3663
13.3658
13.3653
13.365
13.3646
13.3642
13.3641
13.3641
12.2873
12.2882
12.2885
12.2893
12.2905
12.2916
12.2923
12.2929
12.2934
12.2938
12.294
12.2944
12.2949
12.2953
12.2953
12.2948
12.2939
12.293
12.2923
12.2916
12.2906
12.2894
12.2889
12.2877
11.3322
11.3327
11.3335
11.3342
11.3358
11.3376
11.3387
11.3398
11.3406
11.3454
11.3451
11.3456
11.3465
11.3472
11.3479
11.3432
11.3411
11.3392
11.3376
11.3365
11.3355
11.3346
11.3334
11.3326
10.4809
10.4813
10.482
10.4829
10.484
10.4856
10.4873
10.4893
10.4953
10.8846
10.8896
10.8904
10.8919
10.8931
10.8941
10.5014
10.4924
10.4894
10.4872
10.4856
10.4846
10.4834
10.4822
10.4815
9.71935
9.71976
9.72046
9.72134
9.72239
9.72342
9.72515
9.72723
9.73712
10.0618
10.2605
10.2628
10.2665
10.2673
10.2679
9.75054
9.73568
9.7313
9.72824
9.72608
9.72397
9.72222
9.72092
9.72024
9.03551
9.036
9.03687
9.03793
9.03933
9.04069
9.0423
9.04481
9.05763
9.32968
9.5032
9.52481
9.55891
9.53701
9.51631
9.08254
9.06081
9.05326
9.04844
9.04467
9.04156
9.03932
9.03765
9.03673
8.41939
8.41996
8.42101
8.42241
8.42432
8.4266
8.42942
8.43406
8.45274
8.68475
8.84826
9.0713
10.1273
9.06996
8.87741
8.49346
8.45937
8.44591
8.43774
8.43183
8.42748
8.42439
8.42223
8.42091
7.86245
7.86308
7.86433
7.86608
7.86863
7.87199
7.87684
7.88517
7.91217
8.1254
8.36055
12.1696
10.6538
8.42331
7.97542
7.92235
7.90024
7.88727
7.87875
7.87282
7.86872
7.86595
7.86423
7.3575
7.35832
7.35981
7.36203
7.36527
7.36982
7.37685
7.38951
7.42602
7.63737
8.03382
19.5383
16.8426
8.17578
7.51591
7.4396
7.4075
7.38917
7.37776
7.37009
7.3649
7.36154
7.35936
6.89833
6.89932
6.9011
6.90373
6.90763
6.91327
6.92223
6.93867
6.98313
7.19728
7.73816
20.1279
18.9211
7.98155
7.09766
7.00058
6.95935
6.93627
6.92213
6.9129
6.90668
6.90275
6.90014
6.4796
6.48075
6.48267
6.48565
6.49007
6.49657
6.50687
6.52583
6.57536
6.78901
7.40396
17.6987
17.3073
7.71426
6.70889
6.59725
6.54921
6.52265
6.50635
6.49581
6.48873
6.4843
6.48124
6.09679
6.09805
6.1001
6.10328
6.10801
6.115
6.12584
6.14551
6.19707
6.40563
7.05187
15.1335
15.0395
7.38875
6.3413
6.2229
6.17154
6.14313
6.12547
6.11408
6.10634
6.10154
6.09808
5.74592
5.74724
5.7492
5.75231
5.75701
5.76394
5.77448
5.79324
5.8463
6.04352
6.69822
13.1129
13.0799
7.02736
5.9909
5.87325
5.82203
5.79346
5.77537
5.76362
5.75548
5.75046
5.74669
5.42352
5.42469
5.42627
5.42987
5.43457
5.44149
5.45212
5.47128
5.52024
5.70819
6.37857
11.8902
47.0575
11.7652
6.67162
5.66368
5.54915
5.49746
5.46996
5.45242
5.44091
5.43271
5.42761
5.42369
5.1265
5.12778
5.12982
5.13298
5.13759
5.14426
5.15453
5.17304
5.22032
5.39557
6.06326
10.7893
24.8859
10.5392
6.29714
5.35701
5.24753
5.19949
5.17202
5.1537
5.1428
5.13496
5.13005
5.1261
4.85261
4.85388
4.85596
4.85913
4.86363
4.87005
4.87989
4.89764
4.94294
5.10783
5.75218
9.76392
16.3674
9.52189
5.9456
5.07179
4.96795
4.9223
4.89597
4.87912
4.86795
4.85964
4.85509
4.85133
4.59953
4.60075
4.60285
4.60596
4.61034
4.61654
4.62597
4.64306
4.68663
4.84275
5.46032
8.86455
12.0557
8.65952
5.62102
4.80722
4.70871
4.66538
4.64037
4.62425
4.61343
4.60568
4.60091
4.59713
4.36523
4.36639
4.36845
4.3715
4.37575
4.38174
4.39084
4.40738
4.44951
4.59837
5.18251
8.06908
9.5132
7.91514
5.32126
4.56194
4.46825
4.42704
4.40329
4.38791
4.37752
4.37002
4.36531
4.36161
4.14791
4.14902
4.15104
4.15401
4.15814
4.16396
4.17276
4.18886
4.22977
4.37243
4.92654
7.36382
7.8555
7.26469
5.04345
4.33436
4.24502
4.20569
4.1831
4.16843
4.15846
4.15123
4.14663
4.14306
3.946
3.94707
3.94904
3.95195
3.95597
3.96162
3.97017
3.98589
4.02574
4.16291
4.68662
6.72982
6.69369
6.69153
4.78512
4.12295
4.03753
3.9999
3.97834
3.96433
3.95478
3.94781
3.94334
3.93996
3.75812
3.75915
3.76107
3.76391
3.76783
3.77334
3.78167
3.79708
3.83597
3.96805
4.45968
6.17206
5.8341
6.18321
4.54427
3.92627
3.84444
3.80833
3.78772
3.77429
3.76514
3.75844
3.75411
3.7509
3.58301
3.584
3.58589
3.58867
3.5925
3.59787
3.60601
3.62112
3.65913
3.78632
4.2444
5.68227
5.16792
5.73013
4.31928
3.74303
3.6645
3.62976
3.61
3.59713
3.58832
3.58189
3.57771
3.57469
3.41957
3.42053
3.42237
3.42509
3.42884
3.43409
3.44206
3.45689
3.49407
3.61652
4.04105
5.24774
4.62545
5.32449
4.10878
3.57203
3.49657
3.46309
3.4441
3.43173
3.42326
3.41709
3.41303
3.41019
3.2668
3.26773
3.26954
3.27219
3.27586
3.281
3.28881
3.30341
3.33981
3.45756
3.8493
4.86034
4.19207
4.96001
3.91161
3.41222
3.33965
3.30732
3.28904
3.27713
3.26897
3.26303
3.25911
3.25643
3.1238
3.12471
3.12649
3.1291
3.13271
3.13776
3.14543
3.15979
3.19539
3.30843
3.66823
4.51329
3.83048
4.63156
3.72685
3.26269
3.19281
3.16155
3.14391
3.13243
3.12456
3.11884
3.11505
3.11252
2.98982
2.99073
2.99247
2.99503
2.99857
3.00351
3.01103
3.02516
3.05995
3.16823
3.49734
4.20151
3.52372
4.33437
3.55355
3.12259
3.05529
3.02501
3.00795
2.99684
2.98922
2.98371
2.98004
2.97766
2.86408
2.86499
2.8667
2.86921
2.87267
2.87751
2.8849
2.89878
2.93275
3.03623
3.33615
3.92059
3.25987
4.06465
3.3908
2.99109
2.92626
2.89693
2.88042
2.86968
2.8623
2.85698
2.85341
2.85114
2.74593
2.74684
2.74851
2.75097
2.75437
2.75911
2.76636
2.78001
2.81316
2.91179
3.18417
3.66671
3.03035
3.81917
3.23783
2.86751
2.80506
2.77662
2.76063
2.75023
2.74309
2.73794
2.73448
2.73232
2.63478
2.63568
2.63733
2.63973
2.64306
2.64772
2.65483
2.66825
2.70055
2.79429
3.0409
3.43659
2.82878
3.59514
3.09397
2.75122
2.69107
2.66347
2.64796
2.63789
2.63096
2.62598
2.62263
2.62056
2.53009
2.53099
2.5326
2.53496
2.53822
2.54279
2.54978
2.56296
2.59438
2.68325
2.90585
3.2274
2.65028
3.39017
2.95857
2.64165
2.58373
2.55693
2.54188
2.53212
2.52539
2.52057
2.51732
2.51534
2.43138
2.43227
2.43386
2.43617
2.43937
2.44385
2.45071
2.46366
2.49418
2.57819
2.77855
3.03669
2.4911
3.20217
2.83106
2.53831
2.48254
2.45652
2.4419
2.43241
2.42588
2.42121
2.41805
2.41615
2.33821
2.3391
2.34065
2.34292
2.34606
2.35045
2.35718
2.3699
2.39949
2.47871
2.65853
2.86237
2.34824
3.02935
2.7109
2.44072
2.38705
2.36176
2.34755
2.33834
2.33199
2.32746
2.32439
2.32257
2.25017
2.25106
2.25258
2.25481
2.25788
2.26219
2.2688
2.28128
2.30993
2.38443
2.54536
2.70262
2.21933
2.87012
2.59758
2.34848
2.29684
2.27227
2.25843
2.24948
2.2433
2.2389
2.23592
2.23416
2.16691
2.16779
2.16928
2.17147
2.17448
2.1787
2.1852
2.19744
2.22512
2.29499
2.43859
2.55585
2.10242
2.72311
2.49065
2.26119
2.21154
2.18765
2.17418
2.16546
2.15945
2.15518
2.15228
2.15059
2.08811
2.08898
2.09045
2.09259
2.09554
2.09968
2.10606
2.11806
2.14475
2.21008
2.33783
2.42072
1.99591
2.5871
2.38968
2.17852
2.13081
2.10758
2.09447
2.08598
2.08012
2.07597
2.07315
2.07152
2.01465
2.01551
2.01695
2.01905
2.02195
2.02601
2.03228
2.04403
2.06968
2.12944
2.2427
2.29605
1.89849
2.46104
2.29427
2.10138
2.05559
2.03299
2.0202
2.01193
2.00622
2.00218
1.99944
1.99786
18.4059
28.2694
14.9895
20.4905
33.7274
31.1869
18.3855
28.8487
32.872
15.7375
22.7898
27.2876
13.5554
18.2198
21.4574
12.1879
80.4379
82.6913
15.5159
17.36
10.4381
9.96973
11.4321
9.19318
8.10667
11.4202
9.56866
142.385
63.5193
15.4249
8.50669
8.54151
7.81594
12.6453
11.9352
20.2298
54.6135
52.5261
142.728
159.179
18.9612
8.54971
8.5229
7.48985
12.1499
12.5987
19.6323
44.1846
49.6555
144.505
157.877
17.8298
8.39488
8.53265
7.14064
11.21
11.9341
17.034
27.5363
35.0458
70.0774
91.7747
15.603
8.08674
8.32916
38.4682
43.7488
13.519
7.69993
7.99476
25.2566
28.4415
11.0734
25.8281
43.9093
28.3975
13.4069
14.9531
49.2565
37.1079
16.7312
95.8037
96.6959
45.4321
85.994
154.433
140.754
24.5575
65.5391
92.203
51.4077
55.2531
20.5862
83.784
72.8616
94.7217
83.9207
158.592
141.319
34.0472
108.526
108.906
96.9798
108.777
33.0541
36.728
42.1698
19.0383
55.8276
44.672
70.865
57.9763
93.9199
143.589
30.3591
95.6797
67.4364
108.645
96.6685
31.7042
36.544
31.0285
43.2284
38.7719
45.5649
65.196
24.2231
43.5483
36.6389
65.0439
46.1748
25.7347
24.9681
22.4375
29.5256
25.975
29.8789
35.7923
34.7069
27.7377
20.267
19.7084
20.5668
21.7037
20.0243
25.3752
24.7871
14.4248
30.0366
21.8239
544.006
307.433
6.7861
10.263
10.9638
14.5668
20.9481
22.3266
50.1068
64.1072
12.0948
7.31467
7.59739
220.964
381.201
29.9915
47.5747
20.1908
23.8789
25.6134
16.375
123.889
81.4528
40.5141
36.1629
79.2211
58.3096
71.4925
92.1331
19.1864
25.7962
24.0867
34.7109
31.4538
22.606
21.3599
16.5991
21.8713
14.5667
34.4657
35.1536
15.7092
24.2589
541.278
120.346
369.664
149.983
315.551
92.735
153.786
149.817
149.228
150.668
71.5685
74.7157
41.4108
124.757
39.1302
40.5242
46.7158
38.5652
35.893
27.2577
371.44
100.688
284.961
259.591
282.46
104.748
247.264
188.344
74.5834
382.466
381.482
154.165
151.438
81.4919
79.3345
91.4147
89.3606
164.656
164.515
113.979
63.5901
64.1141
60.0885
61.9345
110.839
106.828
63.2113
61.4746
63.9334
64.0878
111.844
50.2468
48.846
65.2483
63.5613
139.766
140.008
80.2596
48.0605
50.2041
43.3693
45.7199
77.6873
103.679
56.2826
58.2245
52.2764
54.2798
102.692
122.726
34.5265
82.6214
123.846
54.6496
66.7221
32.6611
39.7092
123.236
41.148
51.9782
54.9222
57.8908
39.1067
41.1687
35.3735
37.1255
55.4912
50.3604
42.5695
28.2062
44.2855
51.968
34.6593
36.8235
27.0367
66.9294
53.2725
31.5342
58.9905
47.4034
116.87
64.302
33.5566
102.499
28.9944
31.4409
30.515
28.7261
35.3784
39.7409
1116.85
6.46073
9.58547
10.0495
12.7652
16.9824
17.709
38.8704
22.9113
24.1772
781.721
18.6485
19.7268
14.0403
115.484
99.5853
563.491
30.8467
31.0746
88.057
71.3004
36.875
38.6953
77.2367
48.0146
161.07
193.161
55.081
90.5512
54.5084
37.3548
37.4234
149.72
240.531
160.3
46.0982
33.2042
32.1142
35.1031
34.1814
47.9067
145.99
154.531
74.7842
87.0191
88.7346
100.854
26.1696
33.6318
31.9413
20.2572
19.6152
36.1233
61.8667
140.795
90.6332
156.192
241.658
239.752
78.0827
52.1637
48.8662
58.7873
55.8255
87.4705
53.126
36.7119
35.9442
37.544
37.2944
54.6477
84.3921
110
105.235
93.0963
95.8364
74.9671
104.037
106.234
85.3135
162.599
162.522
114.265
89.9837
89.0131
81.2204
83.0726
108.96
30.9718
29.8479
40.2545
53.6701
67.8939
71.4076
68.9172
87.9876
90.4007
74.6489
77.1723
60.0284
111.086
142.273
93.2478
63.6506
65.2476
53.1355
54.8941
70.4837
106.841
77.5113
79.3731
66.9285
68.6052
99.1747
47.5001
70.0773
65.0289
131.622
131.396
61.4253
41.0559
32.0792
33.6476
29.2437
30.5732
38.7538
24.0651
30.9651
32.7365
27.9751
29.3906
23.2076
63.5129
55.6091
21.0537
25.5675
26.6914
49.7733
60.4153
74.3308
90.6625
460.226
742.004
430.191
123.711
54.0972
122.258
100.606
121.559
58.5365
292.581
691.72
381.443
766.2
356.703
110.801
98.7854
113.83
115.351
39.0451
61.8575
80.7273
54.5347
58.5136
37.6685
71.3666
67.5574
69.6569
74.8477
33.4795
47.5216
50.5716
69.146
62.1295
437.698
243.788
226.184
270.884
262.127
439.447
152.208
155.578
147.284
153.273
66.6491
85.1662
129.842
66.0501
72.6979
56.2119
60.5765
127.629
81.4585
92.7259
65.3611
76.7876
41.8509
60.8381
57.4624
90.9299
66.1538
44.128
112.946
122.031
297.468
177.898
175.947
172.542
178.627
300.754
173.882
160.976
181.437
181.469
236.375
158.708
166.314
370.723
372.485
210.205
241.819
157.318
280.91
270.026
264.065
284.319
272.121
148.286
197.203
202.767
105.113
108.39
83.4385
152.139
152.669
133.573
152.262
149.476
146.963
152.412
149.899
77.0872
98.6715
101.847
160.14
152.901
156.755
158.703
138.994
133.189
149.755
141.432
87.2239
109.174
112.261
163.723
162.236
88.9724
90.3033
116.485
107.636
84.9262
87.0511
62.7772
64.9924
51.7672
91.0491
85.3952
123.708
96.0656
79.6104
72.2616
84.1859
80.6852
83.3872
85.6031
67.0846
141.517
137.971
145.778
142.693
133.194
128.069
137.104
133.738
61.7401
79.1754
81.2838
122.899
142.131
60.6803
62.2545
82.4862
74.2195
56.961
58.9745
73.8771
75.6782
106.09
100.184
70.3782
72.0956
122.925
101.31
47.0484
44.975
52.2355
49.6347
112.594
58.0245
40.0834
38.7106
43.3443
41.7174
62.3682
61.8984
68.8433
68.9582
63.0123
119.508
57.2732
54.6147
65.53
61.0408
121.755
100.535
87.0699
49.6023
134.004
130.934
98.6367
130.517
133.482
58.1416
132.221
110.382
47.7731
119.348
118.646
86.3559
115.37
45.1216
113.963
62.4235
117.57
57.3363
89.2585
48.7697
52.1388
43.5851
46.0619
70.472
127.559
127.353
55.5226
53.8343
58.91
51.1034
75.3672
69.3821
9.68434
8.59714
8.90222
16.0973
20.527
19.632
366.032
215.166
615.352
904.403
275.578
440.393
9.92074
11.6235
16.3478
36.916
37.2432
54.2662
144.808
186.26
185.401
145.038
156.981
26.6577
25.6986
33.4747
131.478
133.252
90.2155
60.9096
57.3245
42.1434
44.8068
36.3888
36.5137
109.996
108.267
99.9264
167.626
182.678
143.403
93.8931
115.849
112.007
160.066
184.28
184.037
141.96
98.3219
100.194
109.183
89.5272
90.7807
110.651
38.4678
28.7583
27.6969
54.8019
56.9945
46.1209
96.6563
129.094
129.734
142.32
94.6703
77.2975
78.2316
108.219
95.1041
96.6498
79.2177
80.1436
97.5248
41.9566
50.6225
52.5657
62.8313
50.0712
51.5431
32.9479
26.8489
27.9616
141.668
158.723
23.88
24.584
20.4547
116.391
126.327
30.6937
29.3334
24.0836
542.465
654.14
122.995
122.238
120.457
84.3562
76.9845
124.818
123.851
84.6283
90.4513
60.3442
123.144
123.008
85.7316
42.9465
45.1675
32.428
21.0046
30.6017
67.6411
561.281
436.263
339.271
318.48
380.588
383.317
201.684
171.241
249.42
184.787
184.76
155.269
150.756
159.44
166.453
148.793
151.812
101.481
96.169
69.4839
78.4473
121.931
110.794
125.888
130.25
80.1843
84.8772
128.301
130.855
130.759
40.5358
53.8124
50.6948
364.362
288.914
236.349
233.448
239.755
239.348
273.357
233.303
228.888
235.637
249.95
290.734
142.855
148.96
210.124
382.433
470.89
472.126
388.956
389.565
377.815
115.316
117.389
93.1217
225.362
222.248
164.405
163.742
92.9672
94.0823
101.865
112.345
92.0437
92.8077
47.4948
58.949
60.8326
137.122
140.88
87.4883
88.6207
104.598
101.908
85.2664
86.3056
121.46
86.3792
59.9378
58.4548
78.516
76.0246
123.326
47.6779
48.9835
40.7855
126.084
126.257
122.611
119.997
121.932
82.6028
80.437
125.361
119.961
47.0004
48.5364
60.465
53.4689
44.1762
45.4808
46.6552
35.0674
34.0191
37.4606
36.2722
49.3524
54.4729
39.3368
41.2907
36.0813
37.5336
50.5171
105.341
70.213
75.0714
114.887
125.681
128.498
100.564
98.9009
107.001
29.6787
38.805
40.7287
37.2596
37.3834
28.9993
130.735
142.93
56.0064
51.9387
38.0276
883.138
970.897
993.922
113.447
108.873
53.5486
54.0694
153.563
79.2371
104.136
106.432
105.64
104.535
74.1334
146.874
65.332
69.8288
97.9753
152.821
374.777
186.696
186.709
147.185
252.299
215.331
199.956
213.888
214.122
145.32
155.831
134.239
134.347
121.288
130.62
88.8251
134.593
135.059
87.7359
138.412
152.154
127.189
128.272
91.7932
241.277
200.699
203.657
196.598
197.726
240.251
161.358
146.927
185.159
196.207
109.241
102.248
104.579
131.394
128.981
102
142.373
75.6157
76.4034
93.9094
92.2985
93.6592
107.601
98.3226
81.152
82.1055
129.178
98.8391
108.616
89.47
93.0034
129.312
140.311
119.592
107.593
111.288
49.0667
69.874
71.2838
158.744
203.283
80.7337
152.445
128.418
170.078
184.913
87.9813
589.079
608.014
489.321
798.312
820.434
590.366
494.574
749.374
720.147
926.611
119.382
75.8124
80.1567
66.4963
71.093
112.174
121.515
99.0777
110.294
84.2579
89.5264
120.234
654.194
450.722
511.808
608.817
610.59
601.759
608.574
119.559
89.6823
119.411
121.355
114.292
115.018
55.0204
53.6421
76.9569
120.254
124.37
74.7953
119.16
119.759
121.576
63.5791
100.295
112.175
102.348
92.684
65.6537
123.004
125.433
118.037
121.601
80.3294
120.353
113.521
67.0728
107.268
106.682
103.52
106.748
65.0755
353.517
349.925
437.427
457.421
387.087
359.768
222.888
154.418
185.236
186.099
213.319
213.753
212.098
211.819
148.2
152.671
131.646
130.897
133.59
132.853
67.86
92.6358
89.7678
133.952
129.207
82.0277
132.995
105.467
117.648
128.263
89.3703
95.0972
85.6595
133.271
129.915
130.559
132.639
88.9805
68.1508
99.4062
92.7979
122.013
109.788
72.0843
133.266
84.6003
59.7823
62.6452
120.197
122.515
370.862
246.428
241.42
293.556
303.72
246.707
248.929
241.147
237.895
173.021
174.049
166.469
246.48
244.058
463.292
468.625
377.287
627.015
396.67
470.754
458.952
219.471
197.391
197.715
204.856
202.858
242.453
291.184
279.708
270.759
320.58
320.097
289.695
322.044
268.839
286.061
321.044
334.275
288.416
152.147
152.519
138.284
174.69
174.414
184.443
152.775
148.902
148.086
151.762
151.002
158.802
191.325
191.787
189.755
190.769
156.12
154.098
172.887
172.238
193.264
177.761
154.509
220.991
229.664
136.709
179.976
181.974
175.664
177.888
134.58
146.678
186.557
188.373
183.723
185.229
143.975
163.791
162.703
88.6196
120.613
119.413
123.529
122.226
86.6227
115.327
119.804
122.4
104.429
77.7441
125.063
125.761
113.968
121.402
75.5585
83.032
125.012
124.463
125.26
125.088
81.9779
140.104
138.62
144.329
143.589
132.344
131.346
135.991
134.593
131.898
141.732
105.396
89.8065
91.0091
83.184
84.1805
101.089
120.723
65.3143
62.2615
91.9052
120.063
73.1264
69.1945
123.711
125.058
61.0463
81.5891
83.6162
66.3207
94.2619
103.22
85.9897
89.1504
64.2847
120.177
122.003
90.3566
85.6895
120.424
111.835
100.153
94.6904
67.1412
69.7231
63.0787
64.9837
90.6035
133.406
131.448
108.435
132.45
130.133
121.201
129.327
82.425
86.3063
73.5168
77.9331
121.966
120.192
73.9359
71.2746
78.3311
75.9883
119.642
95.9131
60.4094
57.3347
68.3179
64.3177
107.44
116.995
121.755
116.926
121.068
122.008
116.3
86.3929
81.5505
108.453
96.4174
118.469
63.2888
66.1237
95.5454
123.27
126.651
110.232
104.52
55.5993
87.0669
97.0975
74.2183
78.8503
52.8682
104.883
105.374
128.577
149.18
1334.05
925.788
1431.23
1239.54
1540.89
211.908
261.372
240.273
220.084
106.655
111.309
293.34
260.062
117.303
125.285
176.086
177.734
179.347
181.606
544.974
847.629
1224.83
189.415
193.134
205.348
197.679
183.716
183.288
186.679
281.782
291.702
465.831
416.615
250.003
269.834
9.68549
9.68142
10.2613
9.68308
9.69283
10.2622
9.69537
9.71001
10.2652
9.71318
9.70602
10.2666
9.70519
9.69646
10.2658
9.69493
9.70032
10.0714
8.99492
8.98687
9.49959
8.99993
9.0771
9.51918
9.12434
9.44593
9.55376
9.4987
9.19202
9.54094
9.13594
9.03974
9.5202
9.02302
9.02729
9.35222
8.39466
8.41443
8.83093
8.46403
9.15858
8.97454
9.12348
9.54964
9.2332
12.7682
11.1142
9.75268
9.08014
8.92466
8.98771
8.51486
8.45699
8.72947
7.87376
7.97004
8.2931
8.2678
8.44269
8.48559
12.1526
9.68548
9.2727
8.22424
7.9898
8.21199
7.4126
7.58863
7.87207
7.96237
8.37064
8.38641
17.9437
11.825
11.345
8.03513
7.59578
7.78694
6.99014
7.21448
7.49517
7.65709
8.20008
8.26065
18.66
12.473
12.4988
7.78704
7.23169
7.41165
6.59537
6.84578
7.1217
7.31691
7.89533
7.97954
16.7501
11.9027
12.0993
7.47422
6.87523
7.05179
6.22315
6.48685
6.75497
6.96307
7.5296
7.6237
14.5001
10.9702
11.2114
7.11997
6.51842
6.69475
5.87381
6.15327
6.39898
6.61618
7.16151
7.24541
12.6737
10.0534
10.2721
6.76417
6.16541
6.33843
5.54908
5.83695
6.07128
6.14408
8.95594
9.41717
11.6467
14.9107
15.378
10.8239
6.89378
7.21225
6.38909
5.83332
5.99965
5.24886
5.53176
5.75859
5.82822
8.29717
8.78413
10.0072
15.4904
22.3489
17.9382
11.7425
12.9526
9.75983
6.48966
6.79003
6.03092
5.51296
5.66893
4.97261
5.24886
5.45888
5.53248
7.69809
8.14281
9.07904
10.6769
13.967
12.9134
10.4096
11.3827
8.8629
6.11608
6.39341
5.69972
5.21624
5.3606
4.71811
4.98659
5.18126
5.24969
7.14502
7.55567
8.25899
8.04906
9.87924
10.0436
9.31191
10.116
8.09164
5.77131
6.02732
5.39403
4.94256
5.07588
4.48322
4.74498
4.92447
4.989
6.63405
7.01367
7.53246
6.45133
7.57818
8.21282
8.38953
9.06667
7.4195
5.45211
5.68922
5.11099
4.68991
4.81316
4.26573
4.51894
4.68709
4.74532
6.15139
6.51073
6.87965
5.40121
6.14883
6.9502
7.60348
8.18147
6.82831
5.15575
5.37599
4.848
4.45614
4.57034
4.06375
4.30651
4.46462
4.51526
5.72152
6.03903
6.30544
4.66822
5.19415
6.02742
6.9264
7.42488
6.30476
4.88001
5.08496
4.60295
4.23929
4.34535
3.87559
4.1062
4.25536
4.29731
5.33354
5.6208
5.79888
4.13073
4.51859
5.32012
6.33824
6.77169
5.83867
4.62308
4.81408
4.37412
4.0376
4.13636
3.7
3.91716
4.05776
4.09077
4.97921
5.24209
5.35157
3.7061
4.01624
4.74808
5.8236
6.20321
5.42182
4.38345
4.56161
4.16012
3.84961
3.94175
3.53573
3.73908
3.87165
3.89622
4.65692
4.89588
4.95319
3.3886
3.61907
4.29287
5.37056
5.70497
5.04753
4.15976
4.32608
3.95971
3.67398
3.76012
3.38181
3.57097
3.69615
3.71253
4.36245
4.58081
4.59655
3.13099
3.31951
3.91518
4.96978
5.26583
4.71058
3.95092
4.10619
3.77192
3.50961
3.59029
3.23725
3.41213
3.53042
3.53914
4.09323
4.29288
4.2764
2.91545
3.07363
3.59599
4.61315
4.87675
4.40596
3.75583
3.90091
3.59585
3.35561
3.43124
3.10124
3.26204
3.37381
3.37556
3.84684
4.02958
3.98815
2.73114
2.86674
3.32232
4.29437
4.53013
4.12969
3.57336
3.70907
3.43054
3.21101
3.28207
2.97309
3.12017
3.22582
3.22133
3.62104
3.78854
3.72783
2.57066
2.689
3.08489
4.0082
4.21995
3.87842
3.40256
3.5296
3.27519
3.07502
3.14188
2.85219
2.98608
3.08594
3.07593
3.41383
3.56758
3.49205
2.42879
2.53363
2.87684
3.75029
3.94122
3.64927
3.24258
3.36158
3.12911
2.94697
3.00995
2.73798
2.8593
2.95372
2.93887
3.22335
3.36471
3.27788
2.30175
2.39578
2.69297
3.517
3.68979
3.43974
3.09264
3.20419
2.99166
2.82624
2.88565
2.62999
2.73942
2.8287
2.80967
3.04794
3.17815
3.08275
2.18681
2.27197
2.52926
3.30524
3.46215
3.24768
2.952
3.05664
2.86223
2.71229
2.76838
2.52777
2.62604
2.71048
2.68788
2.88614
3.00627
2.90451
2.08194
2.15972
2.38257
3.11242
3.25535
3.07122
2.81999
2.91822
2.74028
2.60463
2.65764
2.43093
2.51878
2.59867
2.57303
2.73661
2.84765
2.74128
1.98563
2.05711
2.25036
2.93631
3.0669
2.90873
2.69599
2.78827
2.62529
2.50282
2.55296
2.33911
2.41727
2.49288
2.4647
2.59818
2.70101
2.5914
1.89668
1.96273
2.13061
2.77501
2.89466
2.75878
2.57942
2.66617
2.51681
2.40644
2.45392
2.25198
2.32117
2.39275
2.36248
2.46979
2.56518
2.45347
1.81421
1.87548
2.02164
2.62689
2.7368
2.62014
2.46975
2.55138
2.41438
2.31513
2.36013
2.16924
2.23016
2.29795
2.26597
2.35054
2.43916
2.32629
1.73747
1.79451
1.92206
2.49054
2.59175
2.49167
2.36648
2.44335
2.31762
2.22857
2.27123
2.09202
2.14531
2.20816
2.1762
2.24082
2.32206
2.20989
1.66627
1.71911
1.8313
2.36612
2.45814
2.37392
2.27073
2.34162
2.22768
2.14794
2.18693
15.8578
16.4405
12.5092
14.9951
10.7673
9.44558
9.53078
10.5053
12.1796
9.39512
9.93222
9.3616
8.39929
8.4158
8.18392
10.8038
9.00796
9.16099
8.77196
8.87068
10.1464
10.7896
10.2138
13.8117
8.50054
8.97574
9.13613
8.76428
8.84625
8.5102
8.31064
8.3467
7.89032
12.5612
9.49785
9.52678
9.30517
9.42134
12.3182
12.4123
12.1909
18.681
8.55092
9.59896
9.68744
9.30733
9.46766
8.53996
8.05899
8.13273
7.57423
12.3383
9.39879
9.3171
9.5093
9.46359
12.4908
12.2659
12.3935
18.2913
8.45103
9.68889
9.63417
9.72765
9.72046
8.49741
7.71653
7.80729
7.229
11.4571
8.99964
8.87862
9.22131
9.11471
11.7005
11.4517
11.6842
16.1763
8.17358
9.35863
9.24119
9.55869
9.46564
8.25499
10.4987
10.7315
13.992
7.80064
8.85119
8.71598
9.11564
8.98496
7.89914
13.9486
14.4253
11.3671
30.2907
18.8552
18.0691
20.5068
21.6728
32.9072
13.8909
17.1869
16.4672
18.7806
17.9588
14.4067
19.3227
22.9245
23.4762
7.33998
7.43485
6.87441
10.4879
8.49993
8.37396
8.75363
8.62692
10.722
9.71925
9.8465
12.3114
7.38974
8.31159
8.22551
8.58004
8.44428
7.49328
28.4116
36.9644
38.0798
36.4824
48.4706
46.1712
7.00532
7.0942
6.54434
9.76087
8.07247
7.96142
8.25007
8.14718
9.88053
62.916
64.0337
59.1396
112.932
101.72
65.7772
9.02427
8.92437
9.23607
8.67762
8.76464
8.73824
8.93386
8.83328
8.78039
124.277
150.239
160.841
171.485
216.09
211.968
190.19
135.785
210.354
200.362
214.162
215.319
142.758
10.4583
10.4717
10.8905
10.4708
10.4717
10.8902
10.4723
10.4735
10.8909
10.4748
10.4749
10.8919
10.4758
10.4745
10.8925
10.4769
10.4641
10.8885
10.0621
10.0615
10.2601
10.0659
10.0656
10.2623
10.0718
10.0703
10.2653
10.0718
10.0691
10.2657
10.0707
10.0608
10.2616
9.32948
9.33377
9.50497
9.36788
9.38391
9.53233
9.4374
9.42607
9.55458
9.3822
9.36793
9.52849
9.34345
9.32535
9.50046
8.70825
8.74278
8.87077
8.74311
8.7103
8.85098
8.34577
8.24948
8.34936
8.13033
7.92059
7.99514
7.92095
7.62446
7.70022
7.63721
7.30316
7.38553
7.30085
6.95536
7.04312
6.93356
6.5922
6.68243
6.30532
6.84477
6.91784
11.4372
9.32983
9.52788
6.57688
6.24533
6.33413
5.98347
6.49006
6.57884
10.5192
13.0596
13.4943
22.0884
18.419
19.4227
10.2676
8.58714
8.76427
6.20676
5.89774
5.98163
5.67729
6.14845
6.23172
9.52842
11.4879
11.8575
15.037
15.1008
15.8376
9.29352
7.93153
8.08797
5.86198
5.57573
5.65323
5.38812
5.82519
5.90551
8.65653
10.1487
10.4637
11.3023
12.6343
13.1875
8.46345
7.34909
7.48859
5.54387
5.27927
5.35076
5.11739
5.51229
5.58738
7.88483
9.00881
9.27672
9.03598
10.7541
11.1799
7.74448
6.82696
6.95239
5.24986
5.00569
5.07183
4.86518
5.21627
5.28849
7.1993
8.03873
8.26691
7.5282
9.2869
9.62198
7.1147
6.35585
6.46926
4.97713
4.75229
4.81368
4.62872
4.94344
5.01003
6.58497
7.21063
7.40538
6.4556
8.11862
8.38738
6.55879
5.929
6.03187
4.72335
4.51675
4.57392
4.40485
4.68595
4.74898
6.04316
6.50302
6.66833
5.65269
7.17203
7.39116
6.06509
5.541
5.6346
4.48659
4.2972
4.35056
4.19237
4.44205
4.50191
5.5689
5.89943
6.04252
5.02248
6.3929
6.57434
5.62454
5.18752
5.27287
4.26535
4.09212
4.14202
3.99207
4.21296
4.26885
5.14679
5.37597
5.50028
4.50921
5.7431
5.89489
5.22972
4.86479
4.94277
4.05828
3.90015
3.9469
3.80305
3.99784
4.05037
4.77001
4.91897
5.02754
4.09572
5.19563
5.32421
4.87474
4.56968
4.64097
3.86428
3.72021
3.76407
3.62457
3.79578
3.8451
4.43222
4.51849
4.61382
3.74918
4.7289
4.83893
4.55449
4.29943
4.36482
3.6825
3.55145
3.59259
3.45616
3.60621
3.65247
4.12854
4.1657
4.24984
3.45411
4.32729
4.42228
4.2645
4.05132
4.1114
3.51191
3.39291
3.4316
3.29731
3.42847
3.47183
3.85472
3.85342
3.92804
3.19955
3.9788
4.06149
4.00112
3.82313
3.87842
3.35167
3.24377
3.28018
3.14756
3.2619
3.30253
3.60707
3.57568
3.64216
2.97756
3.67415
3.74664
3.76125
3.61292
3.66389
3.20104
3.10335
3.13765
3.00638
3.10579
3.14387
3.38243
3.32763
3.3871
2.78216
3.40605
3.46999
3.5422
3.41893
3.46599
3.05935
2.97103
3.00336
2.87332
2.9595
2.99519
3.17807
3.1052
3.15861
2.60881
3.16865
3.2254
3.34165
3.23962
3.28315
2.92598
2.84623
2.87673
2.74788
2.82237
2.85583
2.99165
2.90497
2.9531
2.45396
2.95731
3.00793
3.15761
3.07361
3.11394
2.80035
2.72844
2.75724
2.62961
2.69377
2.72515
2.82113
2.72409
2.76763
2.31479
2.76822
2.81359
2.98833
2.91968
2.9571
2.68194
2.61718
2.6444
2.51808
2.5731
2.60256
2.66476
2.5602
2.5997
2.18904
2.59828
2.63912
2.83227
2.77673
2.81149
2.57027
2.51203
2.53776
2.41285
2.45982
2.48748
2.52103
2.41124
2.44718
2.07487
2.4449
2.48181
2.68812
2.64377
2.67612
2.46486
2.41257
2.43691
2.31353
2.35339
2.37938
2.38861
2.27548
2.30827
1.97075
2.30594
2.33943
2.55469
2.51992
2.55007
2.36532
2.31843
2.34147
2.21975
2.25333
2.27778
2.26639
2.15144
2.18142
1.87542
2.17962
2.2101
2.43097
2.4044
2.43253
2.27125
2.22927
2.25109
9.86898
9.85693
9.66706
10.2552
10.0526
10.0622
9.68362
9.86932
9.86952
9.8752
9.87143
9.68735
10.2607
10.0626
10.0653
9.69846
9.8771
9.87632
9.88406
9.88029
9.70448
10.2634
10.0674
10.0703
9.71109
9.88465
9.8862
9.88376
9.88316
9.70705
10.2656
10.0701
10.0713
9.69983
9.88032
9.88396
9.87962
9.87853
9.69622
10.2649
10.0682
10.0695
9.68048
9.86738
9.87965
9.15154
9.13131
8.96561
9.48336
9.30397
9.32275
9.0143
9.17004
9.16164
9.20726
9.18622
9.04077
9.51098
9.34357
9.35626
9.19474
9.26382
9.23075
9.36277
9.31218
9.30688
9.5439
9.40691
9.42783
9.39319
9.35057
9.3835
9.27104
9.30336
9.27052
9.54558
9.40622
9.39309
9.09085
9.2206
9.24562
9.19019
9.20121
9.05846
9.52194
9.35651
9.35096
9.00031
9.15875
9.17872
8.54501
8.51413
8.37663
8.80837
8.6578
8.68375
8.54872
8.63444
8.58004
8.9503
8.73888
8.72637
8.91176
8.806
8.91595
8.4587
8.57969
8.62206
8.07209
8.00455
7.89099
8.24684
8.12311
8.17942
8.0732
8.15746
8.28023
7.68217
7.56985
7.46729
7.78146
7.67481
7.77652
7.77361
7.84614
8.08395
7.30761
7.16599
7.06821
7.36604
7.26568
7.4012
7.46715
7.54566
7.85577
6.93719
6.77912
6.68552
6.97072
6.87504
7.02917
7.13191
7.21702
7.55705
6.57543
6.40833
6.31901
6.59162
6.50014
6.66485
6.77484
6.86413
7.21118
6.23688
6.06199
5.97796
6.22944
6.14344
6.31463
6.42357
6.50009
6.83958
5.91622
5.73807
5.65903
5.89559
5.81699
5.99509
6.66867
6.75869
6.22555
9.12958
7.66226
7.54741
7.85291
7.76882
9.28979
8.94707
9.13563
11.123
6.9991
7.82679
7.69463
8.09644
7.96122
7.10559
6.06865
6.15544
6.4824
5.60564
5.42877
5.35597
5.58089
5.50362
5.68106
6.31622
6.4025
5.9052
8.45491
7.20765
7.09889
7.43258
7.31921
8.61646
12.2422
12.6426
10.2588
17.3291
15.7723
15.0596
17.2847
16.5159
19.5725
16.6325
17.4909
19.8151
12.1226
14.5787
14.0265
15.7953
15.1671
12.5252
8.24924
8.41555
10.0081
6.58788
7.31443
7.19333
7.5651
7.43836
6.68802
5.73344
5.8141
6.11798
5.31796
5.1471
5.08006
5.28501
5.21513
5.38704
5.98559
6.06651
5.60482
7.84336
6.78291
6.68063
6.99194
6.88665
7.99157
10.7915
11.1327
9.30024
11.6032
13.1291
12.5554
14.3808
13.7373
12.6872
13.7803
14.4167
13.8979
10.7178
12.5582
12.123
13.5076
13.019
11.0417
7.63204
7.77963
9.07406
6.20666
6.84639
6.7359
7.07502
6.95941
6.29909
5.42448
5.49886
5.78001
5.05023
4.8874
4.82575
5.01457
4.95032
5.11504
5.66397
5.74506
5.31817
7.27922
6.3817
6.28394
6.57976
6.48014
7.41605
9.55573
9.84623
8.45475
8.58117
11.0273
10.5767
12.0149
11.5061
9.18644
11.6335
12.1173
10.6362
9.56802
10.9519
10.6012
11.7113
11.3216
9.83575
7.08113
7.21332
8.27431
5.85498
6.41876
6.31753
6.62786
6.52217
5.9403
5.13981
5.20851
5.46821
4.8039
4.64795
4.59079
4.76538
4.7061
4.86368
5.36211
5.43673
5.05303
6.75867
5.9995
5.90264
6.18816
6.09379
6.885
8.50434
8.75149
7.70604
6.7865
9.37691
9.02224
10.1526
9.75313
7.16
9.97705
10.3538
8.60461
8.60609
9.64875
9.36102
10.2678
9.95068
8.8316
6.5855
6.70469
7.57933
5.52968
6.02638
5.93327
6.21844