/*--------------------------------*- C++ -*----------------------------------*\
| =========                 |                                                 |
| \\      /  F ield         | OpenFOAM: The Open Source CFD Toolbox           |
|  \\    /   O peration     | Version:  5.x                                   |
|   \\  /    A nd           | Web:      www.OpenFOAM.org                      |
|    \\/     M anipulation  |                                                 |
\*---------------------------------------------------------------------------*/
FoamFile
{
    version     2.0;
    format      ascii;
    class       volScalarField;
    location    "3600";
    object      k;
}
// * * * * * * * * * * * * * * * * * * * * * * * * * * * * * * * * * * * * * //

dimensions      [0 2 -2 0 0 0 0];

internalField   nonuniform List<scalar> 
6445
(
3.22606
3.22606
3.22615
3.2262
3.22626
3.22632
3.22636
3.22641
3.22645
3.22648
3.22651
3.22653
3.22659
3.22664
3.22664
3.22658
3.22651
3.22643
3.22636
3.2263
3.22625
3.2262
3.22618
3.22618
3.08532
3.08545
3.08549
3.0856
3.08577
3.08592
3.08602
3.08611
3.08618
3.08624
3.08629
3.08636
3.08645
3.08652
3.08652
3.08643
3.08629
3.08614
3.08603
3.08593
3.08578
3.08561
3.08555
3.08538
2.95556
2.95564
2.95575
2.95585
2.95607
2.95634
2.95651
2.95666
2.95681
2.95777
2.95777
2.95791
2.95806
2.95814
2.95822
2.95728
2.95693
2.95662
2.95637
2.9562
2.95604
2.95592
2.95575
2.95562
2.83559
2.83565
2.83576
2.83589
2.83606
2.8363
2.83655
2.83688
2.83801
2.89348
2.89456
2.8948
2.89508
2.8952
2.89524
2.83908
2.83747
2.83695
2.83658
2.83632
2.83616
2.83596
2.83579
2.83568
2.72439
2.72445
2.72456
2.7247
2.72487
2.72504
2.72533
2.72573
2.7277
2.77642
2.80577
2.80646
2.8072
2.80714
2.80688
2.73008
2.72724
2.7264
2.72585
2.72548
2.72513
2.72484
2.72464
2.72453
2.62105
2.62114
2.62128
2.62145
2.62169
2.62193
2.62223
2.62279
2.62555
2.66875
2.69622
2.70132
2.70849
2.70341
2.69835
2.63015
2.62572
2.62418
2.62327
2.62259
2.62206
2.62168
2.62141
2.62125
2.52481
2.52491
2.52508
2.52533
2.52566
2.52607
2.52663
2.52767
2.53184
2.57109
2.59991
2.64874
2.85677
2.64758
2.60508
2.53975
2.53249
2.52967
2.52807
2.52698
2.5262
2.52566
2.52529
2.52506
2.43496
2.43507
2.43529
2.4356
2.43606
2.43669
2.43766
2.4395
2.44566
2.48455
2.53196
2.94188
2.86705
2.54415
2.45855
2.44687
2.44215
2.43954
2.4379
2.43681
2.43606
2.43557
2.43527
2.35091
2.35107
2.35133
2.35174
2.35234
2.35322
2.35465
2.35745
2.36594
2.40764
2.48939
3.07693
3.10605
2.52017
2.38501
2.36774
2.36075
2.35696
2.3547
2.35323
2.35226
2.35165
2.35125
2.27213
2.27232
2.27265
2.27314
2.27389
2.275
2.27687
2.28055
2.29116
2.33641
2.4439
2.92887
3.05825
2.49895
2.3163
2.29371
2.28452
2.27961
2.27673
2.27491
2.27371
2.27296
2.27247
2.19814
2.19836
2.19873
2.1993
2.20017
2.20149
2.20368
2.20804
2.22022
2.26808
2.38682
2.73388
2.91111
2.45956
2.25046
2.22369
2.21269
2.20689
2.20347
2.20133
2.19992
2.19905
2.19846
2.12852
2.12877
2.12917
2.1298
2.13076
2.13221
2.13459
2.13927
2.15241
2.20154
2.32302
2.55585
2.75451
2.40522
2.18606
2.15673
2.14461
2.13823
2.13442
2.13203
2.13045
2.12948
2.12879
2.06291
2.06317
2.06357
2.0642
2.06518
2.06667
2.06906
2.07376
2.08778
2.13647
2.2564
2.41281
2.62205
2.34115
2.12253
2.09229
2.07978
2.07316
2.06914
2.06661
2.0649
2.06386
2.06309
2.00095
2.00119
2.00152
2.00227
2.00327
2.0048
2.00729
2.0122
2.0259
2.07451
2.19131
2.2867
1.45144
2.50651
2.27416
2.06138
2.03084
2.01788
2.01129
2.00727
2.00471
2.00294
2.00185
2.00103
1.94233
1.9426
1.94303
1.94371
1.94472
1.94624
1.94871
1.95364
1.96741
2.0146
2.12464
2.15418
1.18071
2.3813
2.20127
2.00227
1.97203
1.9595
1.95276
1.94848
1.94598
1.94423
1.94315
1.9423
1.88686
1.88713
1.88758
1.88828
1.88929
1.89079
1.89324
1.89814
1.91191
1.95779
2.05779
2.02786
1.04662
2.26125
2.13033
1.94575
1.91606
1.90374
1.89709
1.89302
1.89041
1.88851
1.88749
1.88665
1.83429
1.83455
1.83502
1.83572
1.83673
1.83822
1.84064
1.84554
1.85932
1.90391
1.99294
1.91188
0.969253
2.15048
2.06279
1.89192
1.8628
1.85072
1.84421
1.84021
1.83761
1.8358
1.8347
1.83384
1.7844
1.78466
1.78513
1.78584
1.78684
1.78831
1.79072
1.79564
1.80946
1.85273
1.93035
1.80699
0.919788
2.04908
1.99863
1.84073
1.81216
1.80029
1.79392
1.79001
1.78745
1.78565
1.78454
1.78368
1.73699
1.73725
1.73772
1.73843
1.73943
1.74089
1.74329
1.74826
1.76211
1.80397
1.87044
1.71242
0.885442
1.95627
1.93762
1.79205
1.764
1.7523
1.74607
1.74224
1.73972
1.73795
1.73683
1.73599
1.6919
1.69215
1.69263
1.69333
1.69433
1.69579
1.69819
1.7032
1.71708
1.75739
1.81276
1.62895
0.859765
1.87113
1.87951
1.74571
1.71816
1.70662
1.70051
1.69675
1.69428
1.69253
1.69142
1.6906
1.64896
1.64921
1.64968
1.65038
1.65138
1.65284
1.65525
1.66032
1.6742
1.7128
1.75728
1.55476
0.839289
1.79285
1.82409
1.70156
1.6745
1.66309
1.65709
1.6534
1.65097
1.64925
1.64815
1.64736
1.60803
1.60827
1.60874
1.60945
1.61044
1.61191
1.61433
1.61945
1.63329
1.67003
1.70403
1.48579
0.821463
1.72066
1.77118
1.65944
1.63288
1.62159
1.61568
1.61205
1.60967
1.60797
1.60688
1.60612
1.56897
1.56921
1.56968
1.57039
1.57138
1.57285
1.57528
1.58046
1.59422
1.62893
1.65299
1.42237
0.802903
1.65393
1.72066
1.61923
1.59317
1.58199
1.57616
1.57259
1.57024
1.56857
1.56749
1.56676
1.53166
1.5319
1.53237
1.53307
1.53407
1.53554
1.53799
1.54323
1.55686
1.58942
1.60409
1.36391
0.78905
1.59209
1.67238
1.58078
1.55525
1.54416
1.5384
1.53488
1.53256
1.53093
1.52986
1.52916
1.49599
1.49623
1.4967
1.49741
1.49841
1.49989
1.50236
1.50764
1.5211
1.55139
1.55731
1.31035
0.776478
1.53464
1.62626
1.544
1.519
1.508
1.5023
1.49883
1.49654
1.49493
1.49388
1.4932
1.46186
1.46211
1.46259
1.46329
1.4643
1.46578
1.46827
1.47359
1.48681
1.51475
1.51258
1.26112
0.764835
1.48115
1.58216
1.50877
1.48433
1.47342
1.46777
1.46433
1.46207
1.46048
1.45944
1.45879
1.42918
1.42943
1.42991
1.43062
1.43162
1.43311
1.43562
1.44096
1.4539
1.47943
1.46983
1.21572
0.753867
1.43124
1.53998
1.47498
1.45113
1.44031
1.4347
1.4313
1.42907
1.4275
1.42647
1.42584
1.39785
1.39811
1.39859
1.39929
1.4003
1.40179
1.40431
1.40968
1.42229
1.44536
1.42897
1.1737
0.74343
1.38458
1.49962
1.44255
1.4193
1.40858
1.40302
1.39965
1.39744
1.39589
1.39487
1.39426
1.3678
1.36806
1.36853
1.36924
1.37025
1.37174
1.37428
1.37966
1.39189
1.41248
1.38994
1.13472
0.733456
1.34088
1.46099
1.41139
1.38877
1.37814
1.37262
1.36929
1.3671
1.36557
1.36456
1.36396
1.33894
1.33921
1.33968
1.34039
1.3414
1.34289
1.34545
1.35082
1.36263
1.38075
1.35264
1.09847
0.723916
1.29986
1.424
1.38142
1.35946
1.34892
1.34344
1.34014
1.33797
1.33646
1.33546
1.33488
1.31122
1.31148
1.31196
1.31267
1.31367
1.31517
1.31774
1.3231
1.33445
1.35011
1.317
1.06465
0.714783
1.26131
1.38855
1.35258
1.33129
1.32086
1.31541
1.31214
1.30998
1.3085
1.30751
1.30693
1.28456
1.28483
1.2853
1.28601
1.28702
1.28852
1.2911
1.29644
1.30728
1.32053
1.28293
1.03303
0.706008
1.225
1.35459
1.3248
1.3042
1.29388
1.28847
1.28522
1.28308
1.28161
1.28063
1.28007
1.2589
1.25917
1.25965
1.26036
1.26137
1.26287
1.26546
1.27076
1.28106
1.29195
1.25035
1.0034
0.697524
1.19075
1.32203
1.29802
1.27813
1.26792
1.26254
1.25932
1.2572
1.25574
1.25477
1.25422
1.2342
1.23448
1.23495
1.23566
1.23667
1.23818
1.24077
1.24603
1.25576
1.26435
1.21918
0.975557
0.689273
1.1584
1.2908
1.2722
1.25302
1.24293
1.23759
1.23439
1.23228
1.23084
1.22988
1.22934
1.21042
1.21069
1.21117
1.21187
1.21288
1.21439
1.21699
1.22219
1.23132
1.23767
1.18934
0.949346
0.681225
1.1278
1.26083
1.24728
1.22884
1.21887
1.21356
1.21038
1.20829
1.20687
1.20592
1.20539
1.18798
1.18826
1.18873
1.18944
1.19044
1.19196
1.19456
1.19969
1.20819
1.21189
1.16078
0.924632
0.67337
1.09881
1.23206
1.22372
1.20604
1.19619
1.19092
1.18775
1.18568
1.18426
1.18332
1.1828
3.08374
3.51756
3.20506
2.97525
3.37237
3.52002
2.7822
3.0858
3.30171
2.59679
2.8307
3.01625
2.44578
2.64723
2.77846
2.31815
1.18683
1.39917
2.51498
2.61205
2.83649
2.8279
3.00124
2.67428
2.49931
2.79955
2.71894
5.59729
5.03075
3.07871
2.57736
2.56992
2.45646
2.76862
2.80399
3.05305
3.4972
3.66162
3.70755
4.56725
3.08621
2.58393
2.58153
2.40192
2.66606
2.74604
2.88071
2.9385
3.13295
2.52481
2.9349
2.95117
2.55488
2.58007
2.33935
2.54886
2.63688
2.68588
2.61948
2.68661
2.2392
2.34615
2.79226
2.49959
2.54294
2.17493
2.26198
2.65251
2.43129
2.48333
2.20348
2.19412
2.1867
0.978574
1.23889
1.23011
2.37528
2.48147
3.6798
3.61789
3.06453
4.55045
4.16194
4.28262
4.57166
4.72424
5.47395
3.47149
4.40199
4.42423
3.20302
3.4259
3.01831
3.51751
3.081
4.08682
3.59184
2.96814
3.65905
3.43918
3.79686
3.17964
4.32765
3.88373
3.49052
2.72996
2.88174
2.83153
2.71042
2.54536
3.03119
2.73713
2.36184
2.50398
3.15774
2.66252
2.54247
3.14031
2.6861
3.23034
2.29882
2.24648
2.52778
2.32367
2.26269
2.24919
2.88806
2.5298
2.47949
2.52184
2.55044
2.94999
2.17361
2.13333
2.22931
2.1887
2.19172
2.1765
2.46593
2.52082
2.72985
2.04462
1.897
2.11895
2.0722
2.06426
2.18286
3.01924
3.57544
3.43897
8.33728
8.60366
2.2732
2.4377
2.52025
2.51716
2.41139
2.45622
1.77196
1.78736
2.53697
2.35927
2.41305
7.22741
7.497
3.91369
4.18074
3.3668
2.50537
2.55923
2.64017
2.00242
1.85189
1.71796
1.70401
1.8349
1.78664
1.79841
1.89313
2.6862
2.48796
2.45964
1.70441
1.6988
2.43487
2.41441
2.57934
4.13
3.37091
4.12276
4.51277
3.60101
4.32545
8.03946
5.58084
7.48271
6.47169
7.39601
5.3904
4.09006
4.1795
2.70195
2.73115
2.32787
2.31993
2.17058
2.05154
2.26451
1.77583
1.77468
1.93864
1.94166
2.19908
5.71761
4.46718
4.69545
5.6014
4.57621
4.34594
5.67057
5.74311
4.54309
7.25889
5.91361
5.09065
5.18951
3.30153
3.24321
3.86475
3.79532
3.20812
3.24845
3.49381
3.69795
3.78444
3.53428
3.61558
3.42417
4.20443
4.00544
4.05813
3.86471
3.9406
4.11883
2.63943
2.61144
2.89084
2.84705
2.3386
2.35906
2.59227
3.11333
3.17587
3.00375
3.05484
2.56318
2.90574
3.38156
3.45665
3.24187
3.31051
2.87588
2.00975
2.28142
1.90748
2.04509
1.87854
1.90241
2.26115
2.47303
2.05515
2.34682
2.25785
2.25477
2.48481
2.91071
2.9539
2.83159
2.86923
2.48115
1.73403
1.72241
2.21698
1.85911
1.86626
1.92672
1.93389
2.20074
1.76683
1.74584
2.18486
1.86089
1.85976
2.02027
1.86897
2.18182
1.92936
1.65461
1.57189
1.69855
1.67802
1.78531
1.75947
12.956
2.20803
2.3357
2.41145
2.38079
2.26263
2.29697
1.36166
2.01572
2.04521
11.4064
2.33203
2.37027
2.48051
1.79502
1.71966
1.3803
1.55715
1.54169
1.67205
1.5894
1.71883
1.72538
6.18092
5.22244
6.83895
7.75325
5.72877
6.51452
3.56124
3.39427
3.34937
3.84994
4.33384
4.42231
3.00011
3.01118
2.96481
3.1064
3.05822
3.0652
2.59624
2.84673
2.23576
2.30352
1.71116
1.78929
2.20102
1.94733
1.9458
1.86642
1.82997
1.13247
4.44892
5.42846
5.00633
4.84992
4.71694
4.42181
4.48333
4.1428
4.14858
4.10125
4.1316
4.48514
3.2754
3.20509
3.15492
3.30394
3.25466
3.34984
3.43526
3.30036
3.42893
2.89422
2.9529
3.13319
3.53831
3.62237
3.66014
3.05743
3.42331
3.67322
3.78383
3.86301
3.41199
3.46756
3.30587
2.91971
2.87707
2.82819
2.69024
2.47434
2.48358
2.98253
2.78252
2.8378
2.50336
2.53846
2.76787
2.36477
2.43996
2.59322
2.95216
2.99103
2.79309
2.81144
2.55371
3.03386
3.30686
3.35879
3.0312
3.07301
2.76333
2.2592
2.09292
2.08912
2.26122
2.2233
2.2508
2.51142
2.7648
2.79511
2.70896
2.73411
2.49453
2.16145
1.90838
1.91631
1.88861
1.89796
2.1462
1.47062
1.44207
2.10664
1.87439
1.88122
1.50412
1.48801
1.63686
1.69686
8.88559
11.2961
9.0252
1.90955
1.77067
1.91713
1.81269
1.92581
1.77887
7.56045
9.46853
8.47332
9.20835
7.66209
1.95415
1.91851
1.8264
1.80529
1.71102
1.63662
1.69388
1.59743
1.6122
1.7037
1.79922
1.795
1.82088
1.83187
1.70362
1.57828
1.58943
1.57167
1.53146
7.06871
6.62735
6.68993
6.31186
6.49769
6.85691
3.90006
4.30785
2.62173
2.81516
2.31174
2.29409
2.10825
1.97488
1.97663
1.97148
1.97339
2.08988
2.01125
2.05759
1.99642
2.0054
1.7844
1.69586
1.67336
1.7726
1.71136
1.7806
1.84044
1.89064
5.09016
4.98576
4.85482
5.19969
5.10384
5.22318
4.40533
4.27484
4.69492
4.53652
5.78269
5.31632
5.26283
6.70066
6.51773
5.21684
4.81686
4.96902
5.06219
5.76838
6.16662
5.18438
5.63429
5.29338
5.46434
5.3174
3.14496
3.21588
3.36485
3.01008
2.89391
3.26249
3.04787
2.72292
2.63319
2.85957
2.75772
3.18698
3.01479
3.07843
3.88156
3.70221
4.21215
3.96354
3.45596
3.31794
3.65109
3.50245
3.72652
3.70301
3.78507
3.08602
3.38309
3.64158
3.70798
3.56998
3.35868
3.524
3.5816
2.42781
2.45522
2.66569
2.29193
2.24277
2.24155
2.29508
2.16362
2.16716
2.22561
2.17845
2.67836
2.72988
2.93579
2.48998
2.40957
2.60399
2.51606
2.29124
2.2429
2.38548
2.3139
2.80682
2.58224
2.6291
2.35026
2.41929
2.87884
2.91268
2.62948
2.55332
2.82956
2.8483
3.20827
3.25689
3.0001
2.79001
3.11604
3.16167
2.03983
1.9641
2.05375
2.0533
2.05049
2.05096
1.99618
1.88754
2.04785
2.04606
2.04776
2.04794
1.89101
2.16319
2.07325
2.17743
2.17411
2.0753
2.07039
2.06209
2.05839
2.06802
2.08926
2.12702
2.07711
2.25879
2.17246
2.20452
2.07941
2.15845
2.22438
2.24808
2.21312
2.14955
1.72448
1.86184
1.88584
1.72027
1.83921
1.72039
1.83326
1.75194
1.88755
1.74889
1.91284
1.9782
1.97399
1.98898
1.98117
1.88208
2.02369
2.03326
1.41899
1.39442
1.52447
1.5116
1.57805
1.62194
2.77108
2.57352
2.61075
2.54706
2.38694
2.36144
10.204
8.32886
11.1951
12.8134
9.16781
10.5886
2.82098
3.08249
3.48491
3.47757
3.43676
3.6193
3.75456
3.59951
3.54583
2.54624
2.90529
2.75975
2.72485
2.64498
2.33111
2.31648
2.33009
2.08107
2.07491
2.26309
3.67213
3.55813
3.51559
4.22304
4.28814
4.24608
5.64186
5.58463
5.38236
4.01136
4.05608
4.14868
3.00013
3.49221
3.44097
3.60304
3.25512
3.28239
3.21983
3.93022
3.99477
3.96009
2.77711
2.83572
2.79727
2.3364
2.34874
2.56254
2.37562
2.36433
2.34818
2.48115
2.639
2.79469
2.8166
3.1032
3.19956
3.22747
2.83871
2.86184
2.71076
2.51118
2.31764
2.32904
2.50153
2.74944
2.76999
2.45431
2.66066
2.6828
1.6646
1.63662
1.852
1.86828
2.09261
1.67972
1.67665
1.93617
1.94815
2.18494
8.58268
8.75591
1.99138
1.97835
1.98268
1.87035
1.82018
1.96495
1.97276
1.79796
1.82187
1.79185
2.00325
1.99162
1.86699
1.55664
1.56513
1.69975
3.97549
4.51987
5.5408
7.66719
7.44541
7.2229
7.29286
6.28777
6.46781
6.65475
6.55271
7.1874
3.95703
3.89901
4.01497
4.24945
4.21765
4.1134
2.67178
2.75778
2.2425
2.23259
2.32768
2.30579
2.25883
2.24724
2.07737
2.09636
1.92909
1.94312
2.07224
2.10718
2.11753
2.26323
2.07579
2.07909
5.53429
4.82392
4.95405
4.84789
5.56139
5.465
5.50602
4.06263
3.98349
4.7236
4.53693
4.42291
5.3676
5.34045
5.79822
7.07027
7.24681
7.43357
6.11112
5.86959
6.10442
3.86868
3.95719
3.93794
3.90684
3.83626
3.16851
3.29144
4.19051
4.25584
4.27011
4.03671
4.05861
4.12485
2.58633
2.37112
2.39863
2.32962
2.37922
3.03544
3.06213
2.93594
2.84587
2.98358
3.00983
2.01625
1.92289
1.95145
1.94561
1.95525
1.94592
2.03213
2.28465
2.30164
2.49144
2.08064
2.06957
2.15243
2.13626
2.06273
1.98362
1.96918
2.05741
2.04641
2.71684
2.73011
2.48818
2.47217
2.68567
2.70134
1.85838
2.03504
2.03283
2.04028
2.03773
1.85877
1.85695
2.00375
1.99575
2.01708
2.01048
1.85698
1.97426
1.91495
1.92006
1.9756
2.02495
2.06111
1.39745
1.37349
1.69224
1.6986
1.55435
1.55497
1.53385
1.54882
1.69322
1.59226
1.63568
1.6474
1.64401
1.76804
11.3955
11.9304
11.058
1.77845
1.75453
1.38379
1.38289
1.24589
1.63529
1.73688
1.75613
1.72569
1.73033
1.60951
1.47162
1.54791
1.56419
6.65554
7.49553
9.52434
3.71025
3.65367
3.80124
4.22213
4.33756
4.50049
4.18661
4.26718
2.56986
2.87673
2.22273
2.23456
2.20952
2.21439
2.31421
2.30308
2.29005
1.72381
1.90654
1.9129
1.91035
1.89589
1.74999
4.61563
4.76967
4.84832
4.60646
4.69273
4.51725
3.02918
3.53031
3.39567
3.34699
3.26152
3.30908
3.33519
2.38919
2.37659
2.37812
2.45864
2.75025
2.77277
2.6153
3.14413
3.17186
3.06798
2.73651
2.88491
2.90934
2.24491
2.18182
2.19323
2.15437
2.16885
2.23346
1.58702
1.51547
1.67703
1.68006
1.49606
1.51537
1.52745
1.75589
1.91233
1.65452
1.77227
1.7002
1.90304
1.8697
1.6753
9.29189
9.08622
8.74968
9.83892
11.2736
10.3569
10.0924
10.2305
10.4792
11.0357
1.89663
1.75395
1.77095
1.73432
1.74207
1.86389
1.95154
1.8564
1.90421
1.79233
1.81864
1.9321
9.60288
8.67937
8.77279
8.31673
8.01031
8.7925
8.57942
1.97547
1.89153
1.98812
2.00478
1.82012
1.81368
1.66564
1.65717
1.67359
1.93118
1.95276
1.80705
1.92463
1.91795
1.94343
1.79433
1.85656
1.90171
1.89181
1.85256
1.81204
1.96639
1.98827
1.9339
1.9534
1.84664
1.97196
1.94119
1.55606
1.71254
1.72014
1.67886
1.70037
1.54202
6.99351
7.12282
7.26975
6.57731
6.62424
6.84799
3.83252
3.95433
3.83611
3.77109
4.03351
4.10769
3.91325
3.97375
2.64597
2.78507
2.2716
2.28132
2.24905
2.26137
2.32121
2.2197
2.20789
2.27727
2.2655
2.29748
2.29616
2.01428
2.05411
2.08242
1.96159
1.98428
2.02193
2.14041
2.12092
2.16019
2.15136
2.03832
2.00101
2.01738
1.99349
2.09357
2.05072
2.00373
2.13802
1.74584
1.72234
1.72759
1.86734
1.88298
5.30678
5.15063
5.05137
4.95511
5.34499
5.35829
5.25161
4.24045
4.14387
4.2432
4.32119
4.33829
4.44625
4.34084
6.79072
7.02375
6.88954
7.6385
6.28008
6.26481
6.55793
5.10047
5.14572
5.23492
4.9333
5.03317
4.90906
4.77415
4.94132
5.8947
5.83837
5.68985
6.17894
5.96843
6.02077
5.31643
5.53603
5.33006
5.43236
2.9697
2.9302
3.19006
3.0455
3.08478
3.00736
3.08346
2.69169
2.66203
2.82627
2.79251
3.81393
3.67827
3.7461
3.55083
3.61292
3.75626
4.14408
4.07719
4.16372
3.80803
3.96908
4.0641
3.76936
3.68472
3.41029
3.22414
3.27149
3.1308
3.17781
3.36542
3.60058
3.4323
3.49146
3.32095
3.37372
3.55091
3.1276
3.33765
2.27667
2.24917
2.26716
2.21792
2.23281
2.26071
2.26457
2.28247
2.29555
2.2808
2.15818
2.12791
2.14003
2.11655
2.11918
2.15617
2.20937
2.18856
2.20331
2.15566
2.17257
2.19244
2.46387
2.43628
2.57362
2.54324
2.27202
2.25243
2.36261
2.33842
2.32956
2.39965
2.96723
3.08907
3.11661
2.93321
2.95847
2.81737
2.02299
1.95007
1.95323
1.94142
2.01531
1.94091
1.94472
2.10206
2.09193
2.15078
2.05064
2.06245
2.18394
2.1006
2.1053
2.07653
2.0902
2.18219
2.12342
2.11189
2.01197
1.99809
2.06899
2.04032
2.02269
2.10771
2.14556
2.14772
2.13717
2.14095
2.09015
2.18305
2.19248
2.10543
2.19049
2.17127
2.13931
2.19868
2.13754
2.14237
2.14472
2.1393
2.1807
1.87409
1.70498
1.69256
1.73658
1.72006
1.88133
1.75776
1.67465
1.67165
1.68251
1.6773
1.80679
1.85237
1.89862
1.87904
1.91357
1.9082
1.88903
1.7775
1.75518
1.85357
1.81008
1.90539
1.90508
1.91065
1.93828
2.00397
2.04169
1.47096
1.43285
1.52048
1.60317
1.64891
1.5459
1.56886
1.51693
1.67801
1.6759
1.63132
1.71706
15.4604
13.5536
14.8444
14.8014
16.3035
1.53763
1.52338
1.71708
1.71776
1.37755
1.39567
1.37478
1.62689
1.56154
1.58578
1.64908
1.64293
1.63385
1.62379
11.2799
12.9309
13.9559
1.57748
1.55507
1.72307
1.73652
1.67697
1.60863
1.59372
1.62565
1.64147
1.31412
1.79198
1.68869
1.7166
2.72151
2.72188
2.80568
2.72251
2.72481
2.80621
2.72553
2.72868
2.80699
2.72927
2.72764
2.80717
2.72721
2.72504
2.80677
2.72439
2.72416
2.77812
2.61836
2.61911
2.69519
2.62215
2.63903
2.69992
2.64948
2.7171
2.70749
2.72759
2.66353
2.70454
2.65117
2.63005
2.69947
2.62617
2.62441
2.67285
2.52639
2.5343
2.59585
2.54559
2.67519
2.62764
2.6687
2.751
2.68322
3.26603
3.03028
2.78802
2.65963
2.62628
2.62973
2.55521
2.53885
2.57975
2.4451
2.47071
2.51676
2.52008
2.55512
2.55861
2.95882
2.74442
2.69962
2.52426
2.46953
2.50234
2.37154
2.41465
2.45668
2.47909
2.53945
2.54528
3.11423
2.86025
2.84576
2.50569
2.41155
2.43975
2.30205
2.35531
2.40025
2.43053
2.49777
2.51066
3.02576
2.83872
2.85306
2.47096
2.35634
2.38394
2.23478
2.29279
2.33993
2.37131
2.43572
2.45246
2.87081
2.75192
2.77672
2.41986
2.29922
2.32793
2.16901
2.22864
2.27686
2.30653
2.36477
2.38289
2.71844
2.64656
2.67296
2.35787
2.23856
2.26897
2.10541
2.16584
2.21247
2.24021
2.29217
2.3098
2.59257
2.54454
2.56974
2.29175
2.17559
2.20672
2.04427
2.10329
2.14998
2.14162
2.22887
2.30959
2.25252
2.11434
2.15285
2.41247
2.27934
2.33993
2.21943
2.11399
2.14535
1.98583
2.04077
2.08746
2.07433
2.12238
2.20198
2.05857
0.80269
0.92189
1.07306
2.23693
2.33976
2.29045
2.19972
2.25918
2.14776
2.05201
2.08245
1.9305
1.98066
2.0255
2.00903
2.02049
2.09636
1.93981
0.712221
0.774481
0.985248
2.11123
2.20424
2.17727
2.12371
2.18035
2.07935
1.99283
2.02185
1.878
1.92308
1.96601
1.94571
1.9251
1.996
1.83221
0.66246
0.696994
0.930393
1.99847
2.08188
2.07359
2.05168
2.10533
2.01437
1.93665
1.96423
1.82806
1.86785
1.90907
1.8852
1.83666
1.90234
1.73515
0.634496
0.653989
0.893035
1.89716
1.97213
1.97871
1.98345
2.03427
1.9526
1.88329
1.90952
1.78042
1.81462
1.85436
1.82698
1.75698
1.8158
1.64914
0.618936
0.629768
0.865596
1.80578
1.87344
1.89174
1.91876
1.96695
1.89378
1.83252
1.85751
1.73486
1.76329
1.80161
1.77094
1.68264
1.73803
1.57241
0.610668
0.616338
0.844041
1.723
1.78432
1.81182
1.85737
1.90311
1.8377
1.78412
1.80797
1.69119
1.7138
1.75074
1.71712
1.61313
1.66484
1.5027
0.607269
0.609287
0.825721
1.64769
1.70351
1.73817
1.79907
1.84251
1.78418
1.73789
1.76069
1.64927
1.66617
1.70173
1.66555
1.54893
1.59653
1.43783
0.60318
0.60631
0.806689
1.57892
1.62992
1.67013
1.74368
1.78496
1.73308
1.69366
1.71548
1.60898
1.62031
1.65454
1.61612
1.48907
1.53354
1.37804
0.605139
0.603318
0.792378
1.5159
1.56266
1.60712
1.69103
1.73027
1.68425
1.65127
1.6722
1.57022
1.57622
1.60913
1.56881
1.43354
1.4748
1.32331
0.608063
0.605848
0.779526
1.4579
1.50095
1.54861
1.64097
1.67828
1.63759
1.61062
1.63071
1.5329
1.53384
1.56547
1.52358
1.38194
1.42029
1.27305
0.611025
0.608859
0.767679
1.40438
1.44412
1.49417
1.59335
1.62884
1.593
1.57162
1.5909
1.49692
1.49312
1.52351
1.48033
1.33391
1.36961
1.22673
0.613575
0.611747
0.756557
1.35484
1.39164
1.4434
1.54802
1.58181
1.55036
1.53415
1.55268
1.46223
1.45401
1.48319
1.43901
1.2891
1.32242
1.18391
0.615477
0.614122
0.745993
1.30886
1.34303
1.39596
1.50483
1.53702
1.50955
1.49812
1.51594
1.42876
1.41647
1.44448
1.39953
1.24722
1.27836
1.1442
0.616689
0.615827
0.735905
1.26607
1.29788
1.35154
1.46368
1.49436
1.47049
1.46345
1.4806
1.39646
1.38042
1.40732
1.36181
1.20803
1.23718
1.10729
0.617269
0.616865
0.72626
1.22616
1.25584
1.30988
1.42444
1.4537
1.4331
1.43007
1.44659
1.36529
1.34582
1.37164
1.32576
1.17126
1.19862
1.07289
0.61729
0.617307
0.717031
1.18884
1.2166
1.27073
1.387
1.41492
1.39727
1.39792
1.41383
1.33518
1.3126
1.33739
1.2913
1.1367
1.16242
1.04074
0.616785
0.617217
0.708174
1.15386
1.17988
1.23388
1.35126
1.37791
1.36295
1.36695
1.38228
1.30611
1.28071
1.30451
1.25835
1.10417
1.12839
1.01063
0.615736
0.616589
0.699624
1.12102
1.14546
1.19913
1.31713
1.34258
1.33004
1.33709
1.35187
1.27802
1.25008
1.27293
1.22684
1.07348
1.09633
0.98236
0.614138
0.615403
0.691318
1.09012
1.11312
1.16632
1.2845
1.30883
1.29848
1.30829
1.32255
1.25088
1.22066
1.24261
1.19668
1.04448
1.06608
0.955753
0.612018
0.613661
0.683218
1.06099
1.08267
1.13529
1.2533
1.27657
1.26821
1.28052
1.29427
1.22466
1.19239
1.21348
1.16781
1.01704
1.03748
0.930676
0.609446
0.611411
0.675313
1.03348
1.05396
1.10591
1.22345
1.24572
1.23914
1.25372
1.26699
1.19991
1.1658
1.1855
1.1407
0.991413
1.01041
0.907295
0.606534
0.608736
0.667669
1.00786
1.02685
1.0785
1.19546
1.21618
1.21185
1.22847
1.24067
2.19096
2.2249
2.34853
3.20045
2.92187
2.72887
2.74371
2.91744
3.18118
2.71688
2.82722
2.71782
2.54944
2.55244
2.50939
2.78458
2.63272
2.63944
2.6109
2.62267
2.75751
2.82116
2.78665
3.03004
2.57323
2.64956
2.66703
2.61473
2.63112
2.57023
2.5221
2.53173
2.46817
2.78701
2.6328
2.62236
2.64178
2.63945
2.79925
2.86245
2.86544
3.10666
2.58534
2.69778
2.69882
2.68161
2.69203
2.58441
2.4685
2.48366
2.4165
2.6943
2.57587
2.5571
2.60885
2.59322
2.72112
2.79989
2.82079
2.9898
2.56514
2.67811
2.6653
2.69551
2.68827
2.57362
2.40081
2.41845
2.35545
2.57791
2.49568
2.4743
2.53726
2.51672
2.60732
2.69962
2.72606
2.83106
2.51502
2.61509
2.59586
2.65023
2.63334
2.52958
2.59501
2.62057
2.68451
2.4491
2.53481
2.51394
2.57589
2.55549
2.46647
2.04008
2.07707
2.21938
1.04742
1.78929
1.74633
1.94233
1.98015
1.2894
2.41105
2.26418
2.22831
2.33186
2.29907
2.44664
2.028
1.81662
1.82626
2.3282
2.34653
2.28991
2.46461
2.40945
2.38792
2.45271
2.43106
2.49213
2.49714
2.51939
2.56363
2.37537
2.44988
2.43133
2.49285
2.47147
2.39434
1.65215
1.51477
1.51587
1.77509
1.64248
1.64913
2.25686
2.27526
2.22477
2.3613
2.32609
2.30484
2.36651
2.34601
2.38626
1.44508
1.4617
1.45506
1.64802
1.61001
1.61086
2.66034
2.63524
2.69787
2.58176
2.6011
2.60391
2.61797
2.60631
2.5944
1.54701
1.59636
1.63367
1.803
1.91088
1.88121
1.8655
1.65748
1.81351
1.77223
1.86446
1.84596
1.68717
2.83327
2.8358
2.89459
2.83582
2.83605
2.89468
2.83629
2.83655
2.89491
2.83677
2.83676
2.89507
2.83679
2.83653
2.89508
2.83673
2.83431
2.89417
2.77737
2.77734
2.80572
2.77846
2.77847
2.80639
2.77968
2.77939
2.80699
2.77941
2.77886
2.80682
2.7787
2.77684
2.8057
2.6707
2.67183
2.69679
2.67949
2.68302
2.70302
2.69412
2.69176
2.7076
2.68191
2.67881
2.70155
2.67305
2.66956
2.69532
2.57963
2.58757
2.60509
2.58597
2.57902
2.59961
2.53569
2.5146
2.5279
2.51608
2.47337
2.4825
2.49073
2.43452
2.44495
2.44709
2.38633
2.39923
2.38993
2.32876
2.34372
2.324
2.26452
2.28083
2.17525
2.22041
2.23838
2.47533
2.44469
2.47133
2.25599
2.2002
2.21706
2.10773
2.14465
2.16366
2.12183
1.96657
2.00311
1.13904
1.8664
1.90412
2.35052
2.33758
2.36411
2.18325
2.13266
2.1492
2.04136
2.06984
2.08835
1.99781
1.82851
1.8616
1.02352
1.72689
1.75983
2.23266
2.2351
2.26011
2.11312
2.06793
2.08372
1.97693
1.99724
2.01521
1.88464
1.70613
1.73523
0.954947
1.60788
1.63581
2.12427
2.13943
2.1627
2.04644
2.00643
2.02144
1.91515
1.92738
1.94449
1.78243
1.59898
1.62443
0.910127
1.50685
1.53061
2.02511
2.05053
2.07214
1.9831
1.94796
1.96226
1.85582
1.86109
1.87737
1.69039
1.50516
1.52748
0.878392
1.42043
1.44083
1.9343
1.96788
1.98799
1.92283
1.89225
1.9059
1.79869
1.79749
1.81313
1.6092
1.42304
1.44261
0.85425
1.3458
1.36349
1.85095
1.89098
1.90969
1.86541
1.83907
1.85211
1.74375
1.73682
1.75171
1.53737
1.35565
1.37159
0.83469
1.28071
1.29619
1.77426
1.8193
1.83675
1.81063
1.78822
1.8007
1.69108
1.6792
1.69329
1.46935
1.2937
1.30914
0.816885
1.22338
1.23709
1.70349
1.7524
1.7687
1.75834
1.73957
1.75152
1.64057
1.62437
1.63782
1.40726
1.23603
1.2501
0.799299
1.17232
1.18448
1.63803
1.68986
1.7051
1.70839
1.69296
1.70441
1.5922
1.57227
1.58504
1.35008
1.18334
1.19601
0.785811
1.12678
1.13771
1.57734
1.63131
1.64559
1.66065
1.6483
1.65928
1.54594
1.52283
1.53495
1.29766
1.13571
1.14719
0.773505
1.08577
1.09563
1.52091
1.57642
1.58982
1.61505
1.6055
1.61603
1.50171
1.47592
1.48742
1.24943
1.09244
1.10288
0.762045
1.04861
1.05757
1.46835
1.52488
1.53747
1.57144
1.56446
1.57456
1.45944
1.4314
1.44232
1.20491
1.05294
1.06249
0.75121
1.01473
1.02292
1.41928
1.47642
1.48826
1.52973
1.52508
1.53477
1.41904
1.38915
1.3995
1.16368
1.01672
1.02548
0.740885
0.983699
0.991212
1.37339
1.4308
1.44195
1.48981
1.48728
1.49658
1.38045
1.34903
1.35887
1.12541
0.983419
0.991488
0.731022
0.955149
0.96207
1.33038
1.38778
1.3983
1.45159
1.45098
1.45991
1.34358
1.31093
1.32027
1.08979
0.952717
0.960168
0.721593
0.928788
0.935187
1.29
1.34718
1.35711
1.41499
1.41611
1.42469
1.30834
1.27471
1.28359
1.05655
0.924319
0.931216
0.712563
0.904367
0.910303
1.25203
1.30879
1.31819
1.37993
1.3826
1.39085
1.27464
1.24026
1.24871
1.02545
0.897982
0.904387
0.703871
0.881666
0.887193
1.21625
1.27247
1.28136
1.34632
1.3504
1.35833
1.24242
1.20747
1.21552
0.996277
0.873481
0.879447
0.695448
0.860493
0.865654
1.18249
1.23805
1.24648
1.3141
1.31944
1.32706
1.2116
1.17624
1.1839
0.968858
0.850621
0.856192
0.687245
0.840679
0.845513
1.15059
1.2054
1.2134
1.28319
1.28966
1.29699
1.18209
1.14646
1.15378
0.943032
0.829238
0.834452
0.679239
0.82209
0.826629
1.1204
1.17439
1.182
1.25353
1.261
1.26806
1.15383
1.11806
1.12504
0.918671
0.809205
0.814091
0.671431
0.804615
0.808884
1.0918
1.14492
1.15215
1.22505
1.23342
1.24021
2.74922
2.74695
2.71918
2.80453
2.77535
2.77716
2.72278
2.74967
2.7496
2.75098
2.75018
2.72364
2.8059
2.77763
2.77818
2.72628
2.75163
2.75138
2.75306
2.75231
2.72755
2.80664
2.77885
2.77941
2.72885
2.75315
2.75345
2.75283
2.7528
2.72799
2.80699
2.77929
2.77949
2.72604
2.75188
2.75267
2.7515
2.75142
2.72518
2.80665
2.77862
2.77877
2.72166
2.74886
2.75117
2.64365
2.63977
2.61491
2.69213
2.66553
2.66907
2.62549
2.648
2.64598
2.65609
2.65152
2.63119
2.69816
2.67401
2.67677
2.66482
2.66863
2.66138
2.68941
2.67886
2.68855
2.70545
2.68786
2.69221
2.70629
2.68676
2.69359
2.6696
2.67678
2.68063
2.70571
2.68758
2.68456
2.64143
2.65843
2.66384
2.65162
2.65421
2.63438
2.70006
2.67629
2.6749
2.62158
2.64498
2.64892
2.55343
2.54683
2.52609
2.59125
2.56853
2.57395
2.56439
2.57383
2.56147
2.63985
2.59657
2.60071
2.61402
2.6015
2.62535
2.54296
2.56012
2.56927
2.48523
2.47017
2.45311
2.50656
2.48799
2.5005
2.49209
2.50264
2.52927
2.42879
2.40425
2.38835
2.43658
2.42039
2.44278
2.45467
2.46394
2.5113
2.37048
2.34039
2.32444
2.37245
2.35648
2.38548
2.41164
2.4232
2.48133
2.30862
2.27602
2.25997
2.30832
2.29229
2.32434
2.35854
2.3725
2.43382
2.24476
2.21135
2.19533
2.24368
2.22763
2.26085
2.29727
2.31299
2.37414
2.1818
2.14856
2.13292
2.17912
2.16352
2.19677
2.23374
2.24776
2.30658
2.11914
2.08729
2.0719
2.11744
2.10246
2.13477
2.18274
2.20178
2.1586
2.25582
2.24009
2.21773
2.28336
2.26198
2.28263
2.39089
2.4178
2.44389
2.29959
2.3632
2.34008
2.40924
2.38632
2.31984
2.16618
2.18299
2.23768
2.05613
2.02625
2.01157
2.05655
2.0412
2.07167
2.10698
2.12575
2.09097
2.14869
2.15084
2.12882
2.19533
2.17301
2.17525
1.89569
1.93071
2.08993
0.835802
1.61869
1.57881
1.70291
1.66016
0.875032
1.79409
1.82965
1.10357
2.27045
2.12094
2.0863
2.19219
2.1563
2.30475
2.28553
2.31137
2.32021
2.21934
2.27162
2.24929
2.31706
2.29423
2.23917
2.0999
2.11607
2.16541
1.99551
1.96872
1.95472
1.99715
1.9828
2.01033
2.03328
2.0515
2.02518
2.04539
2.06391
2.04271
2.10698
2.08534
2.07069
1.76532
1.79641
1.96846
0.729924
1.46978
1.43694
1.54069
1.50436
0.750495
1.66492
1.69527
1.00322
2.1414
1.98763
1.95659
2.0525
2.01961
2.1724
2.1864
2.21053
2.20466
2.14234
2.18412
2.16302
2.22726
2.20553
2.16122
2.03678
2.05217
2.09612
1.93724
1.91379
1.90044
1.94093
1.92728
1.95154
1.96181
1.97944
1.96121
1.94831
1.98057
1.96037
2.02175
2.00103
1.97194
1.65076
1.67798
1.85809
0.672367
1.34791
1.32116
1.40573
1.37608
0.683798
1.55534
1.58107
0.942056
2.02553
1.86896
1.8415
1.92648
1.89728
2.05332
2.09416
2.11659
2.09865
2.06932
2.10163
2.08179
2.14224
2.12178
2.0872
1.97683
1.99148
2.0303
1.88147
1.86126
1.84845
1.88725
1.87418
1.8952
1.89384
1.9105
1.9001
1.85809
1.90155
1.88271
1.94047
1.92085
1.88
1.55054
1.57436
1.75848
0.640083
1.24837
1.22641
1.29569
1.27144
0.64654