/*--------------------------------*- C++ -*----------------------------------*\
| =========                 |                                                 |
| \\      /  F ield         | OpenFOAM: The Open Source CFD Toolbox           |
|  \\    /   O peration     | Version:  5.x                                   |
|   \\  /    A nd           | Web:      www.OpenFOAM.org                      |
|    \\/     M anipulation  |                                                 |
\*---------------------------------------------------------------------------*/
FoamFile
{
    version     2.0;
    format      ascii;
    class       volScalarField;
    location    "3600";
    object      nut;
}
// * * * * * * * * * * * * * * * * * * * * * * * * * * * * * * * * * * * * * //

dimensions      [0 2 -1 0 0 0 0];

internalField   nonuniform List<scalar> 
6445
(
0.0700933
0.0700935
0.0700937
0.070094
0.0700942
0.0700945
0.0700947
0.0700949
0.0700951
0.0700952
0.0700952
0.0700955
0.0700962
0.070097
0.0700973
0.070097
0.0700963
0.0700956
0.070095
0.0700946
0.0700942
0.070094
0.0700939
0.0700938
0.0697249
0.0697255
0.0697257
0.0697261
0.0697267
0.0697274
0.0697279
0.0697284
0.0697288
0.0697297
0.0697304
0.0697316
0.0697328
0.0697334
0.0697334
0.0697321
0.0697307
0.0697295
0.0697285
0.0697277
0.0697269
0.0697263
0.0697259
0.0697252
0.0693759
0.0693763
0.0693768
0.0693773
0.0693782
0.0693793
0.0693802
0.0693811
0.0693833
0.0693984
0.0694005
0.0694039
0.0694058
0.0694052
0.0694044
0.0693893
0.0693852
0.0693827
0.0693808
0.0693794
0.0693784
0.0693777
0.0693769
0.0693762
0.0690445
0.069045
0.0690454
0.0690462
0.069047
0.0690483
0.0690498
0.0690524
0.0690679
0.0692263
0.069246
0.0692527
0.0692565
0.0692544
0.0692504
0.0690798
0.0690602
0.069055
0.0690516
0.0690493
0.0690479
0.0690467
0.0690457
0.0690451
0.0687294
0.0687299
0.0687304
0.0687313
0.0687324
0.0687338
0.0687362
0.0687413
0.0687708
0.0689504
0.0690519
0.0690706
0.0690825
0.0690741
0.0690573
0.068796
0.0687577
0.0687465
0.0687407
0.0687368
0.0687342
0.0687322
0.068731
0.0687302
0.0684291
0.0684298
0.0684305
0.0684317
0.0684333
0.0684356
0.0684394
0.0684496
0.0684967
0.0687054
0.0688467
0.0689508
0.0690698
0.0689688
0.0688605
0.0685482
0.0684811
0.068458
0.0684471
0.0684403
0.068436
0.0684331
0.0684314
0.0684302
0.0681425
0.0681433
0.0681443
0.068146
0.0681485
0.0681524
0.0681595
0.0681784
0.0682523
0.0685044
0.0687545
0.0696067
0.0725271
0.0695561
0.0688017
0.0683505
0.068234
0.0681904
0.0681704
0.0681591
0.0681524
0.0681481
0.0681456
0.0681439
0.0678685
0.0678695
0.0678707
0.067873
0.0678766
0.0678827
0.0678947
0.0679256
0.0680363
0.0683746
0.0690114
0.0640052
0.0694398
0.0691585
0.0682099
0.0680159
0.0679432
0.0679096
0.067892
0.067882
0.0678759
0.0678725
0.0678702
0.0676061
0.0676073
0.0676089
0.0676119
0.0676168
0.0676253
0.0676431
0.0676878
0.0678415
0.0683096
0.0694234
0.0436105
0.0515526
0.0699157
0.0681145
0.0678205
0.0677128
0.0676628
0.0676377
0.0676238
0.0676156
0.067611
0.0676081
0.0673544
0.0673558
0.0673579
0.0673616
0.0673677
0.0673788
0.0674019
0.0674601
0.0676552
0.0682611
0.0694658
0.038357
0.0444879
0.070416
0.0680324
0.0676371
0.0674936
0.0674275
0.0673946
0.0673767
0.0673661
0.0673604
0.0673567
0.0671127
0.0671143
0.0671167
0.0671211
0.0671283
0.0671415
0.067169
0.067239
0.0674706
0.0681948
0.0692498
0.0380068
0.0440685
0.070577
0.0679416
0.0674574
0.0672813
0.0672015
0.0671613
0.0671395
0.0671267
0.0671198
0.0671153
0.0668802
0.066882
0.0668847
0.0668896
0.0668977
0.0669125
0.0669431
0.0670218
0.0672832
0.0680979
0.068872
0.0388485
0.0454045
0.0704661
0.0678246
0.0672733
0.0670726
0.0669823
0.0669362
0.0669112
0.0668964
0.0668885
0.0668831
0.0666564
0.0666582
0.066661
0.0666662
0.0666747
0.0666905
0.0667231
0.0668092
0.0671012
0.0679744
0.0684094
0.0399568
0.0473061
0.0701953
0.0676799
0.0670825
0.0668658
0.0667685
0.0667182
0.0666909
0.0666744
0.0666656
0.0666594
0.0664405
0.0664422
0.066445
0.0664507
0.0664597
0.0664764
0.0665112
0.0666031
0.0669142
0.0678542
0.0677528
0.0395799
0.00402912
0.0480598
0.0697673
0.0675242
0.0668911
0.066661
0.066559
0.0665063
0.0664775
0.0664599
0.0664504
0.0664437
0.0662319
0.0662338
0.0662371
0.0662426
0.066252
0.066269
0.0663053
0.0664024
0.0667323
0.0676993
0.067005
0.0387092
0.00504172
0.0484246
0.0692538
0.0673544
0.0666986
0.0664621
0.0663557
0.0663003
0.0662705
0.0662522
0.0662423
0.0662353
0.0660305
0.0660324
0.0660359
0.0660416
0.0660512
0.0660687
0.0661062
0.0662085
0.0665565
0.0675362
0.0662538
0.0379047
0.00602342
0.0483302
0.0686978
0.0671822
0.0665092
0.0662659
0.0661573
0.0661015
0.0660703
0.066051
0.0660408
0.0660337
0.0658358
0.0658377
0.0658413
0.0658472
0.065857
0.0658749
0.0659137
0.0660217
0.0663879
0.0673662
0.0654654
0.0371113
0.00701335
0.0480639
0.0681297
0.0670123
0.0663245
0.0660747
0.0659644
0.0659078
0.065876
0.0658566
0.0658457
0.0658385
0.0656475
0.0656493
0.065653
0.065659
0.065669
0.0656874
0.0657278
0.0658418
0.0662256
0.0671834
0.0647106
0.0364193
0.00800371
0.0477422
0.0675608
0.0668459
0.0661453
0.0658889
0.0657769
0.0657196
0.0656875
0.0656678
0.0656566
0.0656493
0.065465
0.0654669
0.0654706
0.0654768
0.065487
0.0655059
0.065548
0.0656685
0.066068
0.0669851
0.0639128
0.0358393
0.00898232
0.0474112
0.0669968
0.0666832
0.0659718
0.0657086
0.0655948
0.0655369
0.0655045
0.0654846
0.0654731
0.0654659
0.0652882
0.06529
0.0652938
0.0653001
0.0653106
0.0653301
0.0653741
0.0655012
0.0659141
0.0667704
0.0631052
0.0354856
0.00993887
0.0470898
0.0664414
0.0665239
0.065804
0.0655339
0.065418
0.0653595
0.0653268
0.0653067
0.065295
0.065288
0.0651167
0.0651185
0.0651224
0.0651288
0.0651396
0.0651597
0.0652058
0.0653395
0.0657628
0.0665394
0.0623188
0.0352484
0.0108666
0.0467859
0.0658975
0.0663674
0.0656416
0.0653644
0.0652465
0.0651872
0.0651541
0.0651339
0.0651221
0.0651152
0.0649502
0.064952
0.064956
0.0649626
0.0649736
0.0649944
0.0650427
0.0651831
0.0656132
0.0662935
0.0615719
0.0349653
0.0117518
0.0465016
0.065367
0.0662132
0.0654844
0.0652002
0.0650798
0.0650198
0.0649864
0.0649661
0.064954
0.0649474
0.0647885
0.0647904
0.0647944
0.0648012
0.0648125
0.064834
0.0648845
0.0650314
0.0654646
0.0660326
0.0608541
0.0346975
0.0125434
0.046238
0.0648514
0.0660608
0.065332
0.0650409
0.064918
0.0648572
0.0648233
0.0648029
0.0647907
0.0647842
0.0646313
0.0646332
0.0646373
0.0646443
0.0646559
0.0646782
0.0647311
0.0648842
0.0653164
0.0657586
0.0601618
0.0344465
0.0133667
0.0459935
0.0643516
0.0659098
0.0651841
0.0648863
0.0647608
0.064699
0.0646648
0.0646442
0.0646319
0.0646256
0.0644784
0.0644804
0.0644846
0.0644917
0.0645037
0.0645269
0.0645821
0.0647412
0.065168
0.0654735
0.0595029
0.034239
0.014166
0.0457643
0.0638674
0.0657597
0.0650404
0.0647363
0.064608
0.0645452
0.0645105
0.0644898
0.0644773
0.0644712
0.0643297
0.0643318
0.0643361
0.0643433
0.0643557
0.0643797
0.0644374
0.0646019
0.065019
0.0651793
0.0588765
0.0340682
0.0149409
0.0455526
0.063399
0.0656105
0.0649008
0.0645906
0.0644594
0.0643956
0.0643604
0.0643394
0.0643269
0.0643209
0.064185
0.064187
0.0641914
0.0641989
0.0642116
0.0642365
0.0642967
0.0644661
0.064869
0.0648778
0.0582813
0.0339278
0.0156903
0.045357
0.0629468
0.0654617
0.0647649
0.064449
0.0643149
0.0642499
0.0642142
0.0641931
0.0641804
0.0641745
0.0640439
0.064046
0.0640505
0.0640581
0.0640712
0.064097
0.0641597
0.0643333
0.0647179
0.0645704
0.0577155
0.0338127
0.0164146
0.0451763
0.0625106
0.065313
0.0646323
0.0643113
0.0641742
0.0641081
0.0640719
0.0640505
0.0640377
0.0640318
0.0639063
0.0639086
0.0639131
0.0639209
0.0639344
0.0639611
0.0640263
0.0642034
0.0645657
0.0642593
0.0571782
0.0337204
0.0171156
0.0450095
0.06209
0.0651644
0.0645029
0.0641773
0.0640372
0.0639699
0.0639331
0.0639115
0.0638985
0.0638928
0.0637722
0.0637745
0.0637791
0.0637871
0.063801
0.0638286
0.0638963
0.0640762
0.0644119
0.0639457
0.0566677
0.0336484
0.0177962
0.0448556
0.0616847
0.0650157
0.0643763
0.0640468
0.0639037
0.0638351
0.0637978
0.0637759
0.0637628
0.0637571
0.0636413
0.0636436
0.0636484
0.0636566
0.0636708
0.0636994
0.0637695
0.0639513
0.0642567
0.0636308
0.0561818
0.0335936
0.0184587
0.0447134
0.0612942
0.0648669
0.0642525
0.0639196
0.0637735
0.0637037
0.0636657
0.0636436
0.0636304
0.0636247
0.0635135
0.0635158
0.0635207
0.0635291
0.0635437
0.0635733
0.0636457
0.0638286
0.0641
0.0633158
0.0557191
0.0335541
0.0191037
0.0445824
0.0609181
0.0647179
0.0641311
0.0637956
0.0636466
0.0635754
0.0635368
0.0635144
0.0635011
0.0634954
0.0633886
0.063391
0.063396
0.0634046
0.0634196
0.0634503
0.0635248
0.0637078
0.0639419
0.0630017
0.0552782
0.0335279
0.0197305
0.0444616
0.0605558
0.0645687
0.064012
0.0636746
0.0635226
0.0634501
0.0634109
0.0633883
0.0633748
0.0633691
0.0632666
0.0632691
0.0632742
0.0632829
0.0632984
0.06333
0.0634068
0.0635889
0.0637825
0.0626893
0.0548576
0.0335129
0.020338
0.0443502
0.0602069
0.0644194
0.0638951
0.0635565
0.0634017
0.0633278
0.0632879
0.063265
0.0632514
0.0632457
0.0631479
0.0631504
0.0631556
0.0631646
0.0631804
0.0632131
0.0632919
0.0634722
0.0636224
0.0623794
0.0544559
0.0335079
0.0209258
0.0442477
0.0598708
0.0642705
0.0637807
0.0634417
0.0632841
0.0632088
0.0631683
0.063145
0.0631313
0.0631256
0.0630466
0.0630491
0.0630544
0.0630636
0.0630799
0.0631135
0.0631941
0.0633716
0.0634759
0.0620734
0.054072
0.033512
0.0214951
0.0441536
0.0595471
0.0641366
0.0636833
0.0633446
0.0631844
0.0631076
0.0630665
0.0630429
0.0630291
0.0630234
0.0464987
0.0393921
0.0616775
0.0388811
0.0303479
0.035757
0.0378917
0.0297065
0.0298466
0.0385639
0.0316439
0.0300062
0.0397158
0.0346165
0.0323798
0.0396824
0.001576
0.0021307
0.0366889
0.0353716
0.069372
0.0721919
0.0709116
0.070015
0.069349
0.0617654
0.0695328
0.0198032
0.0358594
0.0553044
0.07028
0.0695899
0.0694833
0.0545557
0.0592879
0.0414685
0.020155
0.0229729
0.00866781
0.0117941
0.0452091
0.0702832
0.0703737
0.0693246
0.0526513
0.053868
0.0380426
0.0175882
0.0177903
0.00397026
0.00491033
0.0439627
0.069979
0.0702134
0.0689755
0.0521589
0.0524365
0.0381154
0.0224267
0.0185359
0.00643946
0.00539796
0.0449726
0.0695353
0.0698736
0.0110671
0.0105258
0.0468393
0.0690924
0.0694233
0.0173016
0.0152338
0.0388632
0.00333685
0.00314594
0.00479567
0.0378742
0.037062
0.0247416
0.0317459
0.0505177
0.0194522
0.0161222
0.0363328
0.0218737
0.0130067
0.0191595
0.0441662
0.0266097
0.0191061
0.0179611
0.0191177
0.0398287
0.0132908
0.0117254
0.0158695
0.0138359
0.00499956
0.00852661
0.031266
0.0119553
0.00835504
0.0173806
0.0124798
0.0331739
0.0182624
0.0177235
0.0379015
0.0118431
0.0130529
0.0116691
0.0116301
0.00534546
0.00392992
0.0295601
0.00666819
0.008627
0.00816918
0.00671742
0.0296226
0.0130147
0.0146382
0.013303
0.0125336
0.0101126
0.0069835
0.0309903
0.0132264
0.0151017
0.00879974
0.0126785
0.0304344
0.0170302
0.0182551
0.0151491
0.0165981
0.0144694
0.0119116
0.0157684
0.0206184
0.0330926
0.0190904
0.0157474
0.0186187
0.0192996
0.0151134
0.0173009
0.0568758
0.0383047
0.0487717
0.0114997
0.02167
0.0685325
0.0521111
0.0521396
0.0391473
0.0249823
0.0243194
0.00563969
0.00448497
0.0478933
0.0684859
0.0689778
0.0212759
0.0132698
0.0459638
0.0330654
0.050527
0.0236577
0.0230142
0.0383111
0.00291287
0.00378936
0.00655631
0.00722639
0.00382495
0.00492691
0.00407152
0.00350096
0.0338475
0.021596
0.0226053
0.00753229
0.00825763
0.0236031
0.0245622
0.0360724
0.0701889
0.0702062
0.0443844
0.0521386
0.0742911
0.069412
0.0107467
0.0232921
0.0136318
0.0251326
0.0156016
0.0281995
0.00979002
0.0104937
0.00440298
0.00445566
0.00681459
0.00648309
0.0102395
0.00303624
0.0117945
0.00700373
0.00606764
0.00877082
0.00945319
0.0159675
0.00792105
0.0178373
0.00696324
0.0108779
0.00667262
0.016228
0.011704
0.015761
0.024906
0.0123991
0.00825036
0.0151288
0.0160052
0.0120381
0.0119325
0.0147052
0.0145075
0.00562556
0.00577283
0.00963861
0.0193542
0.0201044
0.0187092
0.0189962
0.00952053
0.0148926
0.0228427
0.0241101
0.0210256
0.0218068
0.0136514
0.0124783
0.0125653
0.0115272
0.0114773
0.00352173
0.00357741
0.0075354
0.0181511
0.0180813
0.0187235
0.0183702
0.00761118
0.00732936
0.0182853
0.0184691
0.0180937
0.0181717
0.00724847
0.00296205
0.0135675
0.0039634
0.00303938
0.00581163
0.00488183
0.0140887
0.0138615
0.00308455
0.0120463
0.00882695
0.00833103
0.00959885
0.019498
0.0190751
0.0203998
0.0199572
0.00998442
0.00537358
0.00627213
0.0156827
0.00702414
0.00603184
0.00963962
0.00914069
0.0161222
0.00419772
0.00514933
0.0136242
0.00528325
0.00656667
0.00314312
0.00488902
0.0127674
0.00326851
0.00849804
0.00707277
0.00850915
0.00882191
0.00810833
0.00701086
0.0135267
0.0679159
0.0512227
0.0520777
0.0399629
0.0271313
0.0268139
0.00429301
0.0159607
0.0155708
0.0149792
0.0262462
0.025632
0.0394411
0.00251109
0.0026726
0.000304299
0.00707445
0.00688388
0.00285743
0.00318873
0.0072107
0.00692392
0.0445169
0.0511231
0.0261341
0.0280086
0.0536246
0.0421806
0.0209402
0.027758
0.026979
0.0089099
0.00702776
0.0109801
0.0175725
0.0245766
0.0246342
0.0247407
0.0246258
0.0176508
0.00415536
0.00471976
0.00601564
0.00548798
0.00296981
0.00285702
0.0166608
0.0101478
0.0106681
0.0154768
0.0153652
0.00319526
0.0287936
0.0188368
0.0248882
0.0135536
0.00828633
0.00733973
0.0231681
0.0296115
0.0316981
0.0257508
0.0275198
0.0206982
0.0181745
0.0251836
0.0249224
0.0261678
0.0255629
0.0184807
0.0125852
0.00891194
0.0100554
0.00809792
0.00818861
0.0117855
0.0108304
0.0111164
0.0141326
0.00517415
0.00648969
0.0106273
0.0143199
0.0150883
0.0129001
0.0130267
0.00902704
0.0247718
0.0249592
0.0178832
0.0121365
0.00811578
0.00777421
0.0116167
0.00791952
0.0080174
0.00755555
0.00751485
0.0114862
0.00453065
0.00376604
0.00649058
0.0123231
0.0123401
0.0132138
0.0129591
0.00832719
0.00775347
0.0126972
0.0127919
0.0123555
0.0123884
0.00692959
0.00967065
0.00562563
0.00604034
0.00349624
0.00338577
0.00742283
0.0138263
0.0214459
0.0208971
0.0225847
0.0220056
0.0144513
0.017472
0.0105852
0.0100959
0.011475
0.0110308
0.017863
0.00306464
0.00336567
0.0189712
0.0123673
0.011933
0.00409081
0.00329843
0.00324412
0.00285831
0.0154399
0.0154773
0.017041
0.00265276
0.00521608
0.00270563
0.00293945
0.00274588
0.00486524
0.017583
0.0116648
0.0169402
0.0099601
0.0148126
0.00310181
0.00335335
0.00263742
0.00254281
0.00674816
0.00389716
0.00319879
0.0042113
0.0039978
0.00693511
0.00408241
0.00429238
0.00428394
0.00403508
0.00780206
0.0047176
0.00449593
0.00321514
0.00339748
0.0102742
0.0162148
0.0178083
0.0132365
0.014496
0.00962927
0.0089939
0.0107353
0.00420011
0.00465353
0.0072165
0.00556158
0.00308087
0.00531437
0.00483693
0.00622298
0.00578579
0.0030799
0.00446927
0.00410921
0.00548818
0.00471361
0.00684734
0.00425448
0.00438571
0.00310999
0.00398445
0.00646638
0.00269908
0.00263627
0.00783907
0.0125758
0.0120561
0.0141027
0.0131247
0.00816396
0.0100449
0.0102169
0.0109338
0.0102067
0.0127321
0.0160275
0.0149883
0.0109001
0.0102643
0.0116524
0.00863536
0.0141256
0.00821018
0.0110903
0.0129606
0.00850803
0.0104992
0.0170062
0.0136272
0.01255
0.00846869
0.00858724
0.0122126
0.0053599
0.00493698
0.0071717
0.00549089
0.00446417
0.00424618
0.00482864
0.00456608
0.0118582
0.00829017
0.00837436
0.00846749
0.00806776
0.0101866
0.00890887
0.00773359
0.0074389
0.00801137
0.00780618
0.0143289
0.011304
0.0114858
0.00523516
0.00634926
0.0134143
0.013703
0.009847
0.00943243
0.0131605
0.0132624
0.00845025
0.00834756
0.012354
0.0051924
0.00530124
0.00365547
0.00493478
0.00529216
0.00584946
0.00529544
0.00529349
0.00774248
0.007835
0.011563
0.003943
0.00378732
0.0041863
0.00399283
0.0035473
0.00353524
0.00373547
0.00360311
0.0114843
0.00757957
0.00765335
0.00404509
0.00370622
0.0122922
0.0122647
0.007544
0.00790564
0.0126504
0.0123808
0.0125393
0.0126147
0.00763555
0.00699289
0.0124168
0.0124786
0.00304644
0.00342701
0.00806854
0.00843677
0.0072442
0.00762731
0.00318512
0.00552616
0.00941621
0.00973301
0.00870702
0.00904816
0.0051602
0.00680379
0.00561932
0.00618792
0.00675117
0.00324344
0.00673589
0.00700726
0.00581914
0.00630569
0.00322657
0.00405014
0.00445956
0.00925746
0.00316978
0.00334057
0.00394534
0.00321262
0.0033361
0.0078231
0.00333388
0.00376737
0.00560241
0.00261405
0.00269771
0.00308422
0.00263883
0.00590357
0.00265415
0.00442518
0.00272737
0.00480107
0.00368935
0.00722161
0.00672623
0.00816893
0.00766911
0.00452378
0.00288946
0.0029216
0.00326386
0.00325066
0.00355054
0.0040241
0.00297373
0.00341242
0.0713626
0.0693334
0.0689089
0.0362717
0.0249804
0.0255642
0.0256014
0.0290161
0.0183306
0.0163384
0.0274492
0.0229129
0.0721936
0.0735714
0.0668598
0.0294836
0.0285426
0.0217251
0.00876132
0.00626052
0.0061033
0.00402308
0.00483923
0.0257134
0.0260027
0.0188092
0.00371973
0.0036243
0.00541633
0.00639927
0.00675927
0.0109375
0.0270853
0.0313125
0.0304637
0.014592
0.0152856
0.0162382
0.0170901
0.0153655
0.0181815
0.0154238
0.012781
0.0138299
0.00506086
0.00595617
0.00579029
0.00823032
0.00969898
0.00967791
0.00854584
0.0155282
0.0158209
0.0127555
0.0180439
0.0251655
0.0254261
0.00896482
0.00871124
0.012814
0.00525491
0.0038972
0.00382515
0.003893
0.00662073
0.00909376
0.00912664
0.00800864
0.00968774
0.00969987
0.00915511
0.0091974
0.00678124
0.0135269
0.00954971
0.00928743
0.00896352
0.0135876
0.0133976
0.0164541
0.0237297
0.0231663
0.00176031
0.0015188
0.0129268
0.0127783
0.0192676
0.00218171
0.00200278
0.0109921
0.0116446
0.0178402
0.0122213
0.0105481
0.00290175
0.00288166
0.00293709
0.00373225
0.0038732
0.002784
0.00282809
0.00343785
0.00330265
0.00478862
0.00293293
0.00290215
0.00365919
0.00507796
0.0048811
0.00801853
0.0677189
0.0600826
0.0408486
0.00942615
0.0114359
0.0138395
0.0150299
0.00934934
0.00982199
0.0197622
0.0225672
0.0186404
0.00762626
0.00740528
0.00934378
0.0107804
0.0100412
0.00914858
0.00431779
0.00450876
0.00445987
0.00466473
0.00701783
0.00609962
0.00376613
0.00410227
0.00308523
0.00303668
0.00417694
0.00400359
0.00301226
0.00305391
0.00308625
0.0113726
0.00720656
0.00767404
0.00756543
0.00724894
0.00934566
0.00906062
0.0116102
0.0112303
0.00998132
0.00636704
0.00623946
0.00852209
0.00741162
0.00605566
0.0181513
0.0172317
0.0143998
0.0117641
0.0100373
0.0105337
0.00864139
0.00795935
0.00887671
0.011681
0.0120057
0.0149875
0.00609555
0.00595963
0.00549591
0.00595459
0.0169999
0.0173263
0.01611
0.013054
0.0161066
0.0164997
0.0126755
0.00858368
0.00851205
0.00356211
0.00361626
0.00947841
0.00952256
0.00741676
0.00715258
0.00939594
0.00944687
0.00301231
0.00385248
0.00571814
0.00582818
0.00438218
0.0044827
0.00301365
0.00985295
0.00973351
0.0136974
0.00309013
0.00305315
0.00340074
0.00342277
0.00314056
0.0042871
0.00433869
0.00303893
0.00314188
0.0141341
0.0138209
0.00921517
0.0102872
0.0146947
0.0144402
0.00666211
0.0106288
0.0109325
0.010001
0.010303
0.00630064
0.00569721
0.00918606
0.00868165
0.0101486
0.00969216
0.00614356
0.00333007
0.00470043
0.00441975
0.00305754
0.00293631
0.00297541
0.00174771
0.0017167
0.00240868
0.00874941
0.00560343
0.00534302
0.00568291
0.00577515
0.00889775
0.00174533
0.00168467
0.00436116
0.00468336
0.0073982
0.0132337
0.0131941
0.0110725
0.0025092
0.00254475
0.00321836
0.00318323
0.00090974
0.00303742
0.00260725
0.00260786
0.00253711
0.00257775
0.00314497
0.00132707
0.00330071
0.00315346
0.0406904
0.0330874
0.0217841
0.0066361
0.0064348
0.00883547
0.00635902
0.0078637
0.00911649
0.00737534
0.00765355
0.0040901
0.00477954
0.00331235
0.00334504
0.00362262
0.00337864
0.00542641
0.0035468
0.00349471
0.00304822
0.00236352
0.00216442
0.00258236
0.00252197
0.00300265
0.00794672
0.0102017
0.0103879
0.00971401
0.0100237
0.0076441
0.00511804
0.00763422
0.00560466
0.00513851
0.00876389
0.00963834
0.00957276
0.00390992
0.00394119
0.00499009
0.00382125
0.00900271
0.00905642
0.00655504
0.00963935
0.0096676
0.00787286
0.00685462
0.00923011
0.00927808
0.00351116
0.00433464
0.00398582
0.0046688
0.00455201
0.00347185
0.00161554
0.00172836
0.00235255
0.00228268
0.00410538
0.00295775
0.00294568
0.001748
0.00161908
0.00305162
0.00185434
0.0020259
0.00191643
0.00170144
0.00287104
0.013191
0.0122207
0.014081
0.0109135
0.0139421
0.0163524
0.0185352
0.0125702
0.013724
0.0118289
0.00271187
0.00365203
0.00352139
0.00407103
0.00384192
0.00278733
0.00282078
0.00313047
0.00295884
0.00343138
0.00332494
0.00279431
0.0126864
0.0150422
0.0135335
0.010225
0.00945782
0.0115623
0.0108854
0.00293767
0.00359058
0.00297909
0.00298071
0.00260871
0.00257395
0.00453818
0.00460756
0.00327563
0.00279118
0.00275948
0.00392922
0.00279773
0.00276447
0.00279597
0.00455754
0.00309301
0.0029016
0.00314715
0.00333258
0.0045011
0.00282918
0.00283649
0.0028516
0.00282417
0.00382061
0.0029079
0.00298746
0.00324898
0.00246067
0.0024962
0.00245046
0.00243766
0.00328856
0.0124515
0.0130488
0.0108737
0.00851184
0.0102025
0.0117313
0.00593094
0.00911361
0.00714988
0.00687749
0.00686404
0.00710438
0.00649803
0.00670934
0.00425171
0.00457253
0.00352777
0.00357837
0.00340775
0.00346428
0.0071459
0.00478687
0.0048874
0.00348437
0.00357507
0.00579143
0.00356789
0.00346231
0.00322778
0.00304284
0.00387494
0.00372633
0.00429536
0.00309386
0.00311623
0.00321677
0.00314049
0.00420236
0.00528772
0.00368474
0.00385418
0.00323304
0.00344748
0.00501282
0.00308709
0.00324248
0.00446586
0.00428782
0.00261094
0.00260464
0.00683426
0.00968885
0.00951231
0.00752762
0.0084657
0.010474
0.00997131
0.00671096
0.00649635
0.00936546
0.00965559
0.0101753
0.00721854
0.00694859
0.00895817
0.00947446
0.0113227
0.00837491
0.00894837
0.00750351
0.00843353
0.0106681
0.0120727
0.0124745
0.0106923
0.0112392
0.00894563
0.00704478
0.00785639
0.01155
0.0095695
0.00910255
0.0118612
0.00995516
0.0121354
0.00889251
0.00859161
0.00764897
0.00920875
0.00521679
0.00506656
0.00662319
0.00477851
0.00491032
0.00441318
0.00560099
0.00437915
0.00430681
0.00473705
0.00464782
0.00824392
0.00636438
0.00658539
0.00598011
0.00615815
0.00813384
0.01003
0.00865373
0.00905892
0.00675294
0.007976
0.00962091
0.00578635
0.00532059
0.00765649
0.00519824
0.00529328
0.00502192
0.00510918
0.00757425
0.00795466
0.00568332
0.00582422
0.00540261
0.00553035
0.00788199
0.00537498
0.0061621
0.00526395
0.00377479
0.00387397
0.00358398
0.00367096
0.00531009
0.00400207
0.00391367
0.00387467
0.00448328
0.00539201
0.00325853
0.00327743
0.00353765
0.0033293
0.00553765
0.00529096
0.00344832
0.00351038
0.00333881
0.00339605
0.00527718
0.00389966
0.00385363
0.00413026
0.0040541
0.00351043
0.0034764
0.00369418
0.00365649
0.00370299
0.00365656
0.00751831
0.00956289
0.00960557
0.0093087
0.00935759
0.00706685
0.00305098
0.00524002
0.00551481
0.00369099
0.00304452
0.00463637
0.0049191
0.00321458
0.00314938
0.00681984
0.00463864
0.00457845
0.00647257
0.00421302
0.00386462
0.00451309
0.00441057
0.00666681
0.0033767
0.00329013
0.00403205
0.00419318
0.00319922
0.00335012
0.00367651
0.00422239
0.00617069
0.00595419
0.00651686
0.0063482
0.00433962
0.00321509
0.00329126
0.0036792
0.00326041
0.00326047
0.00339848
0.00336419
0.004989
0.00478618
0.00563116
0.00528522
0.00350909
0.00262994
0.00353854
0.00361739
0.00346496
0.00350415
0.00266251
0.00289924
0.00417817
0.00438646
0.00372928
0.00393672
0.00273461
0.00263956
0.0026646
0.00271772
0.00272211
0.00268597
0.00276148
0.00329141
0.00339983
0.00285116
0.00305831
0.00275807
0.00516111
0.00496874
0.00353889
0.00293204
0.00296219
0.00176659
0.00176783
0.00374229
0.00265675
0.00252015
0.00289798
0.00280935
0.00391722
0.00241618
0.00239887
0.00186277
0.0017787
0.0161255
0.0178582
0.0138565
0.015907
0.015525
0.00100415
0.000799098
0.00110439
0.00120664
0.00160131
0.001575
0.00057988
0.000915978
0.00187085
0.00180646
0.00138996
0.00136681
0.0013396
0.00130669
0.0210126
0.0177539
0.0143114
0.00118238
0.0011269
0.00130125
0.00137292
0.00137767
0.00127064
0.00122454
0.000844077
0.000831322
0.000333645
0.000693703
0.00102658
0.000982843
0.0688241
0.0688719
0.069043
0.068892
0.0689387
0.0690624
0.0689572
0.0690123
0.0690804
0.0690199
0.0689884
0.0690799
0.0689723
0.0689245
0.069066
0.0689025
0.0688527
0.0689691
0.0685967
0.0686975
0.0688205
0.0687573
0.0690534
0.0689199
0.0692408
0.0703412
0.0690561
0.0704914
0.069462
0.0689983
0.0692414
0.0688673
0.0688897
0.0687916
0.0686671
0.0687508
0.0684291
0.0686961
0.0686744
0.0689036
0.0703275
0.0692409
0.0702559
0.0713242
0.0701786
0.0751888
0.0743581
0.0717315
0.0701118
0.0695555
0.0692495
0.0690112
0.0685961
0.0686137
0.0683367
0.0689327
0.0687398
0.0691323
0.0695958
0.0694332
0.0648354
0.069988
0.070736
0.0697295
0.0686964
0.0686256
0.0682865
0.0691493
0.0690001
0.0694682
0.0693367
0.0695245
0.0486445
0.0622656
0.0642446
0.0703243
0.0689071
0.0687966
0.0682318
0.0692041
0.0691788
0.0694352
0.0684744
0.068676
0.0441571
0.0581456
0.0586133
0.0705672
0.0691004
0.0690112
0.0681508
0.0691113
0.0691933
0.0691655
0.067628
0.0678371
0.0442828
0.0572623
0.0573514
0.0705109
0.0692018
0.0691643
0.0680384
0.0689112
0.0690704
0.0687637
0.0668419
0.0670323
0.0458682
0.0574634
0.0573545
0.0702755
0.0691889
0.0692092
0.0679196
0.0686102
0.0688474
0.068267
0.0660284
0.0662717
0.047731
0.0579627
0.0578578
0.0698818
0.0690929
0.0691442
0.0677797
0.0682108
0.0685222
0.0671846
0.049923
0.050979
0.0392083
0.0269833
0.027125
0.048393
0.0678274
0.0683245
0.0693881
0.0689498
0.0690418
0.0676181
0.0677592
0.0681027
0.0664451
0.0488604
0.0496786
0.038112
0.00374348
0.00342251
0.00577717
0.0383518
0.0380389
0.0483772
0.0671054
0.0676511
0.0688386
0.0687414
0.0688477
0.0674528
0.0672662
0.0676399
0.065659
0.0477278
0.0485735
0.0373012
0.00427589
0.00386511
0.00676538
0.0385371
0.038416
0.0481385
0.066368
0.066921
0.0682721
0.0685215
0.0686321
0.0672766
0.066747
0.0671393
0.0649029
0.0466817
0.0474561
0.036582
0.004907
0.00442565
0.00775688
0.0386011
0.0385608
0.0478247
0.0656427
0.0661849
0.0677028
0.0682954
0.0684091
0.0670861
0.0661748
0.066608
0.0641126
0.0457637
0.0464378
0.0359731
0.0056163
0.00507948
0.00873951
0.0386112
0.038607
0.0474935
0.064941
0.0654649
0.0671371
0.0680632
0.0681802
0.0668796
0.0655811
0.066028
0.063306
0.0451653
0.0455775
0.035579
0.00638326
0.00580512
0.00970232
0.0385974
0.0386092
0.0471687
0.0642673
0.0647698
0.0665793
0.0678239
0.0679445
0.0666565
0.0649776
0.0654307
0.0625126
0.044536
0.0450183
0.0352906
0.00718954
0.00658213
0.0106375
0.0385748
0.0385923
0.0468601
0.0636236
0.0641036
0.0660323
0.0675771
0.0677016
0.0664183
0.0643762
0.0648263
0.0617513
0.0439102
0.0443803
0.0350462
0.00803486
0.00739405
0.0115342
0.0385501
0.0385687
0.0465708
0.0630098
0.0634674
0.0654983
0.0673229
0.0674512
0.0661643
0.0637835
0.0642301
0.0610316
0.0433658
0.0437617
0.0347675
0.00883527
0.00823782
0.0123349
0.0385276
0.0385442
0.0463019
0.0624255
0.062861
0.0649789
0.067062
0.0671935
0.0658966
0.063194
0.0636355
0.0603318
0.0428524
0.0432319
0.0345048
0.00972596
0.00905185
0.0131631
0.0385091
0.0385227
0.0460534
0.0618697
0.062284
0.064475
0.0667949
0.0669295
0.0656168
0.0626167
0.0630484
0.0596646
0.0423968
0.0427334
0.0342873
0.0106282
0.00995166
0.0139686
0.0384911
0.0385042
0.04582
0.0613404
0.0617351
0.063987
0.0665229
0.0666598
0.0653269
0.0620548
0.0624747
0.05903
0.0419911
0.042291
0.034108
0.0115254
0.0108549
0.0147497
0.0384779
0.0384873
0.0456039
0.0608358
0.0612119
0.0635146
0.0662472
0.0663859
0.0650288
0.0615096
0.0619169
0.0584272
0.0416285
0.0418967
0.0339603
0.012406
0.0117489
0.0155055
0.0384696
0.0384753
0.0454044
0.0603555
0.0607135
0.0630584
0.0659686
0.0661086
0.0647241
0.0609819
0.061376
0.0578544
0.0413031
0.0415439
0.0338395
0.0132624
0.0126229
0.0162357
0.0384663
0.0384684
0.0452202
0.0598982
0.0602391
0.0626182
0.065688
0.0658289
0.0644145
0.060472
0.0608526
0.05731
0.0410099
0.0412265
0.0337415
0.0140924
0.0134715
0.0169422
0.0384677
0.0384661
0.04505
0.0594626
0.0597873
0.0621937
0.0654066
0.0655477
0.0641021
0.0599801
0.0603473
0.056793
0.0407463
0.0409414
0.0336647
0.0148982
0.0142947
0.0176277
0.0384737
0.0384687
0.0448929
0.0590475
0.059357
0.0617846
0.0651251
0.0652661
0.0637878
0.0595056
0.0598599
0.056301
0.0405081
0.0406845
0.0336057
0.0156823
0.0150953
0.0182947
0.0384843
0.038476
0.0447479
0.0586516
0.0589468
0.0613905
0.0648444
0.064985
0.0634727
0.0590482
0.0593897
0.0558327
0.0402921
0.0404521
0.0335627
0.0164453
0.0158753
0.0189443
0.0384993
0.0384877
0.0446142
0.058274
0.0585555
0.0610108
0.0645653
0.064705
0.0631581
0.0586073
0.0589364
0.0553865
0.040096
0.0402414
0.0335334
0.0171844
0.0166333
0.0195758
0.0385182
0.0385037
0.0444908
0.0579135
0.0581823
0.0606451
0.0642885
0.064427
0.0628448
0.0581823
0.0584996
0.0549609
0.0399174
0.0400499
0.0335158
0.017897
0.0173661
0.020188
0.038541
0.0385235
0.0443772
0.0575692
0.0578259
0.0602929
0.0640145
0.0641515
0.0625335
0.0577727
0.0580785
0.0545546
0.0397543
0.0398752
0.0335083
0.0185816
0.0180712
0.0207806
0.0385673
0.0385472
0.0442725
0.0572403
0.0574856
0.0599536
0.0637438
0.063879
0.0622251
0.0573776
0.0576725
0.0541663
0.0396053
0.0397157
0.0335101
0.0192396
0.0187483
0.0213544
0.0385973
0.0385745
0.0441764
0.0569258
0.0571603
0.0596269
0.0634768
0.0636101
0.0619402
0.0570162
0.0572811
0.0538127
0.0394772
0.0395699
0.0335251
0.0198705
0.0193998
0.0219082
0.0386371
0.0386053
0.0440981
0.0566434
0.0568494
0.059332
0.0632344
0.0633462
0.0272439
0.0270988
0.0396829
0.0614775
0.0713605
0.0709546
0.0710871
0.0729184
0.0747801
0.07071
0.0724297
0.0710125
0.0696448
0.069672
0.0692495
0.0645933
0.0692506
0.0684421
0.0699403
0.0697867
0.0674472
0.0663887
0.0684257
0.0598263
0.0701056
0.0703913
0.0700708
0.0702071
0.070431
0.0698631
0.0688863
0.0691137
0.0694862
0.055653
0.0656828
0.0649653
0.0675013
0.0665511
0.0572504
0.0594111
0.0606161
0.0464976
0.0703504
0.0682388
0.0676677
0.0695361
0.0688908
0.0703897
0.0680502
0.068264
0.0693871
0.0529518
0.0635359
0.0631623
0.0644158
0.0639538
0.0533517
0.0575207
0.0577817
0.0439827
0.0700737
0.0666232
0.0663624
0.0672226
0.0669117
0.070153
0.0672259
0.0674244
0.0690736
0.0522042
0.0622869
0.0620587
0.0628317
0.0625418
0.052291
0.0572764
0.0572421
0.0445924
0.0696486
0.0657662
0.065626
0.0661321
0.0659338
0.0697625
0.0577278
0.0575933
0.0463544
0.0692033
0.0653328
0.0652583
0.0655104
0.0654144
0.069313
0.0268538
0.0269165
0.0389994
0.00325967
0.0152817
0.0151901
0.0165574
0.0162826
0.00454706
0.0376639
0.0268452
0.0271379
0.0260577
0.0264893
0.0373954
0.0191562
0.0129561
0.0127862
0.066464
0.0666532
0.0686505