/*--------------------------------*- C++ -*----------------------------------*\
| =========                 |                                                 |
| \\      /  F ield         | OpenFOAM: The Open Source CFD Toolbox           |
|  \\    /   O peration     | Version:  5.x                                   |
|   \\  /    A nd           | Web:      www.OpenFOAM.org                      |
|    \\/     M anipulation  |                                                 |
\*---------------------------------------------------------------------------*/
FoamFile
{
    version     2.0;
    format      ascii;
    class       volScalarField;
    location    "3600";
    object      p;
}
// * * * * * * * * * * * * * * * * * * * * * * * * * * * * * * * * * * * * * //

dimensions      [0 2 -2 0 0 0 0];

internalField   nonuniform List<scalar> 
6445
(
23.5322
21.706
19.8957
18.1422
16.434
14.7862
13.1943
11.6618
10.1522
8.63691
6.99623
5.09451
2.82048
0.19184
-2.64297
-5.51722
-8.28921
-10.9452
-13.4597
-15.8534
-18.1353
-20.3353
-22.4468
-24.5281
23.4987
21.6851
19.8695
18.1146
16.401
14.7528
13.1639
11.6491
10.1674
8.71902
7.16147
5.31929
3.03375
0.322707
-2.61497
-5.56402
-8.35946
-11.0263
-13.5348
-15.9203
-18.1905
-20.3855
-22.4859
-24.5774
23.4255
21.6181
19.7938
18.0328
16.3073
14.6554
13.0733
11.6019
10.1979
8.91638
7.54566
5.8389
3.52594
0.623903
-2.54636
-5.70797
-8.57273
-11.2643
-13.7548
-16.1125
-18.3489
-20.5193
-22.5933
-24.6815
23.3295
21.5183
19.6785
17.9036
16.1576
14.4927
12.9079
11.488
10.1653
9.40173
8.55192
7.33851
5.23573
2.07693
-1.58467
-6.06374
-8.9693
-11.6651
-14.1064
-16.4077
-18.5855
-20.7097
-22.7454
-24.8144
23.218
21.3938
19.5304
17.7278
15.9449
14.2439
12.6305
11.2314
10.0598
9.54764
9.34072
9.04379
7.45528
3.73052
-0.864198
-6.60495
-9.61296
-12.2532
-14.5941
-16.7968
-18.8859
-20.9426
-22.9284
-24.9623
23.0974
21.2509
19.3562
17.5093
15.6645
13.8856
12.1815
10.6849
9.52293
9.35459
10.0433
11.8189
11.731
5.53517
-1.0474
-7.77469
-10.6695
-13.0868
-15.2349
-17.2759
-19.2405
-21.2054
-23.1294
-25.1122
22.9769
21.1003
19.1679
17.2616
15.3293
13.4198
11.532
9.73672
8.2277
8.00738
9.12512
14.8534
23.3804
6.28323
-3.23923
-9.96048
-12.2688
-14.1892
-16.0147
-17.8204
-19.6251
-21.4759
-23.3288
-25.2473
22.8667
20.9558
18.9841
17.0108
14.9766
12.8971
10.7412
8.44119
6.1233
5.00794
3.8317
4.996
-4.77751
-9.76162
-13.2448
-14.3392
-15.4723
-16.8556
-18.3714
-19.9963
-21.7218
-23.5021
-25.3491
22.7767
20.8325
18.828
16.7946
14.6699
12.4313
10.0122
7.20513
3.9495
1.31941
-4.05806
-16.4686
-29.3245
-19.3114
-16.7179
-16.3448
-16.6527
-17.5923
-18.8313
-20.2933
-21.9047
-23.623
-25.4006
22.7138
20.7438
18.7207
16.651
14.4779
12.1567
9.60664
6.58467
2.88683
-0.740521
-7.85704
-23.135
-40.5559
-25.3023
-18.7039
-17.4758
-17.3423
-18.0198
-19.0911
-20.454
-21.9885
-23.6684
-25.389
22.6806
20.6965
18.6735
16.6003
14.436
12.1388
9.64361
6.79221
3.36127
-0.199934
-6.11712
-16.6809
-36.3317
-24.8198
-18.3563
-17.3102
-17.315
-18.0136
-19.084
-20.4397
-21.9518
-23.625
-25.3094
22.6742
20.6887
18.6823
16.6351
14.5267
12.3377
10.0346
7.59718
4.87946
2.17671
-1.06753
-4.44658
-23.1584
-19.3999
-16.1319
-16.0552
-16.6367
-17.5999
-18.819
-20.253
-21.7965
-23.4935
-25.1657
22.6873
20.7108
18.7304
16.7256
14.6946
12.6444
10.5693
8.55534
6.56501
4.8869
3.9686
5.55024
-9.12695
-12.5056
-13.2062
-14.3111
-15.592
-16.9269
-18.3719
-19.935
-21.5466
-23.2888
-24.97
22.7109
20.7494
18.7956
16.8334
14.8748
12.9439
11.0501
9.31824
7.77966
6.76483
6.87259
9.8787
16.1634
-0.101691
-7.09268
-10.6438
-12.6428
-14.4891
-16.1702
-17.8405
-19.543
-21.2374
-23.0338
-24.7392
22.7366
20.7907
18.8587
16.9321
15.0261
13.1716
11.3789
9.76509
8.36661
7.54785
7.33131
7.79249
7.27171
1.00486
-4.55599
-8.91924
-11.3592
-13.5267
-15.4532
-17.3044
-19.1296
-20.9035
-22.7526
-24.4906
22.7579
20.8265
18.9121
17.012
15.138
13.32
11.563
9.94855
8.49823
7.60405
6.81868
5.84757
4.11801
0.371884
-3.68816
-7.92964
-10.4877
-12.7789
-14.8451
-16.812
-18.7285
-20.5707
-22.4656
-24.2389
22.7722
20.8538
18.9495
17.0639
15.2039
13.3939
11.6329
9.96952
8.41065
7.37191
6.18385
4.61443
2.6191
-0.279058
-3.48038
-7.38584
-9.91277
-12.2256
-14.3595
-16.3896
-18.3648
-20.2565
-22.1869
-23.9949
22.7771
20.8685
18.9685
17.0888
15.2304
13.412
11.6287
9.90492
8.23986
7.06981
5.65523
3.8291
1.77156
-0.757598
-3.4944
-7.09027
-9.53591
-11.8223
-13.978
-16.0385
-18.0495
-19.9742
-21.9278
-23.7665
22.7724
20.8703
18.9705
17.0909
15.2268
13.3925
11.5809
9.80144
8.05046
6.78384
5.23989
3.30651
1.24229
-1.09598
-3.57101
-6.93082
-9.28796
-11.5299
-13.682
-15.7509
-17.78
-19.7265
-21.6949
-23.5583
22.7589
20.8605
18.9584
17.0755
15.2021
13.3499
11.5105
9.68554
7.87077
6.53863
4.92101
2.94995
0.888815
-1.33789
-3.65616
-6.84525
-9.12271
-11.3173
-13.4528
-15.5175
-17.5528
-19.5121
-21.4885
-23.3717
22.7381
20.8412
18.9354
17.0473
15.1636
13.2943
11.4308
9.57101
7.71106
6.33588
4.67668
2.69658
0.641351
-1.51476
-3.73331
-6.7994
-9.01047
-11.1612
-13.2749
-15.3289
-17.3629
-19.3286
-21.3082
-23.2066
22.7115
20.8146
18.9045
17.0107
15.1169
13.2328
11.3496
9.46413
7.57319
6.1707
4.48765
2.50359
0.462381
-1.64794
-3.79863
-6.77502
-8.93252
-11.0452
-13.1361
-15.1766
-17.2048
-19.1728
-21.1522
-23.0621
22.6806
20.7826
18.8682
16.9689
15.0661
13.1698
11.271
9.36734
7.45544
6.0347
4.3387
2.35462
0.333545
-1.7488
-3.8523
-6.76219
-8.87704
-10.9579
-13.027
-15.0535
-17.0735
-19.0411
-21.0182
-22.9366
22.6467
20.7471
18.8288
16.9243
15.0139
13.1079
11.1973
9.2809
7.35519
5.92261
4.21927
2.23945
0.229071
-1.82671
-3.8959
-6.75566
-8.83663
-10.8911
-12.9404
-14.9536
-16.9644
-18.9301
-20.9037
-22.8282
22.6111
20.7095
18.7877
16.8788
14.962
13.0486
11.1292
9.20401
7.26951
5.82944
4.12286
2.14731
0.146823
-1.88757
-3.9311
-6.75241
-8.80653
-10.8393
-12.8712
-14.8721
-16.8737
-18.8366
-20.8061
-22.7348
22.5744
20.6705
18.7458
16.8331
14.9113
12.9923
11.0666
9.13578
7.19599
5.75135
4.04374
2.07258
0.081089
-1.9363
-3.95966
-6.75075
-8.78332
-10.7985
-12.8152
-14.8055
-16.7981
-18.7579
-20.7231
-22.6545
22.5374
20.631
18.7041
16.7882
14.8627
12.9396
11.0094
9.07521
7.13229
5.68512
3.97782
2.01104
0.0275205
-1.97595
-3.98321
-6.75021
-8.76522
-10.7657
-12.7693
-14.7503
-16.7347
-18.6912
-20.6524
-22.5855
22.5009
20.5922
18.6633
16.745
14.8166
12.8906
10.9574
9.02118
7.0767
5.62795
3.92206
1.95942
-0.0168892
-2.00878
-4.00293
-6.7504
-8.75102
-10.7393
-12.7315
-14.7043
-16.6813
-18.6346
-20.5917
-22.5259
22.4652
20.5542
18.6239
16.7035
14.7729
12.845
10.9099
8.97274
7.02818
5.57879
3.87427
1.91575
-0.0543224
-2.03639
-4.01969
-6.7511
-8.73976
-10.7178
-12.7002
-14.666
-16.6361
-18.5863
-20.5398
-22.4745
22.4306
20.5174
18.5861
16.664
14.7318
12.8026
10.8664
8.92894
6.98485
5.53563
3.83271
1.87797
-0.0864401
-2.05999
-4.03419
-6.75219
-8.7308
-10.7002
-12.6741
-14.6337
-16.5977
-18.545
-20.4951
-22.4299
22.3972
20.4821
18.5498
16.6263
14.6931
12.7629
10.8261
8.88893
6.94564
5.49689
3.79592
1.84474
-0.114456
-2.08063
-4.04701
-6.75363
-8.72363
-10.6856
-12.652
-14.6062
-16.5648
-18.5093
-20.4565
-22.391
22.3653
20.4481
18.5152
16.5905
14.6565
12.7257
10.7888
8.85205
6.90982
5.46175
3.76284
1.81507
-0.139351
-2.09898
-4.05858
-6.7554
-8.71791
-10.6735
-12.6333
-14.5827
-16.5364
-18.4784
-20.4228
-22.3568
22.3348
20.4155
18.4821
16.5561
14.6216
12.6905
10.7536
8.81754
6.87653
5.42938
3.73255
1.78805
-0.16188
-2.11563
-4.06928
-6.7575
-8.7133
-10.6631
-12.6169
-14.5622
-16.5113
-18.4509
-20.3928
-22.3264
22.3064
20.3847
18.4509
16.5236
14.5889
12.6575
10.7209
8.78534
6.84551
5.39902
3.70421
1.76292
-0.182589
-2.1311
-4.07949
-6.76006
-8.70968
-10.6544
-12.6027
-14.5442
-16.4892
-18.4267
-20.3663
-22.2993
22.2777
20.3529
18.4188
16.4899
14.5552
12.6233
10.6874
8.75271
6.8146
5.36957
3.67684
1.73912
-0.201648
-2.14579
-4.08961
-6.76273
-8.70625
-10.6461
-12.589
-14.5269
-16.4677
-18.4032
-20.3407
-22.2733
22.259
20.3314
18.3973
16.467
14.5326
12.6001
10.6645
8.72919
6.7902
5.34141
3.64895
1.71563
-0.217808
-2.16068
-4.10046
-6.76737
-8.70497
-10.6409
-12.5795
-14.5151
-16.4528
-18.3872
-20.3227
-22.2554
-12.4687
-27.1987
-1.76629
-22.6668
-45.2478
-33.6178
-19.312
-44.1606
-46.9205
-7.56166
-28.9166
-40.9437
3.46387
-11.8246
-24.5427
9.7586
19.2261
19.4167
1.45652
-7.80518
11.3536
23.2512
4.90906
10.0099
-2.32199
-9.22581
4.30967
-16.5426
13.09
-24.2717
-18.1499
-9.08814
-7.46096
-17.7905
-12.5185
-19.4134
-27.4121
-22.9522
-52.2148
-42.825
-39.1096
-26.9237
-20.8976
-7.01187
-15.4192
-18.2185
-22.7572
-30.0932
-30.8483
-60.1536
-60.267
-38.6829
-27.8956
-27.9171
-2.45355
-6.15296
-13.3906
-13.9635
-16.5628
-22.1038
-42.2304
-51.6062
-26.8059
-22.1208
-26.9019
-20.6714
-29.39
-12.4538
-13.8692
-20.1105
2.38721
-6.34515
8.39246
9.3629
17.2835
8.63006
2.73588
2.61399
-20.8799
-11.6806
-8.21974
-14.2952
-24.2127
11.8651
-9.60978
-41.2617
-22.2419
-19.3421
-21.588
-37.2434
-30.6231
-28.4579
-21.4295
-30.3715
-33.4118
-24.84
-30.126
-59.1614
-52.4916
-42.5246
-51.3746
-58.1842
-40.5619
-50.4582
-38.7395
-24.0745
-28.7797
-21.4129
-31.7219
-25.3325
-33.2657
-32.7352
-52.1876
-59.6954
-46.4076
-58.7346
-51.3378
-58.6962
-59.1844
-47.3914
-15.6638
-8.68269
-24.0048
-18.047
-30.7985
-40.3136
-33.1724
-38.9013
-30.4945
-50.1999
-41.5898
-37.1686
0.992391
5.57994
-6.65504
-0.540697
-8.91454
-17.7394
-27.8612
-20.9119
-20.4398
11.603
14.0173
6.75296
10.9144
9.7963
4.13003
-2.25139
-3.08434
8.28103
-4.22561
33.3075
2.85781
3.0544
-3.62156
-1.54011
-1.61837
-5.15434
-0.393278
-5.75143
-1.47103
-7.04143
-11.8943
26.5191
-2.44589
3.70381
-10.1435
-10.9749
-9.02847
-13.0234
-10.8116
-13.3005
-8.69462
4.46025
6.74506
-8.10701
-3.02679
-7.63532
-13.0809
-16.1438
-16.2679
-10.9908
7.40293
9.98095
-6.03932
-1.46655
-4.07451
37.5199
25.6318
27.3809
20.6
25.287
40.2047
-8.66307
-7.1771
-7.16356
22.9045
-0.524629
2.99086
-48.6566
-47.8803
-61.1195
-61.0259
-45.9304
-46.6571
-23.1501
-20.3977
-24.2052
6.3086
1.13092
-5.28377
-2.33432
-3.25637
-21.4603
-18.9352
-26.8678
-19.9224
-26.7641
-21.682
-17.1558
-4.89349
-3.5622
-6.63454
-20.6582
-34.1903
-32.3412
-32.2539
-32.2059
-27.8282
-28.1164
-56.2412
-56.4528
-54.848
-49.3015
-46.5958
-52.08
-50.0053
-55.2187
-45.8562
-39.7817
-36.5031
-45.2921
-42.0658
-47.3052
-29.4433
-28.2208
-34.0448
-33.5714
-57.0856
-57.3073
-55.8131
-51.4103
-51.9566
-48.0318
-49.308
-54.9942
-59.9998
-53.6986
-52.2383
-53.5331
-53.0881
-60.0035
-13.7327
-13.1943
-14.1772
-18.2705
-8.95236
-12.6799
-10.9223
-20.5449
-18.673
-19.6898
-35.0814
-36.5233
-46.2973
-43.961
-45.5577
-39.5887
-41.2815
-45.0342
1.22374
4.17628
-4.47148
-4.51971
-7.75613
-0.343535
-2.68417
-2.67403
-3.09041
0.570434
-11.9179
-12.6117
-8.30594
-19.777
-13.7826
-14.7017
-13.2785
13.3205
15.5
10.8447
13.2737
13.028
7.09257
65.6276
6.41803
8.42002
4.83421
7.32796
8.71851
6.61953
13.2504
8.72563
10.0518
41.6933
4.21259
1.48372
1.10881
5.75203
6.54755
18.4276
17.2342
19.276
7.61303
8.51745
16.8474
14.4283
58.5494
41.2902
46.7805
43.7124
45.6567
64.3734
-26.1465
-22.7958
-24.5138
-50.8811
-44.7996
-45.1072
-30.706
-27.1128
-27.0191
-27.2875
-27.8598
-31.0343
-60.8682
-60.2595
-43.4784
-49.7394
8.57839
7.72441
-0.732027
1.01224
3.93195
13.1754
11.6237
14.2039
2.38605
4.74917
20.9392
-38.8243
-41.2847
-44.8504
-28.6235
-26.6706
-20.9605
-33.8254
-29.7512
-33.1654
-30.0226
-26.5298
-27.5427
-25.0311
-26.4189
-29.4685
-31.3862
-33.2628
-32.2813
-35.0476
-34.9595
-32.9123
-31.6097
-31.1086
-29.2855
-58.6273
-54.886
-52.8568
-50.7544
-49.1063
-55.4145
-54.2561
-57.3596
-25.6489
-24.9139
-27.4217
-31.1136
-32.1608
-33.4184
-33.8979
-35.809
-35.2189
-34.4524
-35.2581
-33.0291
-53.7825
-58.804
-58.1605
-55.5572
-55.6081
-50.0498
-50.7723
-52.0497
-59.28
-56.4492
-55.4125
-56.7267
-56.6319
-59.796
-32.3364
-32.5503
-30.9788
-41.4531
-40.7297
-39.6726
-36.1721
-34.6122
-36.8025
-29.5315
-31.9024
-33.2789
2.80101
3.30469
1.3105
6.1252
4.70827
4.03074
14.0511
15.3135
8.31573
8.9199
7.5393
13.6325
14.3961
11.7968
8.90029
11.6318
51.6454
23.3522
0.962121
-2.74896
-2.84247
1.09719
-3.69878
-4.26122
13.8051
11.3399
41.2686
3.57065
5.2844
-11.75
-10.088
5.3075
5.67261
5.15039
5.40256
4.65901
7.0784
6.01697
5.79457
-6.06645
-5.31156
-9.16681
-10.1838
8.10531
8.21309
7.95206
8.93098
10.7605
-17.4246
-12.3783
-6.7726
-22.3297
-17.5289
-19.2823
-50.7955
-46.418
-61.0809
-61.008
-43.5341
-49.0124
-22.5055
-22.7728
-24.4256
-20.3579
-21.6613
-21.8912
-28.2935
-30.7088
-24.5872
-27.2737
4.87478
6.37813
7.22702
1.29265
4.35457
3.13969
5.38386
1.92067
-24.1788
-21.061
-23.1655
-16.4015
-19.406
-23.7019
-27.1216
-27.9174
-24.4675
-26.3203
-14.3442
-11.6597
-14.6052
-13.6879
-15.0352
-37.2246
-40.7059
-37.2335
-38.3181
-31.3129
-24.9293
-37.7092
-32.4609
-29.3126
-31.9371
-34.7437
-33.9904
-33.4063
-31.5135
-34.1687
-35.1813
-33.2205
-34.1379
-36.4278
-36.1984
-34.9387
-35.9699
-32.8449
-34.4391
-34.0727
-30.0526
-31.1049
-28.0388
-29.761
-32.1085
-33.0079
-31.2006
-32.2688
-29.0848
-30.7804
-30.0827
-58.8191
-54.7105
-52.7228
-51.3931
-53.7747
-56.076
-54.0771
-52.8282
-30.7911
-31.6109
-30.0829
-32.9043
-31.5484
-36.1026
-33.5614
-29.1869
-26.7917
-30.8369
-29.7035
-35.9955
-35.7286
-33.6401
-36.9425
-38.0112
-36.2716
-37.2707
-37.1751
-36.1765
-37.3774
-37.5794
-33.6725
-35.6043
-35.8346
-55.784
-57.7499
-54.1284
-54.632
-56.4568
-53.6195
-52.1737
-52.8426
-57.2203
-56.4824
-59.6431
-60.0325
-57.2379
-56.6866
-15.2496
-15.105
-14.553
-13.63
-17.2001
-15.9303
-16.6558
-9.69318
-9.78645
-8.70968
-12.4742
-11.0963
-11.2325
-23.8593
-22.7864
-25.8782
-24.6108
-19.9958
-19.2873
-18.4307
-21.6043
-20.1853
-20.6298
-36.4348
-34.8183
-33.9535
-34.834
-36.2758
-31.3203
-34.0071
-36.7398
-38.1559
-39.9064
-36.5938
2.25221
2.59345
1.83855
4.5751
2.95873
3.18666
5.21074
-1.80166
1.24604
-0.230927
-17.7786
-17.4338
-18.7678
-14.0845
-16.0339
-15.8672
-16.5806
-17.2175
15.7478
16.8832
11.4686
13.2582
14.6665
12.023
0.305801
-6.51559
-1.52612
-1.17733
1.91426
5.33779
86.6586
65.7835
65.1701
69.5111
78.3077
92.4595
8.53117
15.3083
11.8809
-19.7713
-21.9069
-24.8305
-51.4914
-52.3782
-52.974
-60.9524
-60.0003
-19.975
-18.2396
-20.2371
-52.5267
-51.8637
-51.1672
-30.0424
-28.5397
-27.8433
-18.5493
-15.6108
-18.4776
-26.1404
-25.3133
-22.6751
-24.2763
-28.6904
-26.4716
-26.1479
-28.0083
-26.9643
-58.721
-53.8514
-54.6409
-53.3431
-57.2061
-56.6324
-57.7692
-48.6688
-47.258
-49.5279
-25.7863
-23.1768
-21.9382
-26.449
-27.7477
-26.3238
-52.6042
-52.9028
-52.5153
-59.3892
-58.4819
-57.3935
-57.4517
-58.8512
-57.7473
-57.1915
-58.16
-58.2821
-59.6324
-23.1064
-24.3289
-25.1432
-48.975
-47.6446
-48.5328
-25.236
-23.86
-26.8376
14.4367
13.6972
11.6015
10.4195
9.46013
15.2065
14.8285
6.0074
8.005
7.58442
-0.863203
-0.00808128
-12.9427
-8.59677
-9.11672
-9.34125
-7.47484
-7.55339
-8.07421
-4.4449
-4.56404
-4.04891
-12.746
-12.2794
-12.326
10.2385
9.0778
8.83018
21.2719
33.0516
31.6505
-11.0847
-11.7683
-10.5979
-7.39665
-25.447
-23.0543
-1.92385
5.13606
10.2742
-50.2192
-50.6673
-49.6075
-46.8301
-47.9239
-48.6176
-62.2146
-61.016
-46.7668
-46.1156
-45.3834
-47.5686
-49.0001
-47.3367
-24.8379
-25.1409
-20.0584
-20.8867
-20.9328
-25.5395
-25.9482
-26.1353
-26.7665
-25.7602
-22.0163
-25.4977
-24.2225
-25.3816
-18.2867
-19.8222
-20.921
-29.2084
-29.9414
-25.4731
-26.9835
-27.3619
-5.0628
-9.40988
-10.5844
-9.7263
-11.9216
-9.24442
-18.4548
-29.5092
-28.1703
-29.6192
-28.9407
-26.7596
-30.4252
-30.3067
-56.9121
-56.4296
-43.9834
-42.0253
-44.6018
-48.5848
-46.5126
-44.7843
-27.4914
-28.7374
-29.6675
-56.7311
-57.0921
-58.9534
-58.6238
-59.908
-60.4787
-59.1157
-58.5951
-14.2229
-14.5077
-13.917
-12.7503
-17.9843
-17.4806
-17.9912
-22.3375
-23.2379
-21.8293
-23.6574
-23.318
-26.5342
-26.2212
-19.089
-19.0374
-18.5286
-22.9788
-22.737
-45.1251
-46.2347
-47.6316
-44.0086
-42.2757
-43.5748
-5.11479
-4.88828
-3.18226
-7.53869
-6.13279
-6.43257
-11.0103
-10.8825
-12.6925
-6.9231
-9.20131
-9.32558
-18.6342
-18.2795
-19.2209
-15.0173
-13.2936
-18.9342
16.1704
17.3717
12.7269
11.8588
12.2784
11.4612
13.5029
12.893
12.4638
15.7334
14.3346
8.14354
10.4633
9.61451
32.9396
63.6959
20.7298
5.87129
6.0777
18.6435
21.7573
21.4923
7.70169
7.97153
7.76596
8.65639
8.26555
8.01144
23.2606
20.0415
17.7187
42.2699
60.498
59.6545
-52.1044
-52.094
-51.3462
-45.6875
-45.518
-43.6669
-47.6822
-45.9122
-61.3052
-59.9351
-44.9665
-44.7513
-43.1648
-44.1405
-50.3185
-50.9406
-50.2859
7.85685
8.64435
9.16507
8.15368
8.45357
7.56862
-42.2452
-41.4724
-40.3148
-43.4854
-42.1945
-43.4254
-58.4204
-53.3199
-54.4148
-55.1228
-57.5067
-56.5297
-55.9479
-54.0379
-53.3568
-53.34
-59.8105
-56.4534
-56.9584
-58.4438
-58.273
-57.7377
-58.9501
-59.8899
-58.6918
-58.4729
-41.1067
-41.2334
-41.3909
-40.2152
-40.6415
-40.6976
14.8285
15.3662
14.4683
14.7508
14.6642
13.6969
13.6969
11.6655
12.3842
11.368
11.4294
11.4538
9.24288
8.58456
9.48969
11.8302
5.12227
5.45589
14.0162
41.6335
35.2455
43.2985
20.5667
25.8883
31.7042
-1.84334
-1.74744
-2.98361
0.807857
-0.603934
-0.791766
-4.94107
-4.9105
-6.6139
-3.88634
-4.72888
-4.49752
20.7017
17.3892
9.07123
-4.40823
-7.94658
3.96969
-0.102669
-12.6097
-9.86948
-9.59958
-10.1759
5.37782
5.51441
4.88266
5.7292
4.57861
-6.49512
-7.07887
-6.88592
-4.08487
-3.6465
-4.5068
-4.36345
-4.51008
-5.8413
-9.10768
-9.2591
-7.95846
-8.55311
-9.18194
-7.37575
-8.03223
-11.3722
-11.5116
-10.63
9.48548
9.50232
9.05717
10.522
9.95256
9.973
-15.9785
-13.161
-14.9489
-23.0651
-21.4899
-17.9243
-51.2698
-49.9234
-51.047
-52.0197
-48.4338
-48.0973
-49.4492
-48.8491
-61.5898
-61.4152
-46.0726
-46.6977
-45.1059
-45.5359
-44.5653
-45.4366
-45.1234
-49.8178
-49.289
-48.3657
-47.6894
-22.4171
-24.1836
-21.4048
-21.5912
-22.1844
-29.3053
-29.6838
-28.7844
-30.6799
-30.503
-30.1559
-25.6961
-26.344
-26.1122
-27.9242
-26.3944
-26.2093
-26.4485
1.98433
3.2647
1.44249
3.94028
2.92627
-23.3913
-22.7155
-23.7103
-24.7634
-22.5101
-20.8332
-22.2063
-28.4009
-28.8053
-28.8745
-28.3074
-27.2108
-27.2668
-28.501
-15.484
-14.4448
-11.8248
-11.1888
-17.6328
-19.1564
-16.9997
-38.37
-37.5795
-36.0091
-39.8437
-38.749
-40.1032
-41.8686
-39.3237
-29.0879
-30.5664
-33.1199
-26.8226
-29.2534
-27.4369
-36.2844
-33.9551
-34.8161
-34.6925
-34.8458
-35.3028
-33.5172
-34.3845
-34.6108
-34.7348
-34.3312
-36.2798
-35.9813
-35.2022
-35.3512
-30.7406
-31.8147
-31.171
-31.7473
-31.7088
-30.7735
-28.6052
-29.3932
-29.1906
-30.9155
-29.6224
-28.8197
-30.39
-31.1665
-32.4454
-33.0431
-32.8855
-33.7821
-33.3284
-32.5184
-31.7038
-32.3922
-32.0302
-33.107
-33.3496
-32.0193
-57.1742
-55.63
-32.6914
-33.2999
-33.281
-32.0471
-32.8174
-32.053
-35.5686
-33.6615
-33.9895
-33.8288
-28.5679
-29.4402
-30.14
-27.7966
-28.6028
-27.6681
-30.4752
-30.9464
-31.3837
-30.4202
-30.553
-29.9513
-37.2448
-37.4009
-36.8825
-37.3869
-36.6887
-36.2202
-37.2638
-36.996
-56.011
-57.5007
-59.9805
-58.7602
-58.2087
-58.9599
-58.8324
-60.264
-14.6999
-14.9349
-14.4608
-14.989
-17.533
-16.8096
-15.8536
-24.9745
-24.2527
-22.8321
-24.356
-24.7331
-25.6072
-26.2811
-26.4213
-25.3806
-25.8257
-25.0954
-25.9393
-25.7634
-20.1287
-19.6308
-19.5412
-22.2172
-20.5252
-35.9357
-35.2892
-35.8331
-33.2164
-34.5346
-35.3418
-35.6651
-35.947
-31.4869
-31.5493
-31.1104
-33.1432
-38.971
-38.3948
-39.3422
-36.4176
-37.3838
-38.1032
2.29008
2.14327
2.65412
1.35284
1.82406
2.07338
4.67784
4.44658
4.74466
3.11435
3.86486
3.52873
4.69398
-2.38969
-1.9223
-3.19017
-2.69951
0.82122
0.374877
0.867781
-1.26609
0.290759
0.34466
-16.2939
-17.6699
-18.3028
-15.8809
-17.9955
15.3501
15.5825
12.408
12.8437
11.2749
13.3463
12.8933
12.6824
13.5939
14.213
13.888
11.7614
110.579
89.1522
108.455
110.756
111.187
16.1079
17.0472
17.8167
15.4112
19.2152
23.4378
21.7511
25.5497
22.6263
18.713
15.7438
15.6471
15.5095
15.3483
73.4807
88.5736
98.2727
15.485
16.1468
14.4134
14.1091
15.863
15.2205
15.0673
18.5186
23.7816
20.968
25.9619
26.7589
18.9472
9.66943
9.80274
9.41639
9.95883
10.7978
9.19839
11.0557
10.968
8.05837
10.3626
6.63096
4.78099
5.09214
0.486275
0.227859
-0.857149
-3.79626
-3.72248
8.95587
9.19919
9.78283
9.66653
12.6843
11.3405
14.2827
19.2224
12.3196
18.9517
9.55137
7.32642
6.47151
-0.650382
0.41815
-2.3552
-5.31895
-4.49093
6.66799
5.63523
8.63945
5.67374
8.50257
12.7352
14.9762
18.8286
17.592
30.2221
22.1973
18.9392
5.46623
1.99794
3.13985
-7.66564
-8.92979
-6.84183
2.88216
-0.757211
4.17094
1.75426
0.998812
3.68491
-11.3281
-11.6264
-6.77567
-17.1091
-14.6696
-11.4107
-0.299717
-5.10089
-2.14822
-5.53823
-8.09439
-6.32455
-33.4835
-29.127
-25.5746
-24.4784
-19.899
-17.1326
-0.998389
-4.96997
-5.44484
-7.92123
-10.7031
-10.7265
-40.9825
-35.8164
-35.3337
-25.6092
-21.7193
-20.8496
0.757901
-1.36342
-4.2643
-5.03465
-6.82819
-8.22332
-33.4825
-30.3751
-32.6021
-21.0737
-19.6675
-20.7585
3.59765
3.07341
-0.222315
0.306733
-0.250068
-1.90907
-19.5611
-18.9989
-22.0029
-14.1877
-15.3608
-17.4972
6.03158
6.21757
4.02211
4.93903
5.18168
4.07269
-6.09437
-7.73223
-10.2603
-8.21951
-10.9381
-13.0498
7.36015
7.3064
6.65503
7.37123
8.21446
8.78624
9.48913
11.0445
11.8407
1.04151
-3.71411
-5.79002
-4.95638
-7.81505
-9.23855
7.69838
7.16637
7.32533
6.97974
6.58821
7.80576
6.25775
5.28492
7.95251
4.67998
1.55527
2.45695
0.55303
-2.79926
-3.35753
-3.79699
-6.20985
-6.96011
7.55071
6.68224
7.04718
6.33852
5.33455
6.22961
4.87102
3.47403
4.70902
2.91193
0.617092
1.28643
-0.132158
-2.67772
-2.7342
-3.48657
-5.49371
-5.86216
7.25177
6.19938
6.54953
5.77831
4.49203
5.09089
3.99553
2.48342
3.17407
1.94541
-0.00894639
0.435689
-0.652906
-2.7759
-2.69715
-3.47049
-5.20598
-5.3859
6.94124
5.79154
6.08538
5.33456
3.92298
4.3282
3.41964
1.87624
2.30496
1.35426
-0.430139
-0.12979
-1.02183
-2.91465
-2.81346
-3.54164
-5.10785
-5.1979
6.66727
5.46842
5.7009
4.99359
3.53988
3.80965
3.03114
1.47622
1.76101
0.965446
-0.722911
-0.513162
-1.28449
-3.04353
-2.95126
-3.62906
-5.08968
-5.13665
6.43879
5.21618
5.39805
4.73213
3.25762
3.45825
2.75849
1.20329
1.39682
0.696521
-0.932833
-0.781897
-1.47524
-3.15143
-3.07459
-3.71028
-5.10308
-5.12876
6.25264
5.01911
5.1617
4.53024
3.04589
3.19883
2.54963
1.01239
1.1491
0.500652
-1.08884
-0.975993
-1.61789
-3.23891
-3.17669
-3.77967
-5.12706
-5.1419
6.10069
4.8636
4.97707
4.37296
2.88498
3.00066
2.38948
0.852265
0.966117
0.357023
-1.20762
-1.12172
-1.72622
-3.30896
-3.25919
-3.83693
-5.15276
-5.16189
5.9761
4.73806
4.82969
4.24665
2.75792
2.84972
2.2658
0.74332
0.818752
0.252936
-1.29809
-1.232
-1.80901
-3.36474
-3.32508
-3.88346
-5.17663
-5.18263
5.87319
4.63629
4.71079
4.14507
2.65869
2.73091
2.16854
0.656221
0.719733
0.16564
-1.36842
-1.31731
-1.87361
-3.40932
-3.37765
-3.92111
-5.19758
-5.20171
5.7876
4.55276
4.61413
4.06204
2.57893
2.63716
2.08989
0.585777
0.637067
0.0962173
-1.42418
-1.38359
-1.92505
-3.44508
-3.4196
-3.95149
-5.21515
-5.21833
5.71561
4.4832
4.53448
3.99314
2.51359
2.56139
2.02537
0.528615
0.570384
0.0399462
-1.4692
-1.43631
-1.96676
-3.47427
-3.45342
-3.97645
-5.22997
-5.2323
5.65412
4.42448
4.46789
3.9351
2.45919
2.49909
1.97165
0.481426
0.515994
-0.00651316
-1.50612
-1.47907
-2.00111
-3.49848
-3.48116
-3.99728
-5.24263
-5.24428
5.60108
4.37413
4.4114
3.88548
2.41306
2.44687
1.92607
0.441846
0.470838
-0.0455231
-1.537
-1.51439
-2.02987
-3.51887
-3.50424
-4.01489
-5.25355
-5.25461
5.55537
4.33043
4.36286
3.84252
2.37343
2.4026
1.88698
0.408052
0.432896
-0.0788267
-1.56331
-1.54399
-2.05442
-3.53636
-3.52376
-4.03006
-5.26312
-5.26364
5.51462
4.29186
4.32058
3.80466
2.33869
2.36432
1.85268
0.378534
0.400246
-0.107772
-1.58608
-1.56926
-2.07571
-3.55165
-3.54058
-4.04339
-5.27168
-5.27168
5.47796
4.25727
4.28307
3.77075
2.30768
2.3306
1.82218
0.352394
0.371712
-0.133362
-1.60618
-1.59133
-2.09454
-3.5653
-3.55538
-4.05535
-5.2795
-5.279
5.44448
4.22572
4.24929
3.73986
2.27956
2.30044
1.79458
0.328723
0.346264
-0.156418
-1.62438
-1.61092
-2.11161
-3.57778
-3.56866
-4.06635
-5.28685
-5.28581
5.41335
4.19633
4.21832
3.71113
2.25351
2.2729
1.76907
0.306931
0.323116
-0.177565
-1.64111
-1.62867
-2.1273
-3.5895
-3.58087
-4.07673
-5.29392
-5.29233
5.38374
4.16821
4.18932
3.68363
2.22876
2.24724
1.74499
0.286662
0.301714
-0.197063
-1.65678
-1.64512
-2.14217
-3.60087
-3.59241
-4.08692
-5.30103
-5.29878
5.35475
4.14017
4.16131
3.65606
2.20417
2.22265
1.72162
0.268804
0.281874
-0.214169
-1.67181
-1.66058
-2.15681
-3.6127
-3.60377
-4.0976
-5.30858
-5.30537
5.32543
4.10843
4.13312
3.6233
2.17235
2.19772
1.69381
0.277033
0.265058
-0.209433
-1.68885
-1.67563
-2.17594
-3.62843
-3.61587
-4.11136
-5.31808
-5.31264
11.8749
10.2548
8.69495
17.4616
18.8095
13.8882
20.4646
23.4106
29.1738
14.3897
15.4973
9.88151
-4.16692
-1.68825
-0.338385
-5.26261
-3.34004
-6.41944
3.74947
0.151638
-0.635214
-21.3973
-16.6666
-18.1478
-15.1197
-15.8081
-19.5946
-8.14094
-11.8831
-12.0411
-10.3064
-9.42231
-6.66601
-16.7099
-12.6761
-13.6701
-9.04075
-11.1339
-14.975
-34.0388
-31.9578
-36.738
-25.3608
-28.3277
-30.115
-23.0023
-25.9481
-23.3578
-9.39293
-10.2388
-7.61638
-16.9864
-13.3206
-12.1788
-14.108
-13.9895
-17.959
-34.3499
-35.4641
-40.3115
-28.4021
-31.5665
-30.7836
-31.2497
-31.7421
-28.4398
-3.60172
-5.2637
-3.78996
-8.70088
-6.93454
-4.86599
-10.6582
-8.89354
-11.1455
-24.9782
-27.7982
-30.2773
-23.9539
-25.6899
-23.4092
-29.4649
-27.7404
-25.5847
-13.0446
-15.994
-15.9844
-15.9356
-15.94
-13.4769
-20.9638
-18.4563
-18.0372
9.14206
10.1091
8.98544
11.3309
10.1443
8.90509
6.41217
7.44088
10.5129
2.93923
5.60562
4.9866
6.31516
6.13667
2.97148
13.4023
13.1023
12.3329
2.77445
1.32453
1.62617
1.03946
1.10149
2.81246
-2.78772
-0.779355
-1.20039
-3.83548
-5.54333
-3.60401
-8.42223
-7.11664
-5.59053
-11.1416
-9.00716
-10.0665
15.2091
14.5462
13.4611
10.6443
11.1672
12.1494
6.82641
6.07451
5.73505
7.47103
6.61958
7.45019
4.33221
5.61236
6.32349
15.8432
16.3624
14.6708
11.6506
12.3958
13.9714
-2.79498
0.0966822
3.62823
-4.39154
-2.46794
-4.95718
0.57329
-0.664922
-2.74312
15.7656
15.7405
15.7175
11.9905
12.0169
11.8636
11.6563
12.8257
12.3171
12.4114
11.6371
11.9376
12.2434
9.64883
9.29447
8.97231
9.02879
8.66166
7.97922
8.17507
7.36401
6.42297
6.15918
4.57444
3.79921
2.65975
0.645524
0.30842
-1.41975
-3.36681
-3.47914
9.62135
9.77144
9.47924
9.76976
9.77228
9.05913
8.41539
7.68732
6.90616
4.25954
3.01193
2.69653
-0.786914
-1.95813
-2.09164
10.0566
10.5487
10.4224
12.6428
13.3946
12.2457
13.4839
12.0573
10.5841
5.95698
3.89871
3.73599
-1.29921
-2.65835
-2.4947
8.31325
9.10725
9.93173
-4.37798
-5.64815
-4.7002
-12.1603
-12.2446
-10.1799
-21.4037
-19.9342
-17.8528
-25.8561
-23.8991
-22.9736
-23.836
-22.5165
-22.9693
-17.6921
-17.4772
-18.768
-10.9242
-11.6556
-13.0496
7.15108
7.49987
7.28084
0.615567
-1.55019
-2.38335
-6.2014
-7.32285
-8.26716
7.24694
7.26916
7.44047
7.23066
7.45547
8.24574
6.20888
4.79521
5.54223
0.888469
-0.578831
-0.623441
-4.22022
-5.23743
-5.70202
6.65904
6.42631
6.63907
5.48293
5.23186
5.67161
3.6485
2.77677
3.1684
0.19466
-0.82438
-0.733203
-3.58808
-4.43322
-4.64204
6.0415
5.66987
5.84083
4.38524
3.9707
4.22695
2.36456
1.66627
1.89061
-0.414427
-1.20685
-1.1147
-3.46446
-4.18602
-4.2789
5.541
5.10029
5.22805
3.67886
3.20252
3.36331
1.61681
0.996331
1.13629
-0.853418
-1.52897
-1.45602
-3.50526
-4.1499
-4.19211
5.15261
4.68535
4.77718
3.20542
2.70356
2.8098
1.14104
0.561605
0.654707
-1.16407
-1.77544
-1.72027
-3.58839
-4.18549
-4.20522
4.85369
4.37137
4.44208
2.87275
2.35573
2.43336
0.818848
0.263819
0.32864
-1.38725
-1.96098
-1.91946
-3.67341
-4.24003
-4.24956
4.62479
4.13544
4.18865
2.64678
2.13758
2.18196
0.59127
0.0530614
0.0996577
-1.55153
-2.10168
-2.07
-3.74843
-4.29462
-4.29937
4.44746
3.95434
3.99489
2.46076
1.94909
1.99263
0.425468
-0.109361
-0.0710077
-1.67597
-2.2101
-2.18557
-3.8113
-4.34318
-4.34562
4.30629
3.81182
3.84454
2.32317
1.81069
1.84226
0.305996
-0.225121
-0.196389
-1.7701
-2.29375
-2.27478
-3.86265
-4.38424
-4.3856
4.1932
3.6985
3.72451
2.21447
1.70429
1.72854
0.206689
-0.31811
-0.297394
-1.84327
-2.35933
-2.34446
-3.90431
-4.41828
-4.41909
4.10157
3.60736
3.62841
2.12719
1.62012
1.63945
0.129049
-0.389546
-0.3732
-1.90072
-2.41096
-2.39914
-3.93787
-4.44606
-4.44668
4.02607
3.5327
3.55008
2.05611
1.55206
1.56778
0.0667006
-0.446695
-0.433517
-1.94697
-2.4525
-2.44292
-3.96523
-4.46884
-4.46925
3.96296
3.47062
3.48516
1.99732
1.49614
1.50915
0.0156358
-0.493244
-0.482457
-1.98475
-2.48644
-2.47857
-3.98786
-4.48783
-4.48805
3.90937
3.41811
3.43046
1.94789
1.44933
1.46019
-0.0268391
-0.531799
-0.522822
-2.0161
-2.51463
-2.50807
-4.00688
-4.50385
-4.50389
3.86329
3.37312
3.38378
1.9058
1.40962
1.41899
-0.0628291
-0.564286
-0.556659
-2.04261
-2.53847
-2.53287
-4.0231
-4.5176
-4.51744
3.82307
3.33392
3.34328
1.86928
1.37526
1.38343
-0.093784
-0.592195
-0.585602
-2.06543
-2.559
-2.55411
-4.03722
-4.52962
-4.52926
3.7873
3.29915
3.30749
1.83705
1.34496
1.3522
-0.120933
-0.616603
-0.610786
-2.08538
-2.577
-2.57271
-4.04975
-4.54037
-4.53979
3.75501
3.2678
3.27538
1.80811
1.31772
1.32429
-0.145184
-0.638385
-0.633145
-2.10328
-2.59317
-2.58929
-4.06113
-4.55019
-4.54937
3.72529
3.23897
3.24599
1.78158
1.29277
1.29883
-0.167205
-0.658219
-0.653413
-2.11958
-2.60799
-2.60438
-4.07173
-4.55942
-4.55834
3.69731
3.21184
3.21852
1.75686
1.26954
1.27519
-0.187529
-0.676538
-0.672085
-2.13483
-2.62191
-2.61849
-4.08192
-4.56837
-4.56696
3.66999
3.18537
3.19201
1.73332
1.24762
1.25298
-0.206067
-0.693378
-0.689338
-2.14944
-2.63549
-2.63207
-4.09218
-4.57746
-4.5756
3.64134
3.15723
3.16478
1.7094
1.22712
1.23195
-0.21979
-0.707033
-0.704455
-2.16483
-2.65024
-2.64619
-4.10351
-4.58748
-4.58495
9.72034
9.61053
9.72533
9.44252
9.64713
9.6221
10.2257
9.99634
9.80519
10.2872
10.1451
10.4985
9.42334
9.82123
9.80611
11.2581
10.4361
10.3779
9.89781
10.2884
11.2497
8.73993
9.53317
9.02348
9.38857
8.43365
9.28774
6.01075
7.33359
8.12725
6.01031
6.69459
5.45091
3.50565
3.25308
4.66676
0.456101
1.87168
1.98537
1.54693
1.74271
0.383009
-2.10765
-2.12703
-0.808873
9.52392
9.21259
8.95836
9.54442
9.5433
9.72233
10.3868
10.5531
9.94052
12.3516
11.3477
11.3704
10.849
11.1515
11.8779
16.1518
14.7044
13.4878
16.253
15.7052
17.8969
12.4465
13.9115
14.0324
16.1564
13.888
15.7932
8.84862
11.4964
12.9321
9.08283
10.1983
8.07374
3.72704
3.92698
6.30478
-0.0918924
1.80687
1.37307
2.04229
2.00548