/*--------------------------------*- C++ -*----------------------------------*\
| =========                 |                                                 |
| \\      /  F ield         | OpenFOAM: The Open Source CFD Toolbox           |
|  \\    /   O peration     | Version:  5.x                                   |
|   \\  /    A nd           | Web:      www.OpenFOAM.org                      |
|    \\/     M anipulation  |                                                 |
\*---------------------------------------------------------------------------*/
FoamFile
{
    version     2.0;
    format      ascii;
    class       volScalarField;
    location    "3600";
    object      p_rgh;
}
// * * * * * * * * * * * * * * * * * * * * * * * * * * * * * * * * * * * * * //

dimensions      [0 2 -2 0 0 0 0];

internalField   nonuniform List<scalar> 
6445
(
1.29726
1.40391
1.52753
1.70775
1.93324
2.21897
2.56046
2.9613
3.38502
3.80316
4.09586
4.12754
3.78692
3.09169
2.1903
1.24948
0.410904
-0.311694
-0.892691
-1.35302
-1.7015
-1.96788
-2.14581
-2.29391
1.26293
1.38018
1.49786
1.67742
1.89875
2.18481
2.52946
2.94817
3.39981
3.88476
4.26057
4.35178
3.99966
3.22206
2.21794
1.20265
0.341054
-0.391939
-0.966736
-1.41877
-1.75517
-2.01564
-2.18237
-2.34211
1.18945
1.31151
1.41803
1.59066
1.80078
2.08452
2.43712
2.89997
3.42968
4.08163
4.64424
4.87085
4.49132
3.523
2.28723
1.06087
0.131736
-0.624302
-1.18064
-1.60513
-1.90809
-2.14493
-2.28735
-2.44565
1.09333
1.21115
1.3007
1.45689
1.64463
1.91467
2.26558
2.78187
3.39502
4.08336
5.16684
5.88674
5.71734
4.49219
2.76751
0.711363
-0.256935
-1.01693
-1.52429
-1.89297
-2.13873
-2.33238
-2.4384
-2.57829
0.981734
1.08631
1.15191
1.27871
1.42651
1.65807
1.97895
2.51516
3.28146
4.2278
5.71358
7.34991
7.69475
5.9039
3.25377
0.178378
-0.892373
-1.59848
-2.00675
-2.27777
-2.4367
-2.56421
-2.62108
-2.72605
0.861127
0.943389
0.977377
1.05934
1.14364
1.29503
1.52267
1.95855
2.72994
4.01798
6.41016
10.1237
11.9701
7.72219
3.07586
-0.981232
-1.94225
-2.42715
-2.64396
-2.755
-2.79048
-2.82661
-2.82183
-2.87589
0.740596
0.792703
0.788908
0.811312
0.80772
0.827172
0.869244
1.00459
1.42575
2.65362
5.46349
13.1451
23.6253
8.48451
0.905498
-3.15889
-3.53657
-3.5263
-3.42188
-3.29871
-3.17467
-3.09677
-3.02104
-3.01091
0.630406
0.648013
0.604972
0.56024
0.454675
0.303767
0.0767185
-0.293842
-0.681988
-0.349529
0.162359
3.25612
-2.55529
-5.61028
-6.43936
-5.60389
-4.80749
-4.262
-3.8492
-3.54552
-3.34249
-3.19426
-3.11274
0.5403
0.524637
0.448674
0.343848
0.147704
-0.162347
-0.652882
-1.53126
-2.85771
-4.04043
-7.72999
-18.2122
-27.0989
-15.1569
-9.91026
-7.608
-5.98726
-4.99835
-4.30884
-3.84238
-3.52532
-3.31514
-3.16422
0.477424
0.435893
0.341433
0.200261
-0.0442526
-0.437001
-1.05854
-2.15196
-3.92113
-6.10171
-11.5302
-24.8774
-38.3283
-21.1462
-11.8955
-8.73878
-6.67681
-5.42576
-4.56863
-4.00304
-3.60909
-3.36054
-3.15267
0.444254
0.388665
0.294274
0.14966
-0.0861076
-0.454733
-1.02134
-1.9441
-3.44655
-5.56137
-9.79062
-18.425
-34.1051
-20.6634
-11.5481
-8.57342
-6.64975
-5.41986
-4.56166
-3.98886
-3.57247
-3.31711
-3.07302
0.437841
0.380987
0.303201
0.184636
0.004882
-0.255447
-0.6298
-1.13822
-1.92783
-3.18419
-4.74086
-6.19002
-20.9318
-15.244
-9.32441
-7.31914
-5.97203
-5.00655
-4.297
-3.80243
-3.41728
-3.18575
-2.9293
0.451001
0.403197
0.351584
0.275693
0.173501
0.0522049
-0.0936274
-0.174138
-0.231431
-0.471895
0.295675
3.80647
-6.90116
-8.35068
-6.40209
-5.57707
-4.92852
-4.33421
-3.85032
-3.48462
-3.16757
-2.98117
-2.73367
0.474773
0.442156
0.419005
0.388594
0.360388
0.359898
0.39665
0.601597
1.00161
1.43913
3.23651
8.1765
16.4174
2.08715
-2.9716
-3.85646
-3.9202
-3.83101
-3.57925
-3.31985
-3.09304
-2.8586
-2.72624
-2.50294
0.500861
0.485388
0.486129
0.4927
0.518795
0.596178
0.735554
1.05424
1.58966
2.22912
3.71623
6.11159
7.52452
3.1906
-0.437682
-2.14272
-2.64889
-2.88042
-2.87037
-2.78758
-2.68086
-2.52522
-2.44521
-2.25437
0.522737
0.522982
0.540922
0.573214
0.63151
0.745659
0.920822
1.23868
1.72095
2.27919
3.20262
4.16601
4.37008
2.55698
0.429699
-1.15459
-1.77987
-2.13802
-2.2711
-2.30324
-2.28487
-2.19466
-2.15879
-2.00282
0.536779
0.549935
0.578174
0.625074
0.697419
0.819661
0.99105
1.26001
1.63366
2.04547
2.56466
2.93227
2.87052
1.90544
0.63697
-0.611329
-1.20573
-1.58597
-1.78709
-1.88437
-1.92672
-1.88497
-1.8822
-1.75948
0.541357
0.564018
0.596775
0.64968
0.723735
0.837773
0.986912
1.19565
1.46323
1.74344
2.02399
2.14643
2.02241
1.42634
0.622446
-0.316134
-0.829207
-1.18303
-1.4061
-1.53397
-1.61232
-1.60433
-1.62527
-1.53177
0.536354
0.565254
0.59837
0.651475
0.719979
0.818295
0.939233
1.09239
1.27415
1.45786
1.60615
1.62288
1.49263
1.08746
0.545408
-0.157028
-0.581512
-0.890815
-1.11017
-1.24647
-1.34295
-1.35672
-1.39244
-1.32356
0.522651
0.555048
0.585887
0.635716
0.695097
0.77559
0.868955
0.976678
1.09473
1.21297
1.28719
1.25895
1.13873
0.845124
0.459863
-0.0717278
-0.416483
-0.678259
-0.881054
-1.01304
-1.11566
-1.14212
-1.18574
-1.13669
0.501625
0.535391
0.562534
0.607337
0.656458
0.719981
0.789291
0.862272
0.93522
1.01042
1.04316
0.998982
0.890879
0.667926
0.382417
-0.0261177
-0.304402
-0.522267
-0.703217
-0.824367
-0.925523
-0.958365
-1.005
-0.971412
0.474828
0.508439
0.531335
0.570509
0.609664
0.658425
0.708058
0.755529
0.797458
0.844645
0.853682
0.803449
0.70975
0.534458
0.316823
-0.00191543
-0.226562
-0.406376
-0.564395
-0.671989
-0.767216
-0.802258
-0.848615
-0.826754
0.443761
0.4762
0.494862
0.528517
0.558734
0.595359
0.629546
0.658805
0.679874
0.708834
0.704243
0.653386
0.574283
0.433354
0.262934
0.01076
-0.171181
-0.319039
-0.455202
-0.548729
-0.635704
-0.670302
-0.714306
-0.701095
0.409778
0.440431
0.455204
0.483812
0.506437
0.533462
0.55592
0.572553
0.579957
0.597132
0.585366
0.53888
0.469674
0.355185
0.219168
0.0171986
-0.130834
-0.252272
-0.368585
-0.448703
-0.526461
-0.559071
-0.59953
-0.592504
0.374018
0.402577
0.413969
0.438195
0.454628
0.474306
0.488099
0.496178
0.494897
0.504625
0.489634
0.447434
0.387496
0.293798
0.18362
0.0202673
-0.100784
-0.200491
-0.299239
-0.367171
-0.435617
-0.465396
-0.501736
-0.498986
0.337427
0.363803
0.372378
0.392895
0.4044
0.418575
0.426093
0.428584
0.422058
0.427217
0.41119
0.373383
0.321847
0.244541
0.154544
0.0214632
-0.0778968
-0.159775
-0.243282
-0.300428
-0.359923
-0.386496
-0.418539
-0.418604
0.30073
0.324919
0.331195
0.34863
0.356327
0.366503
0.36964
0.368679
0.359236
0.361719
0.345957
0.312541
0.268353
0.204357
0.130457
0.0214944
-0.0602823
-0.127422
-0.197713
-0.245419
-0.296625
-0.319897
-0.347738
-0.349525
0.264465
0.286563
0.291018
0.305943
0.310771
0.3181
0.318263
0.315328
0.304517
0.305588
0.290887
0.261621
0.224028
0.170987
0.110215
0.020799
-0.0465664
-0.101494
-0.160395
-0.199912
-0.243549
-0.263557
-0.287425
-0.290113
0.229016
0.249161
0.252196
0.265078
0.267784
0.273141
0.271392
0.267521
0.256391
0.256943
0.243803
0.218646
0.186681
0.142858
0.0929289
0.0196026
-0.0357936
-0.080491
-0.129564
-0.162011
-0.198813
-0.21571
-0.235902
-0.238882
0.194662
0.212973
0.214915
0.226113
0.2273
0.231335
0.228457
0.224359
0.213605
0.214225
0.202897
0.181535
0.154638
0.118725
0.0778946
0.0179997
-0.0273196
-0.0633733
-0.103912
-0.130178
-0.160863
-0.174834
-0.191668
-0.194496
0.16159
0.178161
0.179254
0.189042
0.189165
0.192327
0.188877
0.18501
0.175066
0.176147
0.166793
0.148989
0.12671
0.0975481
0.0645473
0.0160526
-0.020645
-0.049273
-0.0823299
-0.103212
-0.128427
-0.139641
-0.153441
-0.155807
0.129968
0.14482
0.145252
0.1538
0.153191
0.155783
0.152157
0.148792
0.139916
0.141703
0.134402
0.120006
0.101901
0.0786778
0.0524453
0.0137621
-0.015421
-0.0376068
-0.0640495
-0.0801645
-0.100433
-0.109081
-0.120136
-0.121834
0.099762
0.112795
0.11269
0.120038
0.118961
0.121155
0.117654
0.114942
0.107312
0.110008
0.104796
0.0936662
0.0794592
0.0614935
0.0412104
0.011153
-0.0113082
-0.0277654
-0.0482072
-0.060063
-0.0758364
-0.0821102
-0.0906744
-0.0916112
0.0716302
0.0826538
0.0821343
0.0882412
0.0869159
0.0887562
0.0855615
0.0834248
0.0769548
0.0803303
0.0771421
0.0692248
0.0588358
0.0454849
0.0304846
0.0080866
-0.00819067
-0.0195081
-0.0344964
-0.0425771
-0.054233
-0.0583615
-0.0646482
-0.0648212
0.0433462
0.0514753
0.0506533
0.0551147
0.0538143
0.0552551
0.052793
0.0514598
0.0467329
0.0515525
0.050453
0.0461222
0.0398638
0.0302704
0.0198322
0.00490001
-0.00525866
-0.0117385
-0.0212205
-0.0257303
-0.0332072
-0.0353677
-0.0393987
-0.0390269
0.0249047
0.0305139
0.0298419
0.0328746
0.0318721
0.0327536
0.0305906
0.028608
0.0230036
0.0240886
0.0232516
0.023313
0.0237994
0.0148458
0.00845387
-0.000259149
-0.00447901
-0.00703442
-0.0121925
-0.014416
-0.018761
-0.0197894
-0.0219335
-0.0212786
-14.2117
-25.4563
-0.0271695
-24.4089
-43.5042
-31.8749
-21.0561
-42.4184
-45.1742
-9.30504
-27.1727
-39.2003
1.7202
-10.0816
-22.7987
8.05051
19.1106
19.5503
3.16827
-6.06204
9.61729
23.0058
6.64484
11.7223
-5.99348
-11.4511
2.08696
-15.6481
13.9806
-22.0465
-14.4781
-5.41906
-11.1339
-20.0163
-14.7442
-21.1571
-28.5537
-24.092
-51.2214
-41.8685
-36.8829
-23.2501
-17.2253
-10.6854
-17.6459
-20.4444
-24.4996
-31.2251
-31.9831
-59.1539
-59.2666
-36.4564
-24.2214
-24.2433
-6.127
-8.37923
-15.6172
-15.707
-17.8218
-23.2438
-41.2838
-50.6134
-24.5792
-18.447
-23.2278
-19.7767
-28.4323
-10.2279
-10.1963
-16.4369
3.28196
-5.44799
6.71138
9.13257
17.0502
8.88308
4.4386
4.31976
-22.0192
-12.9391
-9.96194
-15.1899
-25.171
10.9724
-10.506
-40.3047
-21.2856
-17.6001
-20.4503
-36.1067
-31.7568
-29.5953
-23.1722
-31.3308
-34.3622
-25.7991
-31.0889
-58.1629
-51.4943
-40.7824
-50.291
-57.129
-39.4249
-49.3777
-36.9965
-25.2132
-29.9153
-23.1563
-32.6703
-26.2873
-34.217
-33.6803
-51.1913
-58.6977
-44.6641
-57.68
-50.2549
-57.6393
-58.1281
-45.6451
-16.5577
-9.57995
-24.9622
-18.9421
-29.841
-39.3598
-31.429
-37.7648
-29.355
-49.1198
-40.4546
-35.4251
0.0962129
4.68287
-7.55183
-1.43636
-8.01761
-16.8446
-26.7218
-19.6527
-18.6964
10.7223
13.2807
5.85525
10.0197
10.5407
5.0118
-3.99271
-4.34274
7.02472
-3.73901
33.7687
-0.815238
0.828095
-5.84784
-3.28353
-2.87803
-6.41437
0.0743126
-5.27991
0.72867
-3.38698
-8.22153
26.0527
-2.91293
4.95882
-8.8863
-9.234
-10.2884
-14.2825
-12.5548
-13.8054
-9.20359
3.98555
6.27782
-8.61062
-3.53197
-7.16306
-12.5799
-14.4008
-15.0091
-9.7312
6.93214
9.5084
-4.7793
-0.206429
-2.33154
37.2687
24.8857
26.6204
21.4881
26.0373
40.4553
-8.16669
-6.28498
-6.61069
23.5506
0.0583974
3.88227
-47.675
-46.8932
-60.112
-60.0187
-44.9411
-45.6737
-22.2556
-19.8419
-23.2484
6.77323
1.60047
-4.62939
-1.68141
-2.35952
-21.9691
-19.8294
-27.4416
-20.4873
-27.3421
-22.575
-17.7483
-5.48387
-4.45797
-7.13249
-21.1601
-33.2371
-31.3876
-33.1986
-33.1516
-28.7829
-29.0734
-55.2627
-55.4778
-53.7833
-47.9253
-45.2162
-50.6973
-48.627
-54.1494
-44.7788
-38.4013
-35.1227
-43.9116
-40.6862
-46.2328
-30.4048
-29.1804
-34.9954
-34.5205
-56.1116
-56.3297
-54.7447
-50.0324
-50.5742
-46.6524
-47.9322
-53.9305
-58.9369
-52.3114
-50.8525
-52.1474
-51.701
-58.9405
-14.2439
-14.0902
-14.7451
-18.831
-9.5503
-13.2714
-11.8187
-21.5015
-19.2396
-20.5818
-34.1223
-35.568
-45.2236
-42.5808
-44.177
-38.2085
-39.9003
-43.9549
0.751134
3.70501
-5.36807
-5.11341
-8.34872
-0.995689
-3.33586
-3.56997
-3.56139
0.0961757
-11.0223
-12.0214
-7.71245
-19.2251
-13.1968
-13.8071
-12.7875
12.8627
15.1148
10.3708
12.8027
13.4758
7.54389
65.8692
2.77752
6.22846
2.60797
5.5895
7.46062
5.35854
13.5039
9.46254
10.7904
41.4461
2.9522
0.223771
-0.63471
5.4979
6.30275
18.4134
16.8591
18.9108
7.36022
8.25111
17.2244
14.8104
58.4172
40.9037
46.3827
44.1691
46.041
64.5021
-27.2868
-24.1777
-25.8957
-49.9018
-43.9767
-44.1558
-31.8389
-28.4908
-28.3972
-28.6661
-29.2383
-32.1688
-59.8636
-59.2547
-42.5279
-48.7599
8.82429
7.97438
0.164701
1.66524
4.58179
12.4513
10.907
13.9734
1.49191
4.09987
20.2906
-37.8728
-40.4911
-44.0329
-27.4868
-25.2909
-19.5807
-32.4457
-28.3719
-32.0298
-31.1546
-27.9074
-28.9208
-26.4111
-27.797
-30.6006
-32.3382
-34.0916
-33.1245
-35.8758
-35.7861
-33.8614
-32.4567
-31.9527
-30.248
-57.6361
-53.9058
-51.7798
-49.5577
-47.9058
-54.2109
-53.0554
-56.3107
-27.0285
-26.2954
-28.5623
-32.0686
-32.9964
-34.2406
-34.8496
-36.639
-36.0484
-35.2712
-36.0793
-33.9746
-52.8034
-57.8139
-57.1125
-54.3569
-54.4049
-48.8497
-49.5762
-50.9737
-58.2193
-55.2419
-54.2067
-55.5211
-55.4247
-58.7354
-31.3793
-31.718
-30.1419
-40.6349
-39.9191
-38.7154
-35.0342
-33.2315
-35.4227
-28.1498
-30.521
-32.1393
1.90442
2.65198
0.657698
5.47259
4.05382
3.13367
13.8397
15.0756
7.4172
8.26407
6.88467
13.3636
14.1684
12.0275
9.13472
12.1261
51.9435
23.8168
1.23071
-2.27976
-2.52214
1.40711
-3.36908
-3.78736
13.3397
11.025
40.9237
3.25114
4.82175
-12.2424
-10.5872
5.03177
5.41277
4.6786
5.05202
4.32952
6.73761
5.67439
5.32683
-6.55729
-5.80412
-8.66669
-9.68681
7.6317
7.85831
7.60219
8.66897
10.5085
-16.8662
-11.6694
-6.06513
-21.6164
-16.8172
-18.7131
-49.82
-45.4624
-60.0754
-60.0021
-42.546
-48.0365
-21.9288
-22.0629
-23.7152
-19.6463
-20.9472
-21.3142
-27.5568
-29.9575
-23.842
-26.5369
5.34409
6.72455
7.56867
1.61164
4.699
3.60911
5.6305
2.18811
-24.732
-21.771
-23.8794
-17.1155
-20.1164
-24.252
-27.8298
-28.6666
-25.1787
-27.0247
-14.9388
-12.3746
-15.32
-14.1929
-15.5432
-36.4225
-39.9164
-36.283
-37.5728
-30.5697
-24.1837
-36.9718
-31.717
-28.3584
-31.1051
-33.9143
-34.8097
-34.2258
-32.4597
-34.8949
-35.9112
-33.9825
-34.8666
-37.1658
-36.9388
-35.6703
-36.7066
-33.7923
-35.2635
-34.8943
-30.789
-31.8412
-28.7906
-30.5042
-32.8628
-33.7702
-31.9405
-33.0197
-30.0447
-31.6198
-30.9167
-57.8306
-53.7394
-51.5325
-50.2014
-52.7089
-55.0009
-52.8804
-51.6354
-31.6347
-32.4554
-31.0434
-33.6642
-32.3025
-36.8286
-34.3165
-29.9226
-27.5271
-31.5874
-30.4429
-36.8241
-36.5582
-34.5915
-37.6843
-38.7515
-37.0128
-38.0127
-37.9079
-36.903
-38.1164
-38.3142
-34.6198
-36.4286
-36.6613
-54.8141
-56.7628
-52.9363
-53.436
-55.3829
-52.5547
-50.9828
-51.653
-56.0113
-55.2739
-58.5814
-58.971
-56.0295
-55.4776
-15.7668
-15.6613
-15.2665
-14.3464
-17.91
-16.6386
-17.2051
-10.2884
-10.5017
-9.42623
-13.1884
-11.8094
-11.8207
-24.6093
-23.496
-26.6207
-25.3631
-20.5762
-20.0032
-19.1458
-22.3074
-20.8922
-21.2067
-35.6214
-34.014
-32.995
-34.089
-35.5115
-30.5683
-33.2684
-35.9773
-37.2017
-39.1026
-35.792
1.78493
2.28187
1.50909
4.24766
2.65133
2.72077
4.93239
-2.26556
0.910992
-0.697506
-17.2145
-16.7205
-18.0565
-13.3739
-15.3224
-15.2799
-16.0812
-16.7093
15.5392
16.6816
11.2142
12.9888
14.87
12.2572
2.52566
-2.84766
2.13469
0.551938
3.15763
6.56649
86.5866
65.5783
64.9581
69.7446
78.5065
92.5252
10.2599
16.5497
13.132
-21.1529
-23.2884
-25.9692
-50.5025
-51.4465
-52.0369
-59.9507
-58.9984
-21.357
-19.6213
-21.3767
-51.5902
-50.9324
-50.1786
-29.2048
-27.7072
-26.8869
-19.6874
-16.9914
-19.8588
-26.978
-26.1464
-23.6313
-23.441
-27.8563
-25.516
-27.1053
-28.8444
-27.8043
-57.7249
-52.9092
-53.6949
-52.3443
-56.0915
-55.5194
-56.716
-47.4687
-46.0604
-48.4535
-26.9263
-24.5588
-23.32
-27.2783
-28.5768
-27.2783
-51.6065
-51.9582
-51.5742
-58.3936
-57.4292
-56.2809
-56.3375
-57.793
-56.6301
-56.0755
-57.0444
-57.1651
-58.5745
-24.0657
-25.1691
-25.9791
-47.9006
-46.4468
-47.3328
-24.0969
-22.4785
-25.4559
14.3121
13.583
10.9473
9.76244
8.56095
15.0634
14.6935
6.64126
8.6341
8.45594
-0.378282
0.430221
-13.4414
-9.04977
-9.57571
-9.85381
-7.97296
-7.99294
-8.52052
-4.89237
-5.01034
-4.55229
-12.2958
-11.8359
-11.826
9.89076
8.72655
8.35689
22.1556
33.6869
32.2916
-10.5824
-11.2209
-9.98386
-6.78204
-24.8212
-22.4367
-1.21612
5.84424
10.8592
-49.3018
-49.7569
-48.6315
-45.8409
-46.9926
-47.6874
-61.2074
-60.0091
-45.834
-45.1811
-44.3917
-46.5913
-48.0882
-46.4173
-24.2216
-24.5179
-19.4411
-20.2657
-20.3701
-24.9088
-25.3117
-25.1792
-25.9342
-24.925
-22.5313
-26.0647
-24.8463
-26.0092
-18.9112
-20.4455
-21.4865
-29.8353
-30.5744
-26.1003
-27.5985
-27.9377
-5.77609
-10.1244
-11.1777
-10.2239
-12.3543
-9.6775
-18.9518
-28.8712
-27.5355
-30.4487
-29.7705
-27.7145
-31.0637
-30.9497
-55.9302
-55.4575
-42.7852
-40.8266
-43.5249
-47.5146
-45.3168
-43.5878
-28.4481
-29.571
-30.5064
-55.7604
-56.1113
-57.8325
-57.5031
-58.8453
-59.4159
-57.9949
-57.4742
-14.7397
-15.0783
-14.5451
-13.3776
-18.6032
-18.0953
-18.5461
-23.171
-24.0761
-22.788
-24.2802
-23.9352
-27.1746
-26.8663
-19.6614
-19.6657
-19.1524
-23.5909
-23.3456
-43.9277
-45.0383
-46.5608
-42.9293
-41.0758
-42.3752
-5.70387
-5.60164
-3.89695
-8.25352
-6.84578
-7.02011
-10.4201
-10.1692
-11.9804
-6.20791
-8.48679
-8.73302
-18.0782
-17.6591
-18.6038
-14.5301
-12.8431
-18.4188
16.0567
17.2644
12.5691
11.3827
11.9221
11.1108
13.1533
12.5363
11.9874
15.8453
14.4487
8.46909
10.784
10.059
32.6849
63.5037
20.4644
5.62234
5.83246
18.4504
21.5707
21.437
7.43495
7.75358
7.5518
8.44603
8.0503
7.74263
23.3337
20.237
17.9169
42.7226
60.8251
59.9854
-51.1838
-51.1679
-50.3622
-44.8657
-44.6566
-42.7947
-46.8235
-45.0562
-60.3018
-58.9317
-44.1093
-43.8879
-42.3143
-43.2883
-49.3347
-50.0146
-49.3653
8.11192
8.84395
9.35221
8.3629
8.66188
7.82747
-41.4442
-40.6123
-39.4591
-42.6141
-41.3282
-42.6158
-57.4267
-52.3244
-53.4675
-54.1805
-56.4557
-55.4184
-54.8385
-53.0969
-52.4108
-52.3457
-58.8173
-55.3447
-55.8476
-57.3933
-57.1539
-56.6195
-57.8905
-58.8305
-57.5737
-57.3539
-40.2859
-40.3635
-40.5336
-39.3479
-39.7707
-39.8807
14.7025
15.245
14.3135
14.6014
14.3976
13.4901
13.4863
11.7984
12.5048
11.5926
11.5898
11.6264
9.41578
8.74491
9.71458
12.2604
5.55523
5.94858
14.4
41.9403
35.6154
43.6653
20.9418
26.2571
32.0238
-1.53137
-1.37359
-2.60483
1.18315
-0.231252
-0.485
-4.60269
-4.53186
-6.23858
-3.50152
-4.34136
-4.16012
20.3897
17.0134
8.69733
-4.78396
-8.33275
3.6045
-0.468668
-13.1037
-10.3812
-10.0624
-10.6361
5.10677
5.24885
4.49589
5.34307
4.25121
-6.92348
-7.51204
-7.37915
-4.48172
-4.03957
-4.90093
-4.86139
-4.94353
-6.26806
-8.6722
-8.81398
-7.45533
-8.15898
-8.78726
-6.99573
-7.6449
-10.8751
-11.0753
-10.1981
9.22797
9.30327
8.85241
10.3321
9.75884
9.71944
-15.3607
-12.5465
-14.3999
-22.4905
-20.8727
-17.3022
-50.3915
-48.9496
-50.1354
-51.1041
-47.5631
-47.2332
-48.5682
-47.9721
-60.5834
-60.4086
-45.1917
-45.8138
-44.2361
-44.6602
-43.5746
-44.5048
-44.1958
-48.902
-48.3765
-47.391
-46.8089
-21.8003
-23.5711
-20.8341
-20.9655
-21.5573
-28.5647
-29.0024
-28.1097
-29.9827
-29.8135
-29.4095
-24.9516
-25.6573
-25.426
-27.253
-25.7184
-25.4686
-25.8128
2.30164
3.64288
1.82052
4.19215
3.18627
-23.906
-23.3306
-24.3288
-25.323
-23.0651
-21.4527
-22.8219
-29.0154
-29.4257
-29.5642
-28.9925
-27.9568
-27.8753
-29.111
-15.933
-14.8846
-12.325
-11.5794
-18.1327
-19.6156
-17.4572
-37.5666
-36.7175
-35.1465
-38.9884
-37.8904
-39.3097
-41.1158
-38.5713
-28.3452
-29.8877
-32.435
-26.1356
-28.5734
-26.6926
-35.552
-33.2633
-34.1225
-33.9573
-35.5724
-36.031
-34.2741
-35.0936
-35.3204
-35.437
-35.0706
-37.0186
-36.7209
-35.9356
-36.0863
-31.4736
-32.4856
-31.8424
-32.4247
-32.3822
-31.507
-29.3577
-30.0891
-29.8844
-31.595
-30.3161
-29.5692
-31.0353
-31.8077
-33.2028
-33.7442
-33.583
-34.4898
-34.033
-33.2787
-32.4475
-33.0784
-32.712
-33.8009
-34.0398
-32.7668
-56.1887
-54.6598
-33.4511
-34.0048
-33.9883
-32.7446
-33.5188
-32.8104
-36.2966
-34.3688
-34.6904
-34.5672
-29.3007
-30.1128
-30.8168
-28.4667
-29.2727
-28.4003
-31.2221
-31.6359
-32.0773
-31.1014
-31.2385
-30.6945
-37.9864
-38.1421
-37.6243
-38.129
-37.4192
-36.9485
-38.0016
-37.7325
-55.0421
-56.5168
-58.9182
-57.6398
-57.0888
-57.8401
-57.712
-59.2018
-15.2201
-15.5554
-15.0868
-15.5583
-18.0836
-17.4223
-16.4683
-25.6084
-24.8812
-23.579
-25.0424
-25.4237
-26.3565
-26.9744
-27.1
-26.075
-26.5219
-25.848
-26.5826
-26.4025
-20.758
-20.2618
-20.1187
-22.8252
-21.1407
-35.1223
-34.4182
-34.9631
-32.35
-33.6656
-34.5325
-34.9125
-35.1874
-30.7459
-30.8479
-30.4078
-32.4076
-38.1727
-37.5349
-38.4795
-35.5521
-36.5229
-37.3073
1.97279
1.76746
2.28244
0.967283
1.44318
1.74995
4.3641
4.06851
4.3606
2.74461
3.4929
3.22233
4.41925
-2.76381
-2.29172
-3.57726
-3.08
0.482541
-0.0129121
0.478926
-1.63404
-0.0839433
0.00881982
-15.6705
-17.0464
-17.7372
-15.3892
-17.4805
15.2284
15.4639
12.1477
12.6472
11.0858
13.1337
12.683
12.4158
13.4324
14.0538
14.0161
11.894
110.542
89.0461
108.335
110.855
111.22
16.0441
16.9895
17.8813
15.4827
19.1147
23.3434
21.7277
25.593
22.7294
18.8181
15.6615
15.5652
15.429
15.2697
73.715
88.7376
98.4467
15.4137
16.0787
14.4902
14.1868
15.7836
15.1439
14.9932
18.4672
23.7343
20.9645
25.991
26.8129
19.0046
4.34457
5.68843
5.30595
6.32883
8.61995
7.02118
9.3613
10.7237
7.81449
10.6017
8.32614
6.47058
7.27521
4.12413
3.86016
3.26399
1.53435
1.60513
3.60706
5.05924
5.66472
6.01345
10.4954
9.16119
12.5789
18.9773
12.0752
19.1937
11.2598
9.02644
8.66615
3.00474
4.05712
1.78585
0.0289312
0.846909
1.31241
1.48487
4.49378
2.00552
6.28176
10.5397
13.2578
17.6011
16.3707
30.4697
22.939
19.6754
7.67523
4.69409
5.82989
-3.51539
-3.57427
-1.4892
-2.47671
-4.91083
0.0194187
-1.916
-2.18935
0.497815
-9.10448
-8.92047
-4.07095
-12.9552
-9.31059
-6.05317
-5.66036
-9.25607
-6.30229
-9.21058
-11.2846
-9.51442
-31.2576
-26.4186
-22.8666
-20.3226
-14.5379
-11.7724
-6.35983
-9.12573
-9.60027
-11.5946
-13.8943
-13.9175
-38.7548
-33.1066
-32.6241
-21.4528
-16.3572
-15.4878
-4.60327
-5.51907
-8.42011
-8.70818
-10.0194
-11.4146
-31.2558
-27.6658
-29.8927
-16.9176
-14.3059
-15.3965
-1.76313
-1.08181
-4.37781
-3.3665
-3.44111
-5.10018
-17.3347
-16.29
-19.2938
-10.0325
-9.99999
-12.136
0.691358
2.09405
-0.13299
1.27126
1.99622
0.88196
-3.86888
-5.0244
-7.55214
-4.08242
-5.58407
-7.68957
2.04261
3.20742
2.53588
3.75594
6.04982
6.59961
7.79676
9.83941
10.6262
3.22739
-0.0788153
-2.15205
-0.837974
-2.48771
-3.90508
2.3751
3.06497
3.22631
3.36405
4.42334
5.64133
4.57637
5.05382
7.72197
4.93222
3.2573
4.1595
2.7383
0.835563
0.277651
0.321007
-0.883946
-1.6338
2.22513
2.576
2.94488
2.72089
3.16909
4.0646
3.18902
3.24228
4.47774
3.16351
2.31849
2.98831
2.05249
0.956573
0.900492
0.630915
-0.168255
-0.536472
1.9252
2.08284
2.44072
2.14965
2.32589
2.92529
2.31297
2.25108
2.94215
2.19639
1.69187
2.13693
1.53117
0.85787
0.937008
0.646484
0.119034
-0.060659
1.61506
1.67416
1.96806
1.70148
1.75512
2.16185
1.73647
1.64341
2.07249
1.60473
1.27017
1.57089
1.16172
0.718641
0.82019
0.574862
0.216735
0.12689
1.34144
1.3513
1.58353
1.35969
1.36147
1.64013
1.34244
1.24294
1.52806
1.21547
0.976936
1.18702
0.898641
0.58934
0.68192
0.487054
0.234531
0.18775
1.11326
1.09935
1.28102
1.09855
1.075
1.27741
1.06335
0.969479
1.16343
0.946147
0.766657
0.917871
0.70752
0.481108
0.558189
0.405514
0.220823
0.195284
0.926786
0.902072
1.04495
0.896722
0.862402
1.01556
0.849565
0.773498
0.914893
0.74882
0.61036
0.723423
0.564557
0.393346
0.455777
0.335844
0.196583
0.181865
0.774732
0.745833
0.859525
0.738432
0.700332
0.817161
0.688232
0.604529
0.724953
0.598904
0.491309
0.577403
0.455976
0.323059
0.373009
0.278346
0.170662
0.161651
0.65034
0.620661
0.711959
0.612573
0.573844
0.665146
0.565063
0.494482
0.569808
0.493507
0.400595
0.466855
0.372984
0.267085
0.306895
0.231644
0.14663
0.140723
0.54804
0.519563
0.593565
0.511672
0.475292
0.547013
0.468484
0.407917
0.471021
0.406294
0.329732
0.381242
0.307895
0.222199
0.254131
0.193742
0.125556
0.121484
0.463108
0.436706
0.497574
0.429325
0.396222
0.453939
0.390532
0.338
0.38889
0.336963
0.273444
0.314428
0.255924
0.185922
0.211782
0.162847
0.107554
0.104625
0.391805
0.367835
0.418596
0.361104
0.331574
0.378865
0.32669
0.281396
0.322753
0.280767
0.227895
0.261183
0.213675
0.156187
0.177435
0.137347
0.0922089
0.090137
0.33122
0.309779
0.352692
0.303759
0.277862
0.317242
0.273663
0.234745
0.268911
0.234392
0.19044
0.21789
0.178803
0.131449
0.149168
0.116002
0.0790358
0.0776469
0.279067
0.260143
0.29691
0.25485
0.232438
0.265727
0.2288
0.195739
0.224312
0.195468
0.159028
0.182041
0.149514
0.110531
0.12556
0.0978581
0.067598
0.0667985
0.233679
0.217115
0.249072
0.212546
0.193489
0.222159
0.190381
0.162482
0.186925
0.162247
0.132191
0.151905
0.124427
0.0925155
0.105509
0.0821572
0.0575089
0.0572491
0.193556
0.17922
0.207426
0.175359
0.159412
0.18454
0.156753
0.133483
0.154801
0.133372
0.108894
0.12611
0.102607
0.0766994
0.0881605
0.0683001
0.0484287
0.0486882
0.157568
0.145314
0.1706
0.142138
0.129097
0.151504
0.126943
0.107893
0.126808
0.107859
0.0882541
0.103499
0.0832445
0.0625217
0.072837
0.0558112
0.0400797
0.0408493
0.124771
0.114441
0.137506
0.111931
0.101667
0.122032
0.100033
0.0847809
0.10191
0.08489
0.0695238
0.0833895
0.0656493
0.0495111
0.0590256
0.0442871
0.0322146
0.0335083
0.0943194
0.0857427
0.107218
0.0838803
0.0763016
0.0951793
0.0752111
0.06353
0.0793118
0.063838
0.0522697
0.0651023
0.0494202
0.0372681
0.046285
0.0333705
0.0246046
0.0264635
0.0653992
0.0583012
0.0789066
0.0570713
0.0522387
0.0701978
0.0518127
0.0438198
0.0584593
0.0444265
0.0360634
0.0481263
0.0340209
0.0253611
0.0342158
0.0226571
0.0169706
0.0194822
0.0370795
0.0309525
0.051574
0.030187
0.0283357
0.0463025
0.0291337
0.0265024
0.0391697
0.027407
0.0205009
0.0321332
0.0188495
0.0130035
0.0223225
0.0114507
0.00889817
0.0123749
0.00844546
-0.000105155
0.0240666
-0.00188421
-0.00280126
0.0220526
0.00201529
0.035292
0.0228938
0.0322294
0.0029279
0.0165495
-0.000813697
-0.00325761
0.00969545
-0.0028402
-0.00113226
0.0045732
10.6517
9.01733
6.97317
16.2125
17.5713
12.1588
19.7309
22.6732
28.9271
15.6149
16.7285
11.6013
-7.35635
-4.87717
-4.00936
-7.48725
-6.0469
-9.12681
1.04457
-2.55446
-2.85911
-18.6898
-13.9598
-15.9233
-11.4487
-12.6191
-16.405
-4.95406
-8.69501
-8.37093
-13.4972
-12.6129
-10.3387
-18.9358
-15.3845
-16.3786
-11.7486
-13.842
-17.2009
-31.3296
-29.249
-34.5119
-21.6876
-25.1367
-26.9236
-19.8121
-22.7575
-19.6851
-12.5842
-13.43
-11.2898
-19.2128
-16.0295
-14.8878
-16.8167
-16.6983
-20.185
-31.6405
-32.7545
-38.0846
-24.728
-28.3746
-27.5917
-28.058
-28.5502
-24.7658
-6.79291
-8.45492
-7.4635
-10.9271
-9.64337
-7.5748
-13.3672
-11.6024
-13.3719
-22.269
-25.0889
-28.0507
-20.2799
-22.4982
-20.2176
-26.2731
-24.5487
-21.9106
-10.3361
-13.2853
-13.7583
-12.2624
-12.749
-10.2862
-17.7724
-15.2651
-14.3638
7.94464
8.91028
7.3019
11.1008
9.43029
8.1913
7.14845
8.17738
10.7662
4.64211
6.82533
6.20612
7.53779
7.35686
4.67481
12.5334
12.4757
11.6958
-0.416413
-1.86643
-2.04697
-1.18686
-1.60723
0.103825
-5.49651
-3.48813
-3.42668
-1.14632
-2.83735
-1.38544
-4.75169
-3.92838
-2.41871
-7.95109
-5.81707
-6.39411
14.7597
14.2182
13.1254
11.0912
11.4926
12.4748
3.66885
2.90461
2.08248
5.26651
3.93236
4.77561
1.6237
2.90923
4.10271
15.665
16.1882
14.4347
11.8259
12.5702
14.2068
-0.0920027
2.79701
5.8438
-0.725159
0.715655
-1.77171
3.74974
2.516
0.921066
15.6361
15.6427
15.6247
12.1177
12.1253
11.9723
11.7797
12.9541
12.4151
12.5071
11.7427
12.0392
12.374
4.33005
4.94251
4.62058
5.64347
6.24296
5.56078
6.72304
6.87865
5.93787
6.64053
6.02252
5.24754
5.07516
4.03105
3.69161
2.93656
1.95771
1.84134
5.99404
6.62748
6.33541
8.07575
8.56159
7.84856
8.65472
8.41
7.62898
6.43437
5.67342
5.35486
3.33255
2.64479
2.51046
6.41996
7.39682
7.2739
10.9453
12.1821
11.0344
13.7233
12.7827
11.3079
8.14626
6.57185
6.40785
2.82967
1.95612
2.11287
4.64797
5.9262
6.75687
-0.230857
-1.01823
-0.072304
-8.00795
-7.61006
-5.54628
-17.2488
-15.2971
-13.2162
-21.6998
-19.2606
-18.3353
-19.6795
-17.8779
-18.3306
-13.5365
-12.8393
-14.13
-6.76962
-7.01878
-8.41244
3.5242
4.35629
4.12784
2.80203
1.11937
0.28854
-2.08253
-2.72068
-3.66258
3.63165
4.13755
4.30898
5.5496
6.25788
7.04832
6.46149
5.53111
6.27832
3.07404
2.08992
2.04545
-0.102
-0.63609
-1.10057
3.04227
3.29404
3.50704
3.80122
4.03359
4.47352
3.9004
3.51196
3.90377
2.37962
1.84378
1.93512
0.529655
0.16768
-0.041026
2.41953
2.53573
2.70776
2.70295
2.77184
3.02824
2.61583
2.40083
2.62531
1.76992
1.46073
1.55303
0.652771
0.4144
0.321642
1.90889
1.95822
2.08705
1.99606
2.00316
2.16406
1.86753
1.73033
1.87042
1.33039
1.13808
1.21116
0.611479
0.450055
0.407952
1.51867
1.53584
1.62923
1.5208
1.50359
1.61007
1.39127
1.29511
1.38834
1.01927
0.891145
0.946423
0.527907
0.414052
0.394403
1.21995
1.2209
1.29154
1.18074
1.15334
1.23138
1.06867
0.996927
1.06185
0.795677
0.705193
0.746831
0.442517
0.359157
0.349693
0.991349
0.985254
1.03841
0.947715
0.925968
0.973393
0.840594
0.785818
0.8325
0.631081
0.564192
0.595951
0.367208
0.304271
0.299593
0.813006
0.803391
0.844475
0.760499
0.732441
0.776249
0.671829
0.62266
0.661313
0.506364
0.455487
0.480092
0.304092
0.255467
0.253082
0.671882
0.660738
0.693341
0.62208
0.59298
0.624407
0.546541
0.505113
0.533909
0.411981
0.371625
0.390645
0.252542
0.214213
0.212888
0.559464
0.548104
0.573934
0.514073
0.487249
0.511339
0.447293
0.411772
0.432575
0.338496
0.305773
0.320773
0.21071
0.180019
0.179235
0.468512
0.457632
0.478532
0.427486
0.403764
0.422924
0.369734
0.339952
0.356385
0.280512
0.253613
0.26557
0.176721
0.15186
0.151366
0.393702
0.383677
0.400878
0.357087
0.33639
0.351931
0.30747
0.28241
0.295684
0.233741
0.211543
0.221254
0.148841
0.128555
0.128279
0.331268
0.322269
0.336639
0.298998
0.281148
0.294004
0.256499
0.235476
0.246368
0.195429
0.177067
0.185082
0.125674
0.10905
0.108962
0.278398
0.27048
0.282637
0.250278
0.235075
0.245736
0.21411
0.196537
0.20562
0.163546
0.14836
0.155053
0.106136
0.092503
0.0925976
0.232998
0.226165
0.236649
0.20887
0.196034
0.205242
0.178214
0.163656
0.171399
0.13651
0.123987
0.129716
0.0893798
0.0782289
0.0785144
0.193424
0.187626
0.196809
0.173012
0.162329
0.170348
0.147318
0.13537
0.14207
0.113157
0.102926
0.107944
0.0747363
0.0656764
0.0661686
0.158348
0.153542
0.161713
0.141472
0.132722
0.139798
0.120255
0.110579
0.116492
0.0926733
0.0843988
0.0888129
0.0616786
0.054405
0.0551157
0.126742
0.122874
0.130276
0.113214
0.106173
0.11257
0.09609
0.0884031
0.0937484
0.0742386
0.067694
0.0717111
0.0497666
0.0440495
0.0449996
0.097713
0.0947317
0.10158
0.087374
0.0818966
0.087806
0.0741557
0.0681944
0.073096
0.0574046
0.0523399
0.0560889
0.0386377
0.0342972
0.0355144
0.0704117
0.0682884
0.0747947
0.0633467
0.0593684
0.0648497
0.053927
0.0494915
0.05404
0.0416376
0.037898
0.0414445
0.0279239
0.0248194
0.0263537
0.0437754
0.0424992
0.0489658
0.04049
0.0381323
0.0433259
0.0354662
0.0322667
0.0364028
0.0264851
0.0237834
0.0273305
0.0171311
0.0151939
0.0171829