/*--------------------------------*- C++ -*----------------------------------*\
| =========                 |                                                 |
| \\      /  F ield         | OpenFOAM: The Open Source CFD Toolbox           |
|  \\    /   O peration     | Version:  5.x                                   |
|   \\  /    A nd           | Web:      www.OpenFOAM.org                      |
|    \\/     M anipulation  |                                                 |
\*---------------------------------------------------------------------------*/
FoamFile
{
    version     2.0;
    format      ascii;
    class       surfaceScalarField;
    location    "3600";
    object      phi;
}
// * * * * * * * * * * * * * * * * * * * * * * * * * * * * * * * * * * * * * //

dimensions      [0 3 -1 0 0 0 0];

internalField   nonuniform List<scalar> 
12915
(
0.000184748
0.137292
8.91277e-05
0.137601
1.17936e-05
0.137575
-6.67907e-05
0.137576
-0.000118843
0.137557
-0.000148564
0.137527
-0.000176264
0.137527
-0.000185592
0.13751
-0.00017124
0.137485
-0.000102652
0.137431
3.29065e-05
0.137365
0.000213702
0.137319
0.000384182
0.137329
0.000488956
0.137396
0.000508887
0.13748
0.000461226
0.137547
0.000396411
0.137565
0.00032049
0.137576
0.000249005
0.137569
0.000192601
0.137561
0.000131335
0.137559
4.61065e-05
0.137583
6.87408e-06
0.137544
0.137475
-3.70323e-05
0.137275
0.000220984
0.137343
0.000172556
0.137623
-8.56978e-07
0.137749
-0.000196666
0.137753
-0.000312605
0.137643
-0.000390938
0.137606
-0.00042646
0.137545
-0.000413375
0.137472
-0.000280598
0.137298
3.56563e-06
0.137081
0.000398921
0.136924
0.000772891
0.136955
0.000990503
0.137178
0.00099714
0.137473
0.000848554
0.137696
0.000660045
0.137754
0.000453273
0.137782
0.00031278
0.137709
0.000198139
0.137676
2.93311e-05
0.137728
-0.000161437
0.137773
-5.27005e-05
0.137435
0.137348
-0.00012342
0.13731
-0.000109215
0.137328
9.79186e-05
0.137416
9.92089e-05
0.137748
-7.84785e-05
0.137931
-0.000289102
0.137854
-0.000537085
0.137854
-0.000673736
0.137682
-0.000734902
0.137533
-0.000549152
0.0685714
0.0685413
-8.48799e-05
0.0683253
0.0682912
0.000596192
0.0681283
0.0681142
0.00124326
0.06814
0.0681682
0.0015471
0.0683873
0.068487
0.00142857
0.0688118
0.0687799
0.00105018
0.138074
0.000601591
0.138202
0.000236644
0.138147
2.60011e-05
0.13792
-9.65532e-05
0.137799
-0.000116185
0.137747
0.000109462
0.137548
0.000146143
0.137399
0.137374
-0.000183556
0.137369
-0.000237074
0.137382
-0.00024474
0.137424
-5.34408e-05
0.137557
5.29799e-05
0.137824
-3.10026e-05
0.137938
-0.000366924
0.13819
-0.000718033
0.138033
-0.000530338
0.137947
-0.000601193
0.0685334
-0.00049239
0.000412494
0.0682135
-0.000300745
0.000117887
0.0679094
0.000100968
-0.000356142
0.0678881
0.00060808
-0.000807171
0.0682632
0.00093125
-0.000842966
0.0688607
0.000794047
0.00133096
0.138522
-0.000973373
-0.00080483
0.000933154
0.1386
0.000713502
0.138367
0.000505763
0.138128
0.000315589
0.137989
0.000344917
0.137718
0.000317428
0.137575
0.00023693
0.137479
0.137448
-0.000221532
0.137434
-0.000300597
0.137461
-0.000390859
0.137514
-0.000419043
0.137585
-0.000350736
0.137756
-0.000401146
0.137988
-0.000361197
0.13815
-0.000552134
0.138224
-0.000706255
0.138404
-0.000302906
0.0687127
-0.0685894
-0.00040667
-0.000422946
0.000356254
-0.0340546
0.0340279
-0.000329551
0.000164217
-0.0338165
0.0337337
-8.1455e-05
-0.000225211
-0.0337657
0.0336459
0.000345043
-0.00059069
-0.0340163
0.0340101
0.000596882
-0.000558455
-0.0344667
0.0343346
0.000690602
0.00195794
0.13933
-0.00134858
-0.00141813
0.00150444
0.139054
0.00113578
0.138736
0.000791271
0.138472
0.000660588
0.138119
0.000522009
0.137856
0.000386671
0.137711
0.000273396
0.137593
0.137523
-0.00025632
0.137507
-0.000339443
0.137544
-0.000444733
0.137619
-0.000578587
0.137719
-0.000681992
0.137859
-0.000804799
0.138111
-0.00105492
0.1384
-0.00139953
0.138569
-0.000424652
0.138514
-0.00108498
-0.0690484
0.0688255
-0.000220618
1.88477e-05
-0.0341085
0.000498536
0.034061
-0.00045107
-0.0334364
0.000420142
0.0333786
-0.000362392
-0.0331188
-0.000291377
0.032864
0.000546112
-0.0339469
-0.000826673
0.0337002
0.00107333
-0.0343051
-0.00107151
0.0344868
0.00088975
0.00270183
0.140066
-0.00195989
-0.00147765
0.00194952
0.139806
0.00134812
0.139337
0.00101747
0.138803
0.000767179
0.13837
0.000544483
0.138079
0.000405712
0.137849
0.000294429
0.137704
0.137597
-0.000262372
0.137566
-0.000341406
0.137623
-0.000450774
0.137729
-0.00059206
0.13786
-0.000792282
0.138059
-0.00101482
0.138334
-0.00135264
0.138738
-0.00204833
0.139264
-0.00153728
0.139664
-0.00166085
-0.0689012
0.0693178
-0.000944225
-0.0010097
-0.0342961
0.000955795
0.0342281
-0.000887726
-0.0330357
0.00105453
0.0332536
-0.00127245
-0.000167752
-0.0315725
0.0306249
0.0011153
-0.00195005
-0.0338808
0.0340691
0.00176173
-0.00167404
-0.0346162
0.0347388
0.00155145
0.00321632
0.141825
-0.00257477
-0.00239999
0.00207808
0.140944
0.00144276
0.139972
0.00103375
0.139212
0.000724443
0.138679
0.000520345
0.138283
0.00037483
0.137995
0.000287643
0.137791
0.137659
-0.000260887
0.137614
-0.000334516
0.137697
-0.00041214
0.137806
-0.000539284
0.137987
-0.000709795
0.13823
-0.000967833
0.138592
-0.001305
0.139075
-0.00190117
0.139861
-0.0015953
0.140818
-0.00145951
-0.0698014
0.0703742
-0.001092
-0.00107604
-0.0348258
0.00153144
0.0351224
-0.00182806
-0.0341531
0.00338522
0.0350422
-0.00427424
-0.00477572
-0.0348869
0.035742
0.00392065
-0.00231123
-0.0354627
0.035805
0.00196886
0.00284422
0.143658
-0.00223517
-0.00244228
0.00182984
0.141959
0.00124185
0.14056
0.000829324
0.139625
0.000571151
0.138937
0.000405921
0.138448
0.00030617
0.138095
0.000235851
0.137861
0.137684
-0.000253073
0.137653
-0.000298677
0.137742
-0.000370271
0.137878
-0.000447293
0.138064
-0.000558708
0.138341
-0.000706432
0.138739
-0.000930675
0.139299
-0.0011973
0.140127
-0.00102109
0.141325
-0.000683819
-0.0708676
0.0713023
-0.000782435
-0.000673348
-0.0359882
0.00114196
0.0362103
-0.00136398
-0.0369963
0.00227031
0.0373881
-0.00140046
-0.00126163
-0.00365574
-0.0381596
0.0387351
0.00308026
-0.00180459
-0.0368648
0.0371694
0.00149993
0.00160801
0.144637
-0.00102626
-0.00156132
0.00107598
0.142491
0.000706629
0.14093
0.000469252
0.139862
0.000329462
0.139077
0.000237695
0.13854
0.00018899
0.138143
0.000171312
0.137879
0.13768
-0.000228067
0.137675
-0.000264604
0.137779
-0.000286722
0.1379
-0.000325949
0.138104
-0.000353103
0.138369
-0.000366535
0.138753
-0.000351423
0.139284
-0.000246167
0.140022
-0.00013832
0.141048
0.000169093
-0.0714785
0.0715339
-0.000159606
-3.41477e-05
-0.0365616
0.000217443
0.0365702
-0.000226043
-0.0379718
0.00013256
0.0379019
-0.000104761
4.20217e-05
-0.000566744
-0.0396093
0.0395959
0.000580145
-0.000428329
-0.0377451
0.0378192
0.000354201
-9.79734e-05
0.144411
0.000438231
-0.000113627
7.98989e-07
0.142392
1.63888e-05
0.140914
2.28165e-05
0.139855
2.02758e-05
0.13908
3.73113e-05
0.138523
5.86538e-05
0.138122
7.82623e-05
0.137859
0.137636
-0.000206828
0.13769
-0.000205422
0.137778
-0.000210611
0.137905
-0.000193797
0.138087
-0.000154067
0.138329
-5.56716e-05
0.138654
0.000149539
0.139079
0.00056608
0.139605
0.000579076
0.140264
0.000771283
-0.0713079
0.0710198
0.000393103
0.00047404
-0.0363064
-0.000613392
0.0361477
0.000772108
-0.0368901
-0.00155809
0.0365002
0.000960419
0.000987555
0.00216138
-0.0390084
0.0385857
-0.00173862
0.000963252
-0.0376692
0.0375253
-0.000819438
-0.0016994
0.143262
0.00162999
0.00121829
-0.00102903
0.141722
-0.000654921
0.14054
-0.000430294
0.139631
-0.000279608
0.138929
-0.000186533
0.13843
-9.66422e-05
0.138032
-2.54714e-05
0.137788
0.137554
-0.000172589
0.137685
-0.000168763
0.137774
-0.000150953
0.137887
-0.000109073
0.138045
-2.42975e-05
0.138244
0.000136462
0.138494
0.000414816
0.1388
0.000892226
0.139128
0.00091482
0.139313
0.0009282
-0.0706224
0.0702035
0.000661963
0.000671764
-0.035551
-0.000971528
0.0353476
0.00117488
-0.0351498
-0.00206797
0.0347379
0.0024798
0.00336762
-0.0371058
0.0366055
-0.00286727
0.00176774
-0.03686
0.036603
-0.00151075
-0.00268661
0.141702
0.00219784
0.00204872
-0.00174525
0.14078
-0.00117872
0.139974
-0.00080617
0.139258
-0.000557997
0.138681
-0.000380936
0.138253
-0.000243314
0.137895
-0.000121434
0.137666
0.13745
-0.000159739
0.137681
-0.000145889
0.13776
-0.000131848
0.137873
-9.19181e-05
0.138005
-2.72785e-06
0.138155
0.000146812
0.138344
0.000323547
0.138624
-0.000612506
0.140064
0.000731196
0.139032
-0.0010628
-0.0698056
0.0700302
0.000608938
-0.000102382
-0.0348006
-0.000856685
0.0346554
0.00100189
-0.0337102
-0.00157366
0.0334413
0.00184251
0.00322346
-0.0351485
0.0347319
-0.00280682
0.0018759
-0.0358384
0.0356032
-0.00164069
-0.00285575
0.140581
0.00177744
0.00219911
-0.00202188
0.139946
-0.00146816
0.13942
-0.00105576
0.138846
-0.000770629
0.138396
-0.000541288
0.138024
-0.000367932
0.137721
-0.00021582
0.137514
0.137323
-0.000155221
0.137683
-0.000176309
0.137781
-0.000658728
0.138356
-0.000818352
0.138165
-0.000939066
0.138276
-0.000991601
0.138397
-0.000936193
0.138568
0.000400972
0.138727
0.000105217
0.13892
0.000407837
-0.0695474
0.0699816
2.20805e-05
-0.000351053
-0.0344152
-0.000158931
0.0343762
0.000197853
-0.0332264
-0.000201693
0.0334053
2.27734e-05
-0.0128627
0.000727843
0.0276972
-0.00160907
-0.0139534
0.00171025
-0.0339613
0.0338763
-0.00162523
-0.0351115
0.00126511
0.0349738
-0.0011275
-0.00130354
0.139723
0.00174419
0.000417241
-0.00082304
0.139466
-0.00141283
0.14001
-0.00111517
0.138548
-0.00086778
0.138148
-0.000645905
0.137802
-0.000456503
0.137532
-0.000303175
0.137361
0.137178
-0.000294295
0.13783
-0.000476208
0.137963
-0.000166235
0.138046
-0.000134352
0.138133
-8.2798e-05
0.138224
-2.28939e-05
0.138337
9.58896e-05
0.138449
0.000302229
0.13852
0.00044357
0.138509
0.000270163
-0.0701777
0.0697165
0.000297661
0.000607113
-0.0343713
-0.000202396
0.034387
0.000186647
-0.0334524
-6.3373e-05
0.0335336
-1.78138e-05
-0.0291954
0.000504953
0.029485
-0.000794609
-0.0338603
0.00112323
0.0338872
-0.00115017
-0.0347207
0.0010858
0.0346705
-0.00103554
-0.00237263
0.138934
0.00153209
0.00162993
-0.00178408
0.138877
-0.000457345
0.138683
-0.000289568
0.13838
-0.000809314
0.138668
-0.000669094
0.137662
-0.000516528
0.137379
-0.000359034
0.137203
0.137038
-0.000116544
0.137801
-0.000123693
0.13797
-0.000109766
0.138032
-7.90574e-05
0.138102
-4.67459e-05
0.138192
-1.53379e-05
0.138305
2.74222e-05
0.138407
6.37744e-05
0.138484
7.89388e-05
0.1385
-6.67448e-06
-0.0695572
0.0694327
4.31612e-05
0.000160354
-0.0344785
-6.49581e-05
0.0345437
-1.78058e-07
-0.0337276
0.00011489
0.0337763
-0.00016353
-0.0300884
0.000403089
0.0302357
-0.000550379
-0.0339826
0.000739602
0.034012
-0.00076896
-0.0345883
0.000779561
0.0345729
-0.000764133
-0.00218006
0.138543
0.00122854
0.00134228
-0.00177649
0.138474
-0.0013766
0.138283
-0.00105179
0.138056
-0.000231942
0.137848
-0.000189458
0.137619
-0.000499392
0.137689
-0.000391624
0.137096
0.136916
-9.42829e-05
0.137746
-0.000108982
0.137985
-9.83336e-05
0.138021
-9.86622e-05
0.138102
-9.7321e-05
0.13819
-8.44342e-05
0.138292
-9.68225e-05
0.138419
-0.000136284
0.138524
-9.17983e-05
0.13859
-0.000134506
-0.0694027
0.0693417
-1.35934e-05
-1.72199e-05
-0.0347622
-0.000132669
0.0349293
-3.44544e-05
-0.0338867
0.000170541
0.033913
-0.00019692
-0.0305865
0.000337736
0.0306818
-0.00043303
-0.0340854
0.000544998
0.034105
-0.000564566
-0.034554
0.0005863
0.0345518
-0.000584098
-0.00187989
0.138346
0.000995721
0.00108106
-0.00163843
0.138232
-0.00137526
0.13802
-0.0011186
0.137799
-0.000867811
0.137597
-0.000661521
0.137413
-0.000236451
0.137264
-0.000252997
0.137112
0.136975
-0.000112874
0.137705
-0.000120157
0.137992
-0.000134647
0.138036
-0.00013357
0.138101
-0.000150485
0.138207
-0.000175983
0.138318
-0.000206549
0.13845
-0.000272375
0.138589
-0.000185145
0.138706
-0.000203221
-0.0693839
0.0694218
-0.000122669
-0.000100389
-0.0349738
7.94596e-05
0.0348775
1.68402e-05
-0.0339746
0.000183429
0.0339891
-0.000197859
-0.0309243
0.00029209
0.0309939
-0.000361674
-0.0341527
0.000431929
0.034165
-0.000444246
-0.0345539
0.000463934
0.0345539
-0.000463904
-0.00160639
0.138241
0.000825681
0.000885383
-0.00145058
0.138076
-0.00127044
0.13784
-0.00108754
0.137616
-0.000904097
0.137414
-0.000739503
0.137248
-0.000574339
0.137099
-0.000462518
0.137
0.136857
-0.000133184
0.137677
-0.000139851
0.137999
-0.000155254
0.138051
-0.000179964
0.138126
-0.000202408
0.13823
-0.000235088
0.138351
-0.000286012
0.138501
-0.000361742
0.138665
-0.000232727
0.138817
-0.000239731
-0.0694666
0.0694998
-0.000145276
-0.000120702
-0.0347179
0.000148001
0.0346766
-0.000106706
-0.0340518
0.000124056
0.0341101
-0.000182391
-0.031178
0.000258503
0.0312327
-0.000313184
-0.0341942
0.000359921
0.0342025
-0.00036821
-0.0345612
0.000381083
0.0345629
-0.000382795
-0.00138608
0.138185
0.000698802
0.000743389
-0.0012839
0.137974
-0.00115716
0.137713
-0.00102252
0.137481
-0.000879285
0.137271
-0.000747413
0.137116
-0.000624206
0.136976
-0.000505789
0.136882
0.136723
-0.00015408
0.13766
-0.000174033
0.138019
-0.000188527
0.138066
-0.000213491
0.138151
-0.00024459
0.138261
-0.000285695
0.138392
-0.000341811
0.138557
-0.00041668
0.13874
-0.000258081
0.138917
-0.000258976
-0.0695374
0.0695647
-0.000155796
-0.000129574
-0.0346704
0.000158936
0.0346782
-0.000166668
-0.0345887
2.85306e-05
0.034687
-0.000126865
-0.0313809
0.000232724
0.0314258
-0.000277668
-0.0342201
0.000310366
0.0342244
-0.000314713
-0.0345696
0.000323775
0.034571
-0.000325216
-0.00121138
0.138155
0.000603869
0.00063745
-0.00114318
0.137906
-0.00104816
0.137618
-0.000945245
0.137379
-0.000836704
0.137162
-0.000727443
0.137007
-0.000622712
0.136871
-0.000527433
0.136787
0.136586
-0.000167245
0.137647
-0.000184163
0.138035
-0.000218551
0.1381
-0.00024129
0.138174
-0.000277639
0.138297
-0.000322816
0.138437
-0.000378259
0.138612
-0.000447762
0.13881
-0.000265747
0.138992
-0.000256289
-0.0695949
0.0695991
-0.000155434
-0.000114549
-0.0346992
0.000157589
0.0347045
-0.000162932
-0.0343994
0.000119431
0.0342563
2.36646e-05
-0.0315509
0.000207774
0.0315934
-0.000250295
-0.0342352
0.000274277
0.0342368
-0.0002759
-0.0345764
0.000281299
0.0345774
-0.000282374
-0.00107238
0.13814
0.000531433
0.000556529
-0.00102477
0.137858
-0.000960207
0.137553
-0.000874025
0.137292
-0.00079531
0.137083
-0.000698024
0.13691
-0.000617435
0.13679
-0.000522161
0.136691
0.136468
-0.000187289
0.137644
-0.000214999
0.138063
-0.000237601
0.138123
-0.000271175
0.138207
-0.000302718
0.138329
-0.000349145
0.138483
-0.000401848
0.138665
-0.000465748
0.138873
-0.000269696
0.139065
-0.000269624
-0.0695524
0.0695656
-0.00013739
-0.000145455
-0.0347332
0.000101528
0.0347377
-0.000106045
-0.0340559
0.000158267
0.0340527
-0.000155088
-0.0318535
0.000129488
0.0319432
-0.000219141
-0.0342431
0.000246412
0.0342433
-0.000246643
-0.0345812
0.000249392
0.0345817
-0.000249948
-0.000960022
0.138131
0.00047453
0.000494067
-0.00092849
0.137827
-0.000878186
0.137503
-0.000817958
0.137232
-0.000742236
0.137008
-0.000676341
0.136844
-0.000595516
0.13671
-0.000513727
0.13661
0.13637
-0.00020638
0.13765
-0.000221241
0.138078
-0.000253396
0.138155
-0.000288747
0.138243
-0.000321313
0.138361
-0.000367236
0.138529
-0.000416487
0.138714
-0.00047271
0.13893
-0.000268797
0.139131
-0.000269838
-0.069584
0.0696001
-0.000143116
-0.000141816
-0.0347306
0.000149688
0.034733
-0.000152071
-0.0340443
0.00015891
0.0340412
-0.000155808
-0.0324159
0.000144939
0.0324767
-0.000205745
-0.0342453
0.000224954
0.0342453
-0.000224951
-0.0345841
0.000225541
0.0345834
-0.000224935
-0.000870612
0.138127
0.000429805
0.000445263
-0.000846481
0.137803
-0.00080844
0.137465
-0.000762267
0.137186
-0.000708342
0.136954
-0.000641328
0.136777
-0.000573136
0.136641
-0.000510876
0.136547
0.136282
-0.000209355
0.13765
-0.000240603
0.138109
-0.000266274
0.13818
-0.000294758
0.138271
-0.000342262
0.138409
-0.000379199
0.138566
-0.000434886
0.13877
-0.000500357
0.138995
-0.000282441
0.139195
-0.000282185
-0.0696229
0.0696366
-0.000148411
-0.000147756
-0.0347444
0.000153158
0.0347457
-0.000154493
-0.03403
0.000151579
0.0340262
-0.000147842
-0.0325304
0.000180791
0.0325453
-0.000195744
-0.034247
0.000201858
0.034247
-0.000201828
-0.0345846
0.000205436
0.0345852
-0.000206056
-0.000797132
0.138124
0.000393498
0.000406544
-0.000780395
0.137786
-0.000756992
0.137442
-0.000714165
0.137143
-0.000664232
0.136904
-0.000616052
0.136729
-0.000558631
0.136584
-0.000506869
0.136496
0.136203
-0.000233885
0.137665
-0.000258197
0.138134
-0.000291707
0.138214
-0.00033519
0.138315
-0.000374266
0.138448
-0.000424304
0.138616
-0.000469768
0.138815
-0.00051262
0.139038
-0.000278826
0.139239
-0.000277573
-0.0696473
0.0696569
-0.000144965
-0.000143519
-0.0347485
0.000148226
0.0347491
-0.00014881
-0.0340145
0.000143884
0.0340111
-0.000140559
-0.0325867
0.000170826
0.0325991
-0.000183264
-0.0342446
0.00018664
0.0342434
-0.000185373
-0.0345876
0.000182514
0.0345879
-0.00018282
-0.00072528
0.138137
0.000348932
0.000363517
-0.00072463
0.137785
-0.000699975
0.137417
-0.000665538
0.137109
-0.000632222
0.13687
-0.000585989
0.136683
-0.000545064
0.136543
-0.000494861
0.136445
0.13614
-0.000287423
0.137726
-0.000319401
0.138166
-0.000345179
0.13824
-0.000373034
0.138342
-0.000403361
0.138478
-0.000436179
0.138649
-0.000472243
0.138851
-0.00051039
0.139076
-0.000275347
0.139279
-0.000274813
-0.0696651
0.069672
-0.000141461
-0.000140759
-0.0347507
0.000143556
0.0347507
-0.000143566
-0.033998
0.000137219
0.0339945
-0.000133724
-0.0326334
0.000162315
0.0326438
-0.00017273
-0.0342383
0.000174753
0.0342374
-0.0001739
-0.0345865
0.000170225
0.0345851
-0.00016882
-0.000656174
0.138136
0.00032375
0.000333375
-0.000646046
0.137775
-0.000643296
0.137414
-0.000630487
0.137096
-0.00060459
0.136845
-0.000566052
0.136644
-0.000532754
0.13651
-0.000490262
0.136403
0.136083
-0.000294975
0.137787
-0.000319121
0.13819
-0.000344333
0.138265
-0.000371276
0.138369
-0.000400119
0.138507
-0.000438291
0.138687
-0.00047132
0.138884
-0.000510729
0.139116
-0.000284716
0.139352
-0.00029946
-0.069676
0.0696675
-0.000138044
-0.000138144
-0.0347485
0.000139243
0.0347481
-0.000138809
-0.0339818
0.000131406
0.0339776
-0.000127197
-0.0326725
0.000155092
0.0326812
-0.000163765
-0.0342323
0.000165669
0.0342304
-0.000163844
-0.0345847
0.000159575
0.0345839
-0.00015877
-0.000614376
0.138133
0.000304531
0.000312709
-0.000605954
0.137767
-0.000586087
0.137394
-0.000570881
0.137081
-0.000543296
0.136817
-0.000526154
0.136627
-0.000491803
0.136475
-0.000463265
0.136374
0.136055
-0.000301699
0.137847
-0.000325269
0.138213
-0.000349734
0.138289
-0.000383137
0.138403
-0.000410426
0.138534
-0.000439002
0.138716
-0.000469231
0.138915
-0.00049916
0.139145
-0.000279733
0.139376
-0.000243607
-0.0696457
0.0696365
-0.000133314
-0.000137299
-0.0347462
0.000137652
0.0347454
-0.00013684
-0.0339651
0.000128683
0.0339609
-0.000124533
-0.0327053
0.000149266
0.0327122
-0.000156193
-0.0342247
0.00015677
0.0342227
-0.000154757
-0.0345822
0.000150849
0.0345805
-0.000149171
-0.000581451
0.138131
0.000288184
0.000295149
-0.000573411
0.137759
-0.000564904
0.137386
-0.000538773
0.137055
-0.000523351
0.136802
-0.000496398
0.1366
-0.000467273
0.136446
-0.00043671
0.136344
0.136054
-0.000307673
0.137906
-0.000338069
0.138244
-0.000361612
0.138313
-0.00038634
0.138428
-0.000412142
0.13856
-0.000438764
0.138742
-0.000466607
0.138942
-0.000489099
0.139168
-0.000231719
0.139364
-0.000245306
-0.0696584
0.0696848
-0.000128888
-0.000129191
-0.0347434
0.000131925
0.0347423
-0.000130876
-0.0339488
0.000122256
0.0339448
-0.00011829
-0.0327322
0.000143798
0.0327382
-0.000149834
-0.0342167
0.000149997
0.0342146
-0.000147938
-0.0345785
0.000143698
0.034576
-0.000141177
-0.000553144
0.13813
0.000274083
0.000280041
-0.00054731
0.137753
-0.000533686
0.137372
-0.00052574
0.137047
-0.000506656
0.136782
-0.000476511
0.13657
-0.000459089
0.136429
-0.000433064
0.136318
0.136058
-0.000313005
0.137965
-0.000335028
0.138266
-0.000365148
0.138343
-0.000381182
0.138444
-0.000413121
0.138592
-0.000438038
0.138767
-0.000465328
0.13897
-0.000488468
0.139191
-0.000254254
0.139385
-0.000254307
-0.0696996
0.0697037
-0.00012941
-0.000128963
-0.0347389
0.000128892
0.0347376
-0.000127635
-0.0339332
0.000118755
0.0339294
-0.000114988
-0.0327551
0.000138254
0.032761
-0.000144175
-0.0342084
0.00014513
0.0342063
-0.00014304
-0.0345737
0.000137861
0.0345719
-0.00013603
-0.000530742
0.138128
0.000264011
0.000268366
-0.000526072
0.137748
-0.00052182
0.137368
-0.000508962
0.137034
-0.000485404
0.136759
-0.000473556
0.136558
-0.000452283
0.136408
-0.000429918
0.136295
0.136064
-0.000325299
0.138031
-0.000346429
0.138287
-0.00036047
0.138357
-0.000390527
0.138474
-0.000413617
0.138615
-0.000437094
0.138791
-0.000461857
0.138994
-0.000485312
0.139215
-0.000252195
0.139402
-0.000250915
-0.0697056
0.0697075
-0.000127208
-0.000126828
-0.0347336
0.000126324
0.0347321
-0.000124906
-0.0339192
0.000116625
0.0339149
-0.000112347
-0.0327744
0.000135956
0.0327782
-0.000139777
-0.0342
0.000139771
0.0341979
-0.000137679
-0.0345695
0.000132383
0.0345683
-0.000131261
-0.000511997
0.138127
0.000254585
0.000258966
-0.000508938
0.137745
-0.000498682
0.137358
-0.000487866
0.137023
-0.000481655
0.136753
-0.000465105
0.136541
-0.000446672
0.136389
-0.000427387
0.136276
0.136074
-0.000329449
0.138095
-0.000342177
0.1383
-0.000370399
0.138385
-0.000391923
0.138495
-0.000413851
0.138637
-0.000436049
0.138813
-0.000460144
0.139019
-0.0004805
0.139235
-0.000249132
0.139419
-0.000248067
-0.0697103
0.0697115
-0.000125352
-0.000125062
-0.0347277
0.000124203
0.0347261
-0.000122663
-0.0339047
0.000113591
0.0339014
-0.000110311
-0.0327884
0.000133042
0.0327914
-0.000136042
-0.0341917
0.000136018
0.0341896
-0.000133957
-0.034565
0.000128618
0.0345639
-0.000127466
-0.000498592
0.138125
0.000248541
0.000251531
-0.000494721
0.137741
-0.000493848
0.137357
-0.000484621
0.137014
-0.000472764
0.136741
-0.000458379
0.136527
-0.000442267
0.136373
-0.000425377
0.136259
0.136086
-0.000325485
0.138151
-0.000352482
0.138327
-0.000372286
0.138405
-0.000392948
0.138516
-0.000413921
0.138658
-0.000435098
0.138834
-0.000458016
0.139042
-0.000477872
0.139255
-0.000247355
0.139434
-0.000245786
-0.0697131
0.0697132
-0.000123833
-0.000123581
-0.0347221
0.000123194
0.0347198
-0.000120811
-0.0338919
0.000111844
0.0338889
-0.00010883
-0.0327991
0.000130741
0.0328012
-0.000132856
-0.0341835
0.000133025
0.0341823
-0.000131767
-0.0345604
0.000125693
0.0345592
-0.000124494
-0.000487101
0.138124
0.000243411
0.000245078
-0.000485256
0.13774
-0.000477055
0.137349
-0.000468954
0.137006
-0.000458601
0.13673
-0.000445869
0.136514
-0.000431525
0.136359
-0.000416521
0.136244
0.136108
-0.000335962
0.138214
-0.000354715
0.138345
-0.00037371
0.138424
-0.000393729
0.138536
-0.000413911
0.138678
-0.00043427
0.138854
-0.000456226
0.139063
-0.000475132
0.139274
-0.000244553
0.139448
-0.000243894
-0.0697136
0.0697149
-0.000122631
-0.000123196
-0.0347155
0.000121843
0.0347131
-0.000119411
-0.0338803
0.000110615
0.0338783
-0.000108615
-0.0328065
0.000129009
0.0328079
-0.000130446
-0.0341756
0.000130702
0.0341736
-0.000128738
-0.0345565
0.000124267
0.0345546
-0.000122346
-0.000480236
0.138123
0.0002398
0.000241697
-0.000477237
0.137737
-0.00047037
0.137342
-0.000470592
0.137006
-0.000461213
0.136721
-0.00044967
0.136503
-0.000436668
0.136346
-0.00042305
0.136231
0.136123
-0.000338037
0.138275
-0.000356304
0.138364
-0.000374649
0.138442
-0.0003943
0.138555
-0.000413817
0.138698
-0.000441285
0.138882
-0.000454938
0.139077
-0.000473188
0.139292
-0.000243091
0.139461
-0.0002433
-0.0697151
0.0697154
-0.000121727
-0.000121586
-0.0347088
0.000120867
0.0347064
-0.000118435
-0.0338705
0.000110689
0.0338673
-0.0001075
-0.032811
0.000127818
0.0328117
-0.000128532
-0.034168
0.000129684
0.0341662
-0.000127855
-0.0345512
0.000122761
0.03455
-0.000121619
-0.000474942
0.138122
0.000237726
0.000238339
-0.000472807
0.137734
-0.000473839
0.137343
-0.000459484
0.136991
-0.000450881
0.136713
-0.000439944
0.136492
-0.000435318
0.136341
-0.000422586
0.136218
0.13614
-0.000331893
-0.000357444
-0.000375213
-0.000394656
-0.000421241
-0.000433088
-0.000453422
-0.00047044
-0.000241096
-0.000240351
-0.0697154
0.069716
-0.000120922
-0.000120783
-0.0347022
0.000120176
0.0346999
-0.000117846
-0.0338612
0.000110796
0.0338584
-0.00010798
-0.0328126
0.000127109
0.0328124
-0.000126973
-0.0341609
0.00012751
0.0341593
-0.000125869
-0.0345467
0.000121146
0.0345464
-0.000120824
-0.000473305
0.000237255
0.000237144
-0.000470793
-0.000464351
-0.000457497
-0.000456719
-0.000446143
-0.000427309
-0.000422454
0.00272591
-0.0364769
-0.00169227
-0.00155309
0.0384604
0.00423877
-0.0376196
-0.00242514
-0.00265439
-0.0343413
-0.00589984
0.0354654
0.000681448
-0.0379646
-0.000445515
-0.000243043
0.04006
0.00130985
-0.0401624
-0.000493617
-0.000713838
0.0391442
-0.00209509
-0.00224453
-0.00127153
-0.0372615
0.000776004
0.000866978
0.0392936
-0.0016323
-0.0399189
0.00128921
0.000968461
0.0399761
-0.000206605
-0.000276317
-0.0020669
0.00253026
-0.0356131
0.0369682
-0.00322729
-0.0375977
0.00194398
0.00191282
0.0387534
0.00143138
0.00127017
-0.00176413
0.00207133
-0.0340174
0.034657
-0.00339179
-0.0352453
0.00398016
0.0363984
0.00197865
0.00195879
-0.000554711
0.000464887
-0.0331366
-0.000400009
0.0129354
0.000186816
-0.00677422
-0.00594796
-0.00103326
-0.00583849
-0.00639092
0.0332964
-0.00182725
-0.0334308
0.00196165
0.00372284
0.0341576
0.00303133
-0.00356138
-0.0336231
-0.0314854
0.000664512
0.0306531
0.00415932
-0.0336443
-0.0048563
-0.0331712
-0.00214623
0.0333673
0.0013255
-0.00158664
-0.0357271
0.0367704
-0.0363245
0.00228009
-0.034447
0.00270475
0.0351275
0.00905137
0.00363418
-0.0176815
-0.00192542
-0.00211298
0.00903438
0.00375374
-0.0156906
-0.00436849
0.0163053
0.00354096
-0.0374618
0.0371465
0.0020429
-0.0367373
-0.00245215
-0.0354375
-0.00272542
0.0358517
0.000464433
-0.000525226
-0.0365008
0.0375864
-0.0375451
0.000640093
0.00192828
0.0371124
0.0376759
-0.0010678
-0.00100177
0.00178181
0.0188205
-0.000639302
-0.0188082
0.00107645
-0.000449452
-0.0186073
-0.000873159
0.00155097
0.0188526
-0.000923073
0.00476552
0.000154508
-0.00488056
-3.9466e-05
-0.00933202
0.00162645
0.00987292
-0.00127021
-0.000897145
0.00123222
-0.0395316
0.0381624
0.000810744
-0.0380209
-0.000952168
-0.00216667
0.0375086
-0.000439232
0.000569348
-0.0364365
0.036793
-0.0370933
-0.000971148
0.000188548
0.0375304
0.0376909
0.000192092
0.000427125
-0.000408136
0.0193599
0.000444343
-0.0194087
-0.000505383
0.000109837
-0.0193102
-6.17207e-05
8.18565e-05
0.019282
8.06622e-06
0.00438225
1.50334e-05
-0.00438008
-1.71993e-05
-0.00442369
2.34711e-05
0.00442579
-2.55767e-05
-0.00125425
-0.0393865
0.0380003
-0.000649319
-0.0381442
0.000793267
-0.000496061
0.0382301
-0.000919572
0.00113275
-0.0357641
0.0353854
-0.0357581
-0.00169413
-0.00123666
0.0364715
0.0021923
0.0360971
-0.00178924
0.00150356
0.0358845
0.00130936
-0.0182269
-0.0182782
-0.0185602
0.000737175
-0.00112588
0.018282
0.000666928
0.00950043
-0.00116737
-0.00968108
0.000966223
0.000381799
-0.00461333
-0.000112466
1.23755e-05
0.00471342
-0.00270496
-0.0376282
0.0369987
-0.0016194
-0.0372987
0.0019194
0.00115662
0.0378069
0.0172558
-0.00239854
-0.0173638
0.00120702
0.00129948
-0.00894426
-0.0010979
0.00104846
0.00899371
-0.00291772
-0.0356226
0.0358042
-0.00190751
-0.0360891
0.00219236
0.00207161
0.0366948
0.0165485
-0.00191472
-0.0160263
0.00139246
-0.0164873
-0.00216242
0.00232042
0.0163293
-0.000105188
2.25853e-05
-0.0333698
-0.000539472
0.0287753
-0.0284477
0.000211895
-0.0142789
0.000355407
0.0275867
-0.000906137
-0.0288287
-0.00127665
0.0333954
-0.033337
0.00121823
0.00174337
0.0332633
-0.000797967
-0.018589
0.00163973
-0.000860103
0.00373145
-0.00252218
-0.0358796
-0.00215179
0.0184478
0.0183743
-0.0358526
0.00310721
-0.0178049
0.0182904
-0.00153743
-0.00147026
0.00927972
-0.000724726
-0.00935297
0.00277671
-0.0158957
0.0165126
-0.00339362
0.00263853
-0.0174042
-0.0015544
-0.00148481
0.00122154
-0.00967448
-0.00054658
-0.000332496
0.00186281
-0.00201266
0.00920122
-0.0365427
-0.00282853
-0.00294263
0.00469427
-0.0182361
0.0186544
0.00327647
-0.00183197
0.0193907
-0.00129863
0.00257057
-0.0194411
-1.43223e-05
-0.0193956
0.000215162
-0.000115413
-0.000835873
0.00112984
0.0193704
-0.000843886
-0.00089484
-0.000675596
0.00128166
-0.00920077
0.00944006
-0.00107517
0.00966035
-2.58914e-05
-0.00964878
0.00931791
-0.000911346
-0.000577521
-0.00926255
4.03484e-06
-0.00444485
1.71247e-05
0.000195847
-9.92242e-05
0.0046689
-0.0396427
-0.00122211
-0.00157066
0.0022731
-0.00964686
0.00945873
0.000934591
-0.000550619
0.00492738
3.91397e-05
-0.00496248
0.00244446
-0.00130541
0.00990255
0.00997559
-0.000100713
0.000608396
-0.01
-0.00162575
-0.00185965
0.00298695
0.000703937
-0.018723
-0.00100009
0.000458942
0.0006265
-0.000892053
0.0188009
0.000824607
0.000633684
0.000713603
-0.000917947
-0.00986346
0.00957787
0.000912084
0.00933952
0.000827102
-0.00946268
0.00961818
-1.95543e-05
0.000357316
-0.00977643
-0.000162922
-0.00452889
7.84744e-05
4.80493e-06
0.00438252
-5.07309e-06
-0.0399323
0.000507446
0.000292891
-0.00078703
-0.00490244
0.00492141
-1.41697e-05
0.00945001
-0.000821619
-0.00928977
0.000498454
0.00491184
3.90087e-05
-2.83602e-06
-0.00488457
0.000105664
4.48872e-05
-0.000106656
-0.0176942
-0.00147427
0.0175986
0.000593194
0.000976685
0.0170322
-0.00157557
-0.0172258
0.00094612
0.00082305
0.00909974
0.000976956
-0.0178874
0.00105065
0.000646179
-0.00121463
-0.00911775
0.00138812
-0.00141878
0.00889932
0.000846194
0.0011737
-0.0382469
0.00186952
0.00176292
-0.00298321
-0.0192561
0.00106456
0.0187981
-0.00202539
0.0182258
0.001093
-0.00212832
-0.0184052
5.78806e-05
0.0097679
-0.000488234
-0.00160097
0.000422522
-0.00965528
-0.00958969
0.00156959
0.00151993
-0.00258304
-0.0165942
-0.00132313
0.0165239
0.00139341
0.0162507
-0.00120185
0.00126319
-0.016312
-0.00145332
0.016987
0.000700257
0.00079828
-0.00145473
0.00164
-0.0167795
-0.00232499
-0.0166651
0.0012324
0.00127046
-0.00239804
0.0170113
0.00129291
0.00134964
0.00113742
0.0181225
-0.00213202
-0.00398136
0.0352359
0.00228098
-0.0179244