/*--------------------------------*- C++ -*----------------------------------*\
| =========                 |                                                 |
| \\      /  F ield         | OpenFOAM: The Open Source CFD Toolbox           |
|  \\    /   O peration     | Version:  5.x                                   |
|   \\  /    A nd           | Web:      www.OpenFOAM.org                      |
|    \\/     M anipulation  |                                                 |
\*---------------------------------------------------------------------------*/
FoamFile
{
    version     2.0;
    format      ascii;
    class       volVectorField;
    location    "3600";
    object      U;
}
// * * * * * * * * * * * * * * * * * * * * * * * * * * * * * * * * * * * * * //

dimensions      [0 1 -1 0 0 0 0];

internalField   nonuniform List<vector> 
6445
(
(15.0011 -0.00335992 0)
(15.0008 -0.006983 0)
(15.001 -0.00926041 0)
(15.001 -0.0123468 0)
(15.0011 -0.0155583 0)
(15.0011 -0.0190775 -1.10034e-24)
(15.001 -0.0225584 -5.75683e-26)
(15.0004 -0.0250366 2.89106e-24)
(14.9995 -0.0255125 1.47559e-24)
(14.9973 -0.0214726 2.49246e-24)
(14.9947 -0.00974311 1.13814e-24)
(14.9927 0.0094201 0)
(14.9931 0.0313483 3.52824e-24)
(14.9958 0.0483041 -2.87368e-30)
(14.9991 0.0557969 -6.44287e-24)
(15.0015 0.0540075 3.11203e-24)
(15.0023 0.0474569 2.73192e-24)
(15.0026 0.0396526 -1.43924e-24)
(15.0024 0.0316992 -9.12444e-25)
(15.0021 0.024631 1.22324e-25)
(15.0018 0.0187237 0)
(15.0016 0.0135514 -8.87986e-26)
(15.0012 0.00989156 -1.14565e-24)
(15.0016 0.00466704 -5.31736e-25)
(15.0048 -0.00724793 8.45721e-25)
(15.0039 -0.0142655 0)
(15.0047 -0.0185767 8.554e-24)
(15.005 -0.0248543 1.33122e-23)
(15.0056 -0.031416 0)
(15.0057 -0.038788 0)
(15.0052 -0.0463952 -2.35222e-25)
(15.0025 -0.0522188 -4.64035e-25)
(14.9979 -0.0547048 -1.33208e-24)
(14.9877 -0.0481611 -3.68936e-24)
(14.9757 -0.0241773 2.1112e-24)
(14.9671 0.0176264 1.43029e-24)
(14.9689 0.0663702 3.71722e-24)
(14.9808 0.103507 6.37843e-24)
(14.9957 0.118525 7.49673e-25)
(15.0077 0.112581 -6.70603e-24)
(15.0117 0.0973162 -3.5908e-24)
(15.0132 0.0805354 -1.75531e-23)
(15.0122 0.0638083 -2.94676e-23)
(15.0107 0.0492825 4.79944e-25)
(15.0088 0.0373643 8.58283e-24)
(15.0075 0.0269329 -3.03922e-24)
(15.006 0.0200058 -2.54644e-24)
(15.0067 0.00996256 -2.35513e-24)
(15.0104 -0.0113673 1.33052e-24)
(15.0097 -0.021325 -3.54505e-25)
(15.0113 -0.027356 -1.00543e-23)
(15.0124 -0.0367873 -7.64553e-24)
(15.0141 -0.0468405 6.45618e-24)
(15.0147 -0.0586852 1.82693e-23)
(15.0139 -0.0718803 0)
(15.008 -0.0832723 -1.25838e-24)
(14.9976 -0.0916702 -2.42315e-26)
(14.969 -0.0853706 -8.92691e-25)
(14.9301 -0.0484518 6.74944e-24)
(14.9016 0.0224143 -4.70985e-25)
(14.9065 0.107733 8.37719e-24)
(14.9446 0.171042 7.81725e-24)
(14.9921 0.194068 7.38158e-25)
(15.0235 0.17989 -7.3735e-24)
(15.0316 0.150137 -4.49071e-24)
(15.034 0.121611 9.87772e-23)
(15.0308 0.0945322 -1.23374e-28)
(15.0265 0.0720452 -8.72772e-23)
(15.0216 0.0542079 -4.65518e-23)
(15.0182 0.0388522 -1.57489e-23)
(15.0147 0.029283 -1.0879e-24)
(15.0146 0.0153239 -5.83907e-25)
(15.0174 -0.015415 0)
(15.0173 -0.0276921 1.72685e-24)
(15.0202 -0.0351383 -2.03898e-24)
(15.0228 -0.0475103 0)
(15.0266 -0.0611504 -2.62916e-23)
(15.029 -0.0781075 -3.56682e-23)
(15.0291 -0.0989658 -3.58616e-23)
(15.0207 -0.118894 -6.46578e-23)
(15.0014 -0.144442 0)
(14.9576 -0.118463 0)
(14.8998 -0.0807009 0)
(14.8496 0.00655181 -2.47765e-24)
(14.8496 0.125253 -5.78935e-25)
(14.9072 0.21721 -1.29499e-24)
(14.9811 0.251436 1.26683e-23)
(15.051 0.259278 -1.31188e-23)
(15.0655 0.204743 -1.13629e-22)
(15.0664 0.161367 -4.27201e-23)
(15.0584 0.122117 0)
(15.049 0.0913827 -2.27534e-23)
(15.0394 0.0679615 -8.57492e-24)
(15.0322 0.0483663 0)
(15.026 0.0368201 -2.55558e-24)
(15.024 0.0201773 -2.19778e-24)
(15.0251 -0.0190834 1.82097e-24)
(15.0263 -0.0328708 -2.05345e-24)
(15.031 -0.041286 -4.95381e-24)
(15.0362 -0.0561076 0)
(15.0433 -0.0730632 1.5302e-23)
(15.0496 -0.0954816 0)
(15.0537 -0.125741 2.25761e-23)
(15.0479 -0.160058 9.93642e-23)
(15.0221 -0.210535 8.17955e-23)
(14.9525 -0.206094 0)
(14.8567 -0.158572 4.64522e-25)
(14.7434 -0.0491238 -4.9067e-25)
(14.7141 0.146165 3.94909e-26)
(14.8222 0.306733 0)
(14.9639 0.35632 1.79554e-24)
(15.1044 0.351791 0)
(15.1211 0.261476 0)
(15.1133 0.19664 2.12995e-23)
(15.0959 0.14374 -1.93221e-23)
(15.0779 0.105021 -1.2261e-23)
(15.0613 0.076987 4.97427e-24)
(15.0488 0.0543203 0)
(15.0389 0.0417059 2.93703e-24)
(15.034 0.0239528 -2.33177e-24)
(15.0332 -0.0220589 1.89041e-24)
(15.0362 -0.0363448 -2.25106e-24)
(15.0431 -0.0450583 -5.56004e-24)
(15.0518 -0.0613309 2.98655e-25)
(15.064 -0.0805498 4.22509e-25)
(15.0774 -0.10754 0)
(15.0907 -0.146716 0)
(15.0977 -0.198759 4.56563e-23)
(15.0814 -0.282398 -1.42804e-22)
(14.9825 -0.321699 -9.94097e-24)
(14.8264 -0.330975 -4.5469e-24)
(14.5582 -0.226605 0)
(14.3947 0.204585 3.00788e-25)
(14.6871 0.550766 -1.34576e-24)
(14.9687 0.561648 1.07894e-23)
(15.2105 0.445398 -9.8219e-23)
(15.2083 0.309004 -4.03888e-23)
(15.1776 0.219511 3.83728e-23)
(15.1432 0.154554 0)
(15.1121 0.109903 7.76187e-24)
(15.086 0.0793141 0)
(15.0666 0.0554977 0)
(15.0523 0.0430632 2.21038e-26)
(15.0436 0.0260947 2.48764e-26)
(15.041 -0.0240627 -9.04201e-25)
(15.0461 -0.0376861 4.34532e-26)
(15.0556 -0.0457879 -1.40918e-24)
(15.0686 -0.0619308 -3.32485e-26)
(15.0871 -0.0811913 -5.49384e-26)
(15.1105 -0.109732 3.20267e-25)
(15.1389 -0.152709 1.71448e-23)
(15.1723 -0.21748 -1.32104e-24)
(15.1917 -0.323535 -2.52954e-23)
(15.1003 -0.433782 1.00414e-27)
(14.9125 -0.594789 -2.44669e-23)
(14.3498 -0.744135 -3.31605e-23)
(13.3876 0.443804 1.81235e-23)
(14.6324 1.12078 9.65664e-24)
(15.1263 0.834707 5.79336e-24)
(15.3856 0.492259 -4.36284e-23)
(15.3295 0.32388 3.20923e-23)
(15.2572 0.21735 5.61203e-23)
(15.1974 0.148131 1.64056e-24)
(15.1488 0.102525 1.20158e-23)
(15.1114 0.0730808 -3.24057e-24)
(15.0839 0.0508825 -1.9713e-24)
(15.0648 0.0402072 0)
(15.0518 0.0261291 9.27571e-25)
(15.0478 -0.0249302 -7.93002e-25)
(15.0551 -0.0367264 2.30484e-26)
(15.067 -0.0431816 6.91075e-25)
(15.0843 -0.0572187 -8.93493e-25)
(15.1092 -0.0733052 -9.23271e-25)
(15.1436 -0.0981288 -3.76042e-24)
(15.1899 -0.134596 2.22069e-23)
(15.2563 -0.194691 2.56565e-24)
(15.3322 -0.284492 -2.33683e-23)
(15.3232 -0.447439 -5.24592e-24)
(15.2975 -0.803299 -6.27141e-25)
(15.1058 -1.80678 4.51624e-23)
(15.4223 2.03315 -4.6921e-23)
(15.5835 1.01686 -1.4688e-25)
(15.6054 0.423932 9.74122e-23)
(15.4641 0.276141 -7.77886e-24)
(15.3395 0.177188 -5.29669e-24)
(15.2501 0.118859 -3.40993e-24)
(15.1827 0.0804835 2.56406e-24)
(15.1338 0.0573031 -2.69531e-25)
(15.0984 0.0400593 -1.48008e-24)
(15.0747 0.032888 -7.70437e-25)
(15.0572 0.0237765 5.63014e-25)
(15.053 -0.0246788 0)
(15.0622 -0.0337154 -1.01632e-25)
(15.0758 -0.0376569 -3.78374e-25)
(15.0964 -0.0477816 -9.09461e-25)
(15.1259 -0.0576165 -2.27424e-25)
(15.1683 -0.0732436 -2.99185e-24)
(15.2278 -0.0924454 1.48929e-24)
(15.3176 -0.126502 2.39005e-24)
(15.4392 -0.160757 -4.06628e-24)
(15.5514 -0.29502 1.08732e-23)
(15.799 -0.592038 -8.55396e-25)
(16.2814 -1.13171 1.91396e-25)
(16.8216 1.57575 6.18712e-24)
(16.1963 0.777047 0)
(15.7835 0.224075 -3.47649e-23)
(15.567 0.15691 -4.75649e-24)
(15.4017 0.0976803 4.60649e-24)
(15.2888 0.0670563 -1.49358e-24)
(15.2068 0.0447325 -3.2506e-24)
(15.1491 0.0328716 7.04043e-25)
(15.1074 0.0236999 -1.28773e-33)
(15.0802 0.0215238 -5.61284e-25)
(15.0589 0.0190657 0)
(15.0564 -0.0235317 4.7052e-26)
(15.0668 -0.029345 -5.03526e-30)
(15.0811 -0.030404 7.39199e-26)
(15.1029 -0.0356903 -4.64116e-26)
(15.1338 -0.0378474 0)
(15.1781 -0.0416689 -6.95512e-26)
(15.2401 -0.0395716 7.8542e-25)
(15.331 -0.0381353 -6.80476e-25)
(15.4592 -0.00959526 1.37181e-25)
(15.6443 -0.0521848 0)
(16.0003 -0.110653 7.40622e-25)
(16.5426 -0.0445713 -1.84418e-24)
(17.3487 0.295236 4.3037e-24)
(16.5319 0.189124 -1.93967e-24)
(15.8367 -0.0350291 0)
(15.5975 -0.0015758 0)
(15.4233 -0.00340403 1.2444e-24)
(15.3027 0.00195091 -7.97317e-25)
(15.2152 0.000719912 0)
(15.1541 0.00297317 2.79412e-25)
(15.1091 0.00370965 -3.79876e-25)
(15.0802 0.00726238 -2.07123e-25)
(15.0563 0.0123758 0)
(15.058 -0.0218648 7.13017e-26)
(15.0686 -0.0245691 -4.14151e-26)
(15.0825 -0.0230281 -7.31569e-26)
(15.1035 -0.023763 5.94301e-26)
(15.1323 -0.0191109 0)
(15.1722 -0.0125799 1.68143e-24)
(15.226 0.00628578 -8.16065e-25)
(15.2977 0.0364823 -2.40659e-24)
(15.3953 0.104494 6.9983e-24)
(15.5708 0.155484 2.38017e-24)
(15.8465 0.316348 -1.76861e-25)
(16.0389 0.80786 1.26049e-27)
(16.9515 -0.892434 2.38471e-25)
(16.4448 -0.409075 2.14566e-25)
(15.7548 -0.257385 1.62961e-23)
(15.5507 -0.149628 1.18347e-23)
(15.4 -0.0993402 1.32423e-24)
(15.2888 -0.0624103 -2.92516e-24)
(15.2064 -0.0434714 -5.12678e-24)
(15.1474 -0.0278007 -2.48543e-24)
(15.103 -0.0172181 6.70579e-25)
(15.0744 -0.00824955 6.71489e-25)
(15.0494 0.00436934 0)
(15.058 -0.0200959 -1.32525e-26)
(15.0682 -0.0203036 0)
(15.0807 -0.0169674 1.09995e-25)
(15.0994 -0.0144023 -4.83209e-25)
(15.1238 -0.00549118 -7.93898e-25)
(15.1556 0.00716382 -1.14299e-24)
(15.1955 0.0334896 -3.17191e-24)
(15.2398 0.0763325 4.90522e-23)
(15.2911 0.150454 5.99945e-24)
(15.4005 0.250919 -4.84194e-24)
(15.5061 0.496425 0)
(15.2547 1.04773 8.10029e-26)
(16.1092 -1.44346 0)
(16.0678 -0.763681 0)
(15.5899 -0.385924 -3.89726e-23)
(15.453 -0.250471 -3.45171e-23)
(15.3433 -0.169551 -6.45436e-24)
(15.253 -0.113947 1.11869e-23)
(15.1829 -0.0806023 2.15585e-24)
(15.1308 -0.0551211 -2.71668e-24)
(15.0897 -0.0364656 -2.10788e-24)
(15.0632 -0.0233108 1.29024e-24)
(15.0386 -0.00418596 1.33369e-24)
(15.0569 -0.0185705 -1.44955e-25)
(15.0662 -0.017163 -4.70158e-25)
(15.077 -0.0130342 2.24212e-24)
(15.0928 -0.00878836 6.44822e-25)
(15.1121 0.00142312 0)
(15.1354 0.0155188 0)
(15.1617 0.0405311 3.47105e-23)
(15.1825 0.0807131 5.51023e-23)
(15.1956 0.137329 0)
(15.2307 0.234454 0)
(15.1886 0.433753 3.82284e-25)
(14.6688 0.783181 0)
(15.2689 -1.39706 2.16707e-24)
(15.623 -0.821478 -6.21387e-26)
(15.4125 -0.417007 2.49398e-23)
(15.3417 -0.2944 2.09127e-23)
(15.2727 -0.207231 -1.16701e-23)
(15.206 -0.147055 -1.08012e-23)
(15.1507 -0.10677 -3.80752e-24)
(15.1073 -0.0762744 -6.14233e-25)
(15.0713 -0.0522282 -2.14133e-24)
(15.0478 -0.0366008 1.96294e-25)
(15.0249 -0.0125844 1.79011e-24)
(15.0555 -0.0175025 1.95853e-25)
(15.0635 -0.0153998 -8.34298e-25)
(15.0726 -0.0113711 1.87168e-24)
(15.0857 -0.00686236 3.31999e-24)
(15.1009 0.00237487 4.47815e-24)
(15.1177 0.0145573 -1.76666e-24)
(15.1345 0.0333191 1.25762e-23)
(15.1424 0.0619568 -3.59078e-23)
(15.1357 0.0931588 -9.58425e-23)
(15.1225 0.157812 9.31397e-24)
(15.0155 0.248545 0)
(14.4704 0.269275 0)
(11.9282 -0.802036 -3.62337e-24)
(14.8021 -0.907645 2.60303e-23)
(15.2946 -0.678618 -8.15883e-24)
(15.2741 -0.385847 -5.70081e-23)
(15.2461 -0.294717 -8.00893e-23)
(15.2049 -0.217472 -3.10284e-23)
(15.1576 -0.162686 -1.85685e-23)
(15.1155 -0.121753 3.51076e-24)
(15.0806 -0.0905122 8.32163e-25)
(15.0501 -0.0637784 6.63322e-25)
(15.0299 -0.0473791 4.1215e-24)
(15.0094 -0.0203037 -1.88394e-24)
(15.0541 -0.0169705 3.76648e-25)
(15.0609 -0.0149234 -6.20329e-25)
(15.0687 -0.0116169 0)
(15.0797 -0.00784137 2.83589e-24)
(15.092 -0.000853264 2.08011e-24)
(15.105 0.00782741 2.79564e-24)
(15.1172 0.0191791 -1.46042e-23)
(15.1214 0.0354047 -9.71191e-24)
(15.1119 0.046614 -3.26224e-23)
(15.0846 0.0766866 -2.33472e-24)
(14.9928 0.087368 0)
(14.6113 -0.00536051 0)
(12.8116 -0.382811 1.1429e-24)
(14.7862 -0.542829 3.40922e-25)
(15.1458 -0.496739 -1.18612e-25)
(15.1855 -0.331962 -2.56975e-23)
(15.1757 -0.271112 -9.54616e-23)
(15.1493 -0.210635 -3.42652e-23)
(15.1145 -0.165488 -1.22597e-23)
(15.0818 -0.127599 -7.7906e-24)
(15.0537 -0.098549 0)
(15.0282 -0.0712927 0)
(15.011 -0.0554641 4.49046e-24)
(14.9931 -0.0270429 2.055e-24)
(15.053 -0.0169485 -4.39697e-28)
(15.0588 -0.0154877 -5.29399e-25)
(15.0657 -0.0131943 2.26568e-26)
(15.0754 -0.0106398 4.0847e-26)
(15.0862 -0.00622254 1.52623e-24)
(15.0977 -0.00117218 5.92176e-24)
(15.1088 0.00393022 2.66519e-24)
(15.1146 0.0105041 2.88156e-24)
(15.1102 0.009526 -9.19248e-25)
(15.0872 0.0174965 -1.06726e-24)
(15.0259 -0.00219661 -6.12697e-26)
(14.7256 -0.0794802 -2.54418e-25)
(13.1651 -0.262628 1.52999e-25)
(14.8394 -0.362501 2.02643e-25)
(15.0952 -0.36407 2.84172e-43)
(15.1349 -0.278476 0)
(15.1279 -0.239993 0)
(15.1064 -0.195237 2.67384e-27)
(15.0786 -0.160091 0)
(15.052 -0.12721 -6.92869e-24)
(15.0287 -0.101819 6.53658e-24)
(15.007 -0.0754246 5.99739e-24)
(14.9922 -0.0610596 -1.39976e-24)
(14.977 -0.032692 7.78953e-24)
(15.0525 -0.0173526 4.86433e-26)
(15.0575 -0.0167758 5.40387e-25)
(15.064 -0.0155462 1.35809e-25)
(15.0729 -0.0143417 0)
(15.0833 -0.0122796 1.41508e-24)
(15.0948 -0.0103162 7.05398e-25)
(15.1067 -0.00970761 5.04233e-25)
(15.116 -0.00950931 0)
(15.1184 -0.0166236 0)
(15.1043 -0.0199077 -1.69856e-24)
(15.0639 -0.044778 0)
(14.7905 -0.0955743 4.23799e-26)
(13.37 -0.204405 -2.35728e-25)
(14.8816 -0.26689 -9.1383e-44)
(15.0826 -0.277304 -7.96156e-27)
(15.1069 -0.233057 6.28905e-24)
(15.0962 -0.209257 0)
(15.0747 -0.177043 1.45296e-23)
(15.0499 -0.150527 -1.06598e-24)
(15.0265 -0.122834 1.12902e-23)
(15.0063 -0.10158 5.78393e-27)
(14.9875 -0.0770344 8.86747e-24)
(14.9744 -0.0645898 1.84417e-24)
(14.9616 -0.0372698 1.83427e-24)
(15.0527 -0.0180789 0)
(15.057 -0.0184966 5.88977e-26)
(15.0634 -0.0182272 -1.55182e-25)
(15.0721 -0.0182912 0)
(15.0826 -0.0181367 2.57339e-25)
(15.0949 -0.0185212 2.37372e-25)
(15.1084 -0.0208072 -6.37551e-25)
(15.1215 -0.0243557 0)
(15.1301 -0.0338268 2.48701e-24)
(15.124 -0.0417701 -1.20888e-24)
(15.0951 -0.0635249 3.16425e-25)
(14.8256 -0.0952908 6.95799e-26)
(13.5115 -0.169376 -4.52393e-26)
(14.909 -0.210558 1.1109e-25)
(15.0824 -0.220273 4.95419e-26)
(15.0916 -0.19668 1.35031e-24)
(15.0753 -0.181967 -6.2943e-24)
(15.0516 -0.159006 5.30246e-24)
(15.0274 -0.13933 5.1795e-24)
(15.0053 -0.116394 1.0159e-23)
(14.9869 -0.0991327 -2.27097e-32)
(14.97 -0.0768368 8.16792e-24)
(14.9581 -0.0664282 -2.65765e-25)
(14.9473 -0.0408786 -3.43563e-24)
(15.0534 -0.0190252 -3.67482e-26)
(15.0574 -0.0204163 -2.24482e-25)
(15.0638 -0.0209288 -2.698e-25)
(15.0727 -0.0220784 0)
(15.0837 -0.0233346 0)
(15.0971 -0.0253623 0)
(15.1124 -0.0293209 2.46663e-25)
(15.1287 -0.0348021 3.01196e-25)
(15.1421 -0.0446213 5.59512e-24)
(15.1419 -0.0537963 1.5917e-26)
(15.1178 -0.0709956 1.73845e-25)
(14.8436 -0.0904086 0)
(13.6189 -0.145897 -4.687e-26)
(14.926 -0.174269 -5.28032e-26)
(15.0855 -0.181404 -3.42786e-26)
(15.0831 -0.16811 0)
(15.0614 -0.158894 -3.14423e-24)
(15.0347 -0.142484 7.95436e-24)
(15.01 -0.127999 4.18486e-24)
(14.988 -0.10914 0)
(14.9703 -0.095427 0)
(14.9546 -0.0754947 0)
(14.9434 -0.0670395 3.39767e-24)
(14.9343 -0.0436566 1.55726e-24)
(15.0546 -0.0201032 -8.34084e-27)
(15.0585 -0.0223661 1.14448e-25)
(15.0651 -0.0234622 7.93057e-27)
(15.0742 -0.0254804 3.67138e-25)
(15.0859 -0.027697 1.81034e-25)
(15.1004 -0.0307908 6.76575e-25)
(15.1175 -0.0355775 1.14975e-24)
(15.1363 -0.0418496 0)
(15.1531 -0.0510851 2.70848e-24)
(15.1569 -0.059941 -3.83113e-29)
(15.1341 -0.0730717 9.5523e-28)
(14.8542 -0.0842131 3.7983e-26)
(13.7052 -0.12901 1.97549e-26)
(14.9362 -0.149215 1.66311e-26)
(15.0887 -0.15382 0)
(15.0784 -0.145727 0)
(15.0519 -0.139835 0)
(15.0224 -0.12797 2.82206e-24)
(14.9964 -0.117337 0)
(14.974 -0.101842 0)
(14.9564 -0.0911325 0)
(14.9414 -0.0735045 3.20461e-24)
(14.9305 -0.0668013 2.98737e-24)
(14.9227 -0.0457497 1.38872e-24)
(15.0563 -0.0212429 -9.39562e-26)
(15.0601 -0.0242348 3.58846e-25)
(15.067 -0.0257296 -2.09914e-25)
(15.0765 -0.0284054 1.65926e-25)
(15.0888 -0.0312155 2.26594e-25)
(15.1044 -0.0349413 1.34889e-24)
(15.1229 -0.0400139 6.80486e-25)
(15.1436 -0.0464085 9.11199e-25)
(15.1627 -0.0547095 0)
(15.1689 -0.0626516 6.60194e-25)
(15.1454 -0.0725024 0)
(14.8593 -0.0782166 0)
(13.7773 -0.115932 -1.26294e-33)
(14.942 -0.130957 1.24198e-26)
(15.0913 -0.133523 0)
(15.0757 -0.128107 -3.89178e-25)
(15.0454 -0.12425 0)
(15.0134 -0.115514 0)
(14.9859 -0.107713 2.43502e-24)
(14.9627 -0.0949374 2.42731e-24)
(14.9448 -0.0866914 2.56918e-24)
(14.9301 -0.0712125 2.77274e-24)
(14.9193 -0.0660131 -1.25826e-24)
(14.9125 -0.0472953 5.4924e-25)
(15.0583 -0.0223929 -5.15463e-26)
(15.0622 -0.0259588 2.1622e-25)
(15.0693 -0.0276946 -3.16463e-25)
(15.0792 -0.0308425 -7.07495e-26)
(15.0922 -0.0339674 0)
(15.1087 -0.0380172 9.56076e-25)
(15.1283 -0.0430496 6.11775e-25)
(15.1504 -0.0492059 7.777e-25)
(15.171 -0.056503 9.67142e-25)
(15.1785 -0.0633846 -1.33199e-25)
(15.1533 -0.0707377 5.21235e-27)
(14.8589 -0.0730631 -9.83622e-27)
(13.8387 -0.1051 -2.16215e-25)
(14.9448 -0.117158 -1.21013e-26)
(15.0929 -0.11815 0)
(15.074 -0.114131 8.71871e-29)
(15.0408 -0.111547 0)
(15.0066 -0.104969 -1.56052e-24)
(14.9776 -0.0992447 1.90936e-24)
(14.9535 -0.0886498 2.12678e-24)
(14.9352 -0.0823778 4.71694e-24)
(14.9205 -0.0688509 1.47934e-25)
(14.9097 -0.0648979 -1.08212e-24)
(14.9036 -0.048413 1.02682e-24)
(15.0606 -0.0235175 1.27792e-25)
(15.0645 -0.0275072 -1.30889e-25)
(15.072 -0.0293611 -4.72909e-26)
(15.0822 -0.0328264 -5.76865e-26)
(15.0957 -0.0360664 0)
(15.1129 -0.040232 4.79241e-25)
(15.1334 -0.0450415 0)
(15.1564 -0.0507853 -2.26158e-26)
(15.178 -0.0571353 8.1503e-25)
(15.1862 -0.0629969 -1.5825e-31)
(15.1585 -0.0684167 -8.44259e-28)
(14.8551 -0.068109 8.45195e-27)
(13.8891 -0.0975465 -1.8805e-26)
(14.9455 -0.106509 9.16462e-27)
(15.0937 -0.106237 -4.92181e-27)
(15.073 -0.102951 -1.5939e-26)
(15.0374 -0.101189 2.18137e-25)
(15.0014 -0.0961086 -5.92107e-25)
(14.9711 -0.0919144 0)
(14.9461 -0.0830644 0)
(14.9272 -0.0783521 1.86272e-24)
(14.9125 -0.0665652 0)
(14.9015 -0.0636179 -1.0222e-24)
(14.8959 -0.0492042 4.87299e-25)
(15.063 -0.0245936 8.035e-26)
(15.0671 -0.028873 1.83344e-26)
(15.0747 -0.0307539 -1.94798e-25)
(15.0853 -0.034413 0)
(15.0993 -0.0376332 0)
(15.1171 -0.0417801 0)
(15.1382 -0.0462773 0)
(15.1618 -0.0515454 0)
(15.1839 -0.0570535 4.06033e-30)
(15.1921 -0.0620014 -8.09758e-27)
(15.1616 -0.0659006 1.32826e-41)
(14.8491 -0.0636805 0)
(13.9371 -0.0912814 9.63515e-26)
(14.9448 -0.098024 0)
(15.0939 -0.0968222 -5.35732e-27)
(15.0723 -0.093937 1.64798e-25)
(15.0348 -0.0927235 3.9134e-25)
(14.9974 -0.0886978 -1.07531e-25)
(14.9659 -0.0856382 -8.90036e-26)
(14.9401 -0.0781892 7.16706e-26)
(14.9205 -0.0746931 -7.24553e-25)
(14.9056 -0.0644401 0)
(14.8945 -0.0622873 -1.23764e-24)
(14.8893 -0.0497512 0)
(15.0655 -0.0256092 0)
(15.0697 -0.0300636 5.56637e-26)
(15.0776 -0.0319089 -1.75397e-25)
(15.0884 -0.0356673 0)
(15.1028 -0.0387808 -1.63075e-25)
(15.121 -0.0428276 -1.70394e-25)
(15.1426 -0.0469786 -7.88173e-26)
(15.1666 -0.0517678 -4.92312e-26)
(15.1889 -0.0565519 5.95415e-26)
(15.1968 -0.0607161 0)
(15.1633 -0.0634354 0)
(14.8422 -0.0599699 0)
(13.9805 -0.0856123 7.95957e-26)
(14.943 -0.0911651 0)
(15.0935 -0.0892756 1.63118e-27)
(15.0717 -0.0866206 -1.04979e-25)
(15.0329 -0.0857856 5.08032e-26)
(14.9943 -0.0825184 -3.56113e-25)
(14.9617 -0.0803049 0)
(14.9352 -0.0739871 -5.73606e-25)
(14.915 -0.0714316 -6.45316e-25)
(14.8999 -0.0625195 -6.69584e-25)
(14.8886 -0.0609831 -3.51481e-25)
(14.8836 -0.0501196 0)
(15.068 -0.0265595 -9.75284e-26)
(15.0724 -0.031095 -4.02471e-25)
(15.0804 -0.0328643 -1.84741e-25)
(15.0915 -0.0366496 0)
(15.1062 -0.0396059 -1.88606e-25)
(15.1247 -0.0435062 -2.06564e-25)
(15.1467 -0.047311 0)
(15.1708 -0.0516522 -1.21705e-25)
(15.1931 -0.0558255 2.11779e-26)
(15.2005 -0.0593274 -4.46961e-27)
(15.1637 -0.0611259 0)
(14.835 -0.0568227 9.32927e-27)
(14.0202 -0.0807618 3.3562e-26)
(14.9404 -0.0855421 0)
(15.0926 -0.0831606 -1.34526e-27)
(15.0712 -0.0806534 0)
(15.0314 -0.0800896 1.94317e-26)
(14.9919 -0.0773772 7.03902e-26)
(14.9584 -0.0757979 -9.80653e-26)
(14.9312 -0.0704019 -4.71315e-25)
(14.9104 -0.0685673 -4.99791e-25)
(14.8951 -0.0608208 -2.55737e-25)
(14.8835 -0.0597539 2.99268e-25)
(14.8787 -0.0503608 0)
(15.0706 -0.0274413 0)
(15.075 -0.0319842 -7.43015e-26)
(15.0832 -0.0336543 -1.17318e-25)
(15.0945 -0.0374146 -8.35144e-26)
(15.1094 -0.0401895 -1.54366e-25)
(15.1282 -0.0439221 -1.44306e-25)
(15.1504 -0.0473997 1.03129e-25)
(15.1746 -0.0513376 -1.08105e-25)
(15.1967 -0.0549998 9.54754e-26)
(15.2033 -0.0579449 3.48461e-26)
(15.1633 -0.0590182 0)
(14.8276 -0.0541519 0)
(14.0568 -0.076618 3.72026e-26)
(14.9374 -0.0809006 0)
(15.0914 -0.0781711 0)
(15.0708 -0.0757698 5.62522e-25)
(15.0302 -0.0754058 5.37819e-25)
(14.9899 -0.0731123 5.61687e-26)
(14.9556 -0.0720117 -4.00471e-26)
(14.9279 -0.0673718 -9.73354e-26)
(14.9066 -0.0660842 -5.6433e-25)
(14.891 -0.0593452 1.19387e-25)
(14.8793 -0.0586301 2.5492e-25)
(14.8745 -0.0505143 0)
(15.0731 -0.0282561 -8.16932e-26)
(15.0776 -0.0327502 -9.61378e-26)
(15.0859 -0.0343109 -1.13909e-25)
(15.0974 -0.03801 -1.51634e-25)
(15.1125 -0.0405966 -4.39434e-26)
(15.1314 -0.0441549 8.94371e-26)
(15.1537 -0.0473341 9.39612e-26)
(15.1779 -0.0509177 0)
(15.1998 -0.0541546 1.52121e-25)
(15.2055 -0.0566335 -3.24999e-26)
(15.1623 -0.0571302 2.48456e-27)
(14.8203 -0.0518945 0)
(14.0908 -0.0730823 -8.09365e-27)
(14.9341 -0.0770568 5.31051e-27)
(15.09 -0.0740853 0)
(15.0704 -0.0717702 1.15393e-25)
(15.0292 -0.0715554 2.35262e-26)
(14.9884 -0.0695853 0)
(14.9534 -0.0688468 -3.57484e-25)
(14.9252 -0.064832 -3.02587e-25)
(14.9034 -0.063956 -1.89861e-25)
(14.8876 -0.0580845 -2.31877e-25)
(14.8757 -0.0576272 -4.84532e-26)
(14.8709 -0.0506105 0)
(15.0755 -0.029007 0)
(15.0802 -0.0334107 0)
(15.0885 -0.0348607 -7.31503e-26)
(15.1001 -0.0384739 0)
(15.1154 -0.0408771 -6.92179e-26)
(15.1344 -0.0442654 6.99938e-26)
(15.1568 -0.0471793 2.00447e-26)
(15.181 -0.0504575 5.36332e-26)
(15.2025 -0.0533441 2.26787e-25)
(15.2072 -0.0554325 -1.62976e-26)
(15.1606 -0.0554677 5.53744e-42)
(14.8132 -0.0500109 0)
(14.1225 -0.0700629 6.89032e-27)
(14.9306 -0.0738718 0)
(15.0884 -0.0707391 -4.89205e-27)
(15.0701 -0.0685025 3.77936e-25)
(15.0284 -0.0684 3.71052e-25)
(14.9871 -0.0666856 0)
(14.9516 -0.0662181 -1.75437e-25)
(14.9229 -0.0627243 -5.84537e-26)
(14.9007 -0.062153 -8.02905e-26)
(14.8847 -0.0570251 -4.31302e-26)
(14.8726 -0.0567512 0)
(14.8678 -0.0506731 0)
(15.0778 -0.0296969 0)
(15.0826 -0.0339802 -7.33232e-26)
(15.091 -0.0353242 -1.65212e-25)
(15.1028 -0.0388366 -8.13033e-26)
(15.1181 -0.0410697 -3.7709e-26)
(15.1372 -0.0442983 0)
(15.1596 -0.0469817 1.45273e-26)
(15.1837 -0.0500008 -1.06239e-25)
(15.2048 -0.0526008 -4.64853e-26)
(15.2084 -0.0543617 0)
(15.1586 -0.0540269 0)
(14.8065 -0.0484575 0)
(14.1523 -0.0675 -1.50009e-26)
(14.9269 -0.0712401 0)
(15.0866 -0.0680093 0)
(15.0697 -0.0658491 3.07664e-25)
(15.0278 -0.0658308 2.94247e-25)
(14.9861 -0.0643225 -1.50645e-26)
(14.95 -0.064057 0)
(14.921 -0.060998 0)
(14.8985 -0.0606454 0)
(14.8822 -0.0561523 -5.62245e-26)
(14.87 -0.0560033 4.43718e-26)
(14.8651 -0.0507199 0)
(15.0801 -0.0303285 0)
(15.085 -0.0344699 0)
(15.0934 -0.0357169 -1.0044e-25)
(15.1053 -0.0391216 1.13807e-27)
(15.1207 -0.0412022 1.19463e-26)
(15.1398 -0.044285 0)
(15.1623 -0.0467727 6.2652e-26)
(15.1862 -0.0495755 9.88033e-26)
(15.2069 -0.0519435 7.47918e-26)
(15.2093 -0.0534309 -7.92412e-27)
(15.1563 -0.0527995 0)
(14.8001 -0.0472015 -2.45211e-27)
(14.1804 -0.0653457 1.43151e-26)
(14.9233 -0.0690826 0)
(15.0847 -0.0658016 0)
(15.0694 -0.0637198 2.47637e-25)
(15.0273 -0.0637643 2.36288e-25)
(14.9852 -0.0624249 -1.2438e-26)
(14.9488 -0.062305 1.92968e-26)
(14.9194 -0.0596078 0)
(14.8965 -0.0594071 2.93626e-26)
(14.88 -0.0554517 0)
(14.8677 -0.055381 1.04495e-25)
(14.8628 -0.050764 0)
(15.0823 -0.0309016 0)
(15.0872 -0.0348867 0)
(15.0958 -0.0360499 5.26577e-28)
(15.1077 -0.0393446 9.06149e-26)
(15.1232 -0.0412942 1.44932e-26)
(15.1423 -0.0442478 -7.23086e-27)
(15.1647 -0.0465732 -5.00125e-26)
(15.1885 -0.049198 -8.75727e-26)
(15.2087 -0.0513817 -6.35855e-26)
(15.2099 -0.0526431 -2.25305e-27)
(15.1537 -0.0517771 0)
(14.7942 -0.0462181 0)
(14.2069 -0.0635532 -8.77996e-27)
(14.9197 -0.0673347 0)
(15.0828 -0.0640436 0)
(15.0691 -0.0620455 0)
(15.0268 -0.0621354 0)
(14.9845 -0.0609346 -8.82315e-26)
(14.9477 -0.060915 -6.08803e-26)
(14.9181 -0.0585183 -6.62989e-26)
(14.8949 -0.0584145 -5.44046e-26)
(14.8781 -0.0549092 -3.59814e-26)
(14.8658 -0.0548795 5.38724e-26)
(14.8607 -0.0508148 -2.86896e-26)
(15.0843 -0.0314126 -2.86362e-26)
(15.0894 -0.0352321 -4.68127e-26)
(15.098 -0.0363277 -2.21453e-26)
(15.11 -0.0395156 3.148e-26)
(15.1255 -0.041359 8.2351e-27)
(15.1447 -0.0442014 2.7497e-26)
(15.167 -0.046397 0)
(15.1906 -0.0488786 0)
(15.2104 -0.0509202 1.29438e-26)
(15.2103 -0.0519974 7.1014e-27)
(15.1509 -0.0509512 0)
(14.7887 -0.0454867 0)
(14.232 -0.0620907 5.3125e-27)
(14.9161 -0.0659477 0)
(15.0808 -0.0626794 0)
(15.0688 -0.0607761 3.72474e-26)
(15.0264 -0.0608967 0)
(14.9839 -0.0598098 -1.33936e-25)
(14.9468 -0.0598515 -1.31833e-25)
(14.9169 -0.0576993 -1.00713e-25)
(14.8934 -0.0576463 -1.16022e-25)
(14.8765 -0.0545117 -1.08398e-25)
(14.8641 -0.0544919 -3.47094e-26)
(14.8589 -0.050878 -2.82699e-26)
(15.0863 -0.0318555 -2.76911e-26)
(15.0915 -0.035504 -3.80414e-26)
(15.1001 -0.0365523 2.98149e-26)
(15.1122 -0.0396404 1.73353e-26)
(15.1278 -0.0414047 2.92992e-26)
(15.147 -0.0441533 3.15664e-26)
(15.1692 -0.0462478 -3.81213e-26)
(15.1927 -0.0486129 -3.07722e-26)
(15.2119 -0.0505398 0)
(15.2106 -0.051479 0)
(15.148 -0.0503142 0)
(14.7836 -0.0449963 0)
(14.2559 -0.0609317 -3.66185e-27)
(14.9127 -0.0648782 0)
(15.0787 -0.0616655 0)
(15.0684 -0.0598756 0)
(15.0261 -0.0600134 0)
(14.9833 -0.0590153 0)
(14.9459 -0.0590819 -1.30766e-26)
(14.9158 -0.0571245 -1.93077e-26)
(14.8921 -0.0570826 -8.08005e-27)
(14.875 -0.0542465 0)
(14.8625 -0.0542094 1.17996e-26)
(14.8573 -0.0509559 2.97588e-28)
(15.088 -0.0322029 -3.00417e-26)
(15.0934 -0.0356802 -2.64742e-26)
(15.102 -0.0367148 1.19195e-26)
(15.1142 -0.039716 -2.29545e-26)
(15.1297 -0.0414379 2.64022e-26)
(15.149 -0.0441152 -3.59889e-27)
(15.1712 -0.0461441 -1.35564e-26)
(15.1945 -0.0484232 -1.21631e-30)
(15.2132 -0.0502721 2.85508e-26)
(15.2107 -0.0510898 0)
(15.1451 -0.0498624 0)
(14.7791 -0.044767 0)
(14.2785 -0.0600523 -1.09848e-27)
(14.9094 -0.0640763 0)
(15.0767 -0.0609712 0)
(15.0682 -0.0593465 -4.78228e-26)
(15.0258 -0.0594737 -6.02406e-26)
(14.9829 -0.0585419 -2.89794e-26)
(14.9452 -0.0586001 -2.54629e-26)
(14.9149 -0.0567881 -3.00233e-26)
(14.8909 -0.056718 -3.51804e-26)
(14.8738 -0.0541076 -1.13072e-26)
(14.8612 -0.0540231 -6.67917e-27)
(14.8559 -0.0510435 0)
(15.0903 -0.0324633 0)
(15.0961 -0.0357858 1.83483e-26)
(15.1047 -0.0368336 3.95633e-26)
(15.1171 -0.0397573 -1.52167e-26)
(15.1326 -0.0414611 3.27891e-28)
(15.1519 -0.0440692 -4.59758e-27)
(15.1739 -0.0460299 -3.02217e-26)
(15.197 -0.0481887 -2.77119e-26)
(15.2149 -0.0498318 0)
(15.2108 -0.0506587 -1.59358e-27)
(15.1422 -0.0495647 0)
(14.7751 -0.0449224 0)
(14.2999 -0.059382 2.648e-31)
(14.9063 -0.0634502 0)
(15.0748 -0.0605872 0)
(15.0678 -0.0591786 0)
(15.0253 -0.0592424 0)
(14.9823 -0.0583245 0)
(14.9442 -0.0583308 0)
(14.9136 -0.0566187 -1.22403e-26)
(14.8893 -0.0564952 -1.00218e-26)
(14.872 -0.0540576 -1.1811e-26)
(14.8593 -0.0539125 -2.74957e-27)
(14.8541 -0.0511327 -1.27681e-27)
(16.0775 -1.38081 5.19919e-24)
(16.6352 2.12049 5.93621e-24)
(15.2089 2.48809 -6.08986e-23)
(16.5511 -0.32394 0)
(17.5164 0.709018 2.09726e-23)
(16.9652 1.82661 0)
(16.2114 0.660986 3.34509e-25)
(17.2528 -0.818684 -1.11862e-24)
(17.5663 0.292933 -8.73229e-24)
(15.444 1.04768 1.59441e-25)
(16.2854 -1.6221 -4.92704e-25)
(17.037 -1.09404 3.19506e-24)
(14.7871 0.879789 1.03778e-25)
(15.254 -1.68895 -1.6176e-24)
(16.0273 -1.68917 0)
(14.4579 0.397498 2.87166e-23)
(10.5549 0.402983 1.65399e-24)
(10.8318 -1.08702 0)
(14.5536 -1.11021 -7.69998e-23)
(15.0222 -1.59728 -3.23144e-24)
(14.7017 -1.63739 -1.69664e-24)
(13.4577 -0.171379 7.98316e-24)
(14.7663 2.19373 -2.77348e-23)
(14.3884 1.13805 -1.36448e-24)
(15.6927 -0.684439 -2.13882e-24)
(16.0011 -1.17095 -1.73578e-24)
(15.21 -1.42457 2.86902e-24)
(15.6119 3.71418 3.01004e-24)
(13.8361 3.72622 -2.50964e-23)
(16.5471 1.81818 -2.41016e-28)
(16.1675 1.05549 2.23119e-24)
(15.5863 1.19473 0)
(15.9861 -0.238252 -1.48075e-24)
(16.4149 -0.314107 -1.43768e-24)
(16.1738 -0.983862 5.14587e-25)
(16.4221 -0.870917 2.6745e-24)
(16.538 -0.958438 1.83639e-24)
(16.3161 -1.44589 -1.69831e-24)
(17.2938 1.66608 1.27212e-24)
(16.9456 2.56961 -3.44364e-24)
(17.305 0.639052 1.65859e-23)
(16.672 0.418682 2.13707e-24)
(16.336 0.930343 3.54749e-24)
(15.9115 0.228579 -1.95382e-25)
(16.1576 0.509895 0)
(16.4106 -0.0830715 -2.1412e-24)
(16.4794 0.224283 -1.73808e-24)
(16.5567 0.452288 1.92325e-24)
(16.6717 -0.0920403 2.62288e-27)
(17.0897 -0.527612 -7.2417e-25)
(17.3326 0.563849 -5.35368e-27)
(17.1172 -0.649934 -6.50084e-25)
(16.6577 -0.329799 6.23459e-26)
(16.7174 0.223207 0)
(15.5965 0.477057 0)
(15.5442 0.866799 3.87071e-26)
(16.0187 0.647553 -8.94359e-25)
(15.8485 0.925072 0)
(15.7178 1.19068 1.84759e-24)
(16.0315 1.07647 -3.68849e-25)
(16.1405 -1.93059 -1.90154e-24)
(16.6991 -1.40442 2.11718e-24)
(16.3322 -1.36639 -1.73758e-24)
(16.2501 -0.824189 2.50522e-25)
(16.5817 -0.486535 7.94372e-25)
(15.0017 -2.31141 1.13162e-24)
(15.6022 -2.18702 8.62097e-26)
(15.4616 -1.46388 5.22542e-24)
(15.7215 -0.955486 -1.41685e-24)
(16.1189 -0.890863 9.97813e-25)
(13.8688 -1.78739 -1.18462e-24)
(14.2747 -2.09349 3.01519e-25)
(14.5732 0.0351406 -5.28809e-25)
(12.4948 -0.0742731 5.12887e-25)
(11.8311 0.145102 -1.33403e-23)
(12.6732 -0.437295 0)
(14.5644 -0.579764 2.09309e-25)
(14.5199 -0.93236 3.46152e-23)
(16.2027 -1.61029 -1.82234e-24)
(15.8869 -1.88252 -1.25871e-23)
(15.8253 -1.61597 -8.9042e-26)
(15.6877 -2.37694 5.15765e-24)
(16.2367 -1.71583 1.08761e-24)
(14.0234 -2.89382 -3.06638e-24)
(15.3841 -2.58143 -8.95028e-25)
(16.8696 2.70052 3.94283e-24)
(15.8864 3.56747 6.8122e-25)
(16.2204 2.36385 2.4949e-24)
(16.0413 3.05563 1.58554e-24)
(16.8247 2.58931 7.47382e-24)
(16.6667 -0.279276 -4.45406e-24)
(16.5865 -0.783452 1.73039e-23)
(16.5104 -0.600399 3.42202e-24)
(16.544 -0.867194 0)
(16.6139 -0.239507 -2.3435e-27)
(16.289 -1.61127 2.06957e-26)
(16.5248 -0.960395 0)
(17.325 0.673244 -9.41688e-27)
(17.3171 1.59288 1.24356e-28)
(17.3991 1.10763 6.12974e-25)
(17.4303 1.53399 -1.94238e-25)
(17.5794 0.66873 -3.54475e-25)